
 Primary working directories    : /tmp/1049502.971.gen5.q
 Secondary working directories  : /tmp/1049502.971.gen5.q
 Wavefunction directory         : /home/vulcan/jj04645/wfu/
 Main file repository           : /tmp/1049502.971.gen5.q/

 ARCHNAME  : Linux/x86_64
 FC        : /opt/intel/compilers_and_libraries_2016.1.150/linux/bin/intel64/ifort
 FCVERSION : 16.0.1
 BLASLIB   : -mkl
 id        : ccgc

 Nodes     nprocs
 n070         1
 ga_uses_ma=false, calling ma_init with nominal heap.
 GA-space will be limited to   8.0 MW (determined by -G option)

 Using customized tuning parameters: mindgm=10; mindgv=16; mindgc=4; mindgr=1; noblas=0; mincuda=1000; minvec=7
 default implementation of scratch files=df  

 ***,Optimization of neopentane
 memory,1000,m
 gthresh,energy=1.0d-12,orbital=1.0d-10,oneint=1.0d-16,twoint=1.0d-16,optgrad=1.0d-6,compress=1.0d-13
 geomtyp=xyz
 
 bohr
 geometry = {
  C    0.0011086007   -0.0011086007    0.0000000000
  C    2.3665513921   -0.0011076764   -1.6726186775
  C    0.0011076764   -2.3665513921    1.6726186775
  C    0.0011076764    2.3643323419    1.6726212919
  C   -2.3643323419   -0.0011076764   -1.6726212919
  H    2.4063966675    1.6730243351   -2.8845817520
  H   -1.6730243351   -2.4063966675    2.8845817520
  H    1.6726991625    2.4113047504    2.8878313819
  H   -2.4113047504   -1.6726991625   -2.8878313819
  H    4.0775952272   -0.0011083164   -0.5189789879
  H    0.0011083164   -4.0775952272    0.5189789879
  H    0.0011083099    4.0799588830    0.5258078613
  H   -4.0799588830   -0.0011083099   -0.5258078613
  H    2.4064648389   -1.6781016721   -2.8866564777
  H    1.6781016721   -2.4064648389    2.8866564777
  H   -1.6733441438    2.4113850857    2.8899079471
  H   -2.4113850857    1.6733441438   -2.8899079471
 }
 
 basis=VDZ
 {rhf;maxit,200}
 {ccsd(t);maxit,200}

 Variables initialized (661), CPU time= 0.01 sec
 Commands  initialized (458), CPU time= 0.01 sec, 486 directives.
 Default parameters read. Elapsed time= 0.11 sec

 Checking input...
 Passed
1


                                         ***  PROGRAM SYSTEM MOLPRO  ***
                         Copyright, University College Cardiff Consultants Limited, 2008

                                    Version 2010.1 linked May 16 2016 07:17:05


 **********************************************************************************************************************************
 LABEL *   Optimization of neopentane                                                    
 Linux-4.4.3/n070(x86_64) 64 bit mpp version                                             DATE: 30-Mar-24          TIME: 23:00:10  
 **********************************************************************************************************************************

 SHA1:             9e8077add272b0f3cad6f7df79ec5211205f459d
 **********************************************************************************************************************************

 THRESHOLDS:

 ZERO    =  1.00D-12  ONEINT  =  1.00D-16  TWOINT  =  1.00D-16  PREFAC  =  1.00D-14  LOCALI  =  1.00D-09  EORDER  =  1.00D-04
 ENERGY  =  1.00D-12  ETEST   =  0.00D+00  EDENS   =  0.00D+00  THRDEDEF=  1.00D-06  GRADIENT=  1.00D-02  STEP    =  1.00D-03
 ORBITAL =  1.00D-10  CIVEC   =  1.00D-05  COEFF   =  1.00D-04  PRINTCI =  5.00D-02  PUNCHCI =  9.90D+01  OPTGRAD =  1.00D-06
 OPTENERG=  1.00D-06  OPTSTEP =  3.00D-04  THRGRAD =  1.00D-10  COMPRESS=  1.00D-13  VARMIN  =  1.00D-07  VARMAX  =  1.00D-03
 THRDOUB =  0.00D+00  THRDIV  =  1.00D-05  THRRED  =  1.00D-07  THRPSP  =  1.00D+00  THRDC   =  1.00D-10  THRCS   =  1.00D-10
 THRNRM  =  1.00D-08  THREQ   =  0.00D+00  THRDE   =  1.00D+00  THRREF  =  1.00D-05  SPARFAC =  1.00D+00  THRDLP  =  1.00D-07
 THRDIA  =  1.00D-10  THRDLS  =  1.00D-07  THRGPS  =  0.00D+00  THRKEX  =  0.00D+00  THRDIS  =  2.00D-01  THRVAR  =  1.00D-10
 THRLOC  =  1.00D-06  THRGAP  =  1.00D-06  THRLOCT = -1.00D+00  THRGAPT = -1.00D+00  THRORB  =  1.00D-06  THRMLTP =  0.00D+00
 THRCPQCI=  1.00D-10  KEXTA   =  0.00D+00  THRCOARS=  0.00D+00  SYMTOL  =  1.00D-06  GRADTOL =  1.00D-06  THROVL  =  1.00D-08
 THRORTH =  1.00D-08  GRID    =  1.00D-06  GRIDMAX =  1.00D-03  DTMAX   =  0.00D+00

 SETTING GEOMTYP        =    XYZ
 ZUNIT=BOHR
 

 Variable memory set to 1000000000 words,  buffer space   230000 words

 SETTING BASIS          =    VDZ


 Recomputing integrals since basis changed


 Using spherical harmonics

 Library entry C      S cc-pVDZ              selected for orbital group  1
 Library entry C      P cc-pVDZ              selected for orbital group  1
 Library entry C      D cc-pVDZ              selected for orbital group  1
 Library entry H      S cc-pVDZ              selected for orbital group  2
 Library entry H      P cc-pVDZ              selected for orbital group  2

1PROGRAM * SEWARD (Integral evaluation for generally contracted gaussian basis sets)     Author: Roland Lindh, 1990

 Geometry written to block  1 of record 700


 Point group  C1  



 ATOMIC COORDINATES

 NR  ATOM    CHARGE       X              Y              Z

   1  C       6.00    0.001108601   -0.001108601    0.000000000
   2  C       6.00    2.366551392   -0.001107676   -1.672618678
   3  C       6.00    0.001107676   -2.366551392    1.672618678
   4  C       6.00    0.001107676    2.364332342    1.672621292
   5  C       6.00   -2.364332342   -0.001107676   -1.672621292
   6  H       1.00    2.406396668    1.673024335   -2.884581752
   7  H       1.00   -1.673024335   -2.406396668    2.884581752
   8  H       1.00    1.672699163    2.411304750    2.887831382
   9  H       1.00   -2.411304750   -1.672699163   -2.887831382
  10  H       1.00    4.077595227   -0.001108316   -0.518978988
  11  H       1.00    0.001108316   -4.077595227    0.518978988
  12  H       1.00    0.001108310    4.079958883    0.525807861
  13  H       1.00   -4.079958883   -0.001108310   -0.525807861
  14  H       1.00    2.406464839   -1.678101672   -2.886656478
  15  H       1.00    1.678101672   -2.406464839    2.886656478
  16  H       1.00   -1.673344144    2.411385086    2.889907947
  17  H       1.00   -2.411385086    1.673344144   -2.889907947

 Bond lengths in Bohr (Angstrom)

 1-2  2.897062795  1-3  2.897062795  1-4  2.897062795  1-5  2.897062795  2-6  2.067162338
     ( 1.533059604)     ( 1.533059604)     ( 1.533059604)     ( 1.533059604)     ( 1.093895197)

  2-10  2.063626793   2-14  2.070697884   3- 7  2.067162338   3-11  2.063626793   3-15  2.070697884
       ( 1.092024267)       ( 1.095766127)       ( 1.093895197)       ( 1.092024267)       ( 1.095766127)

  4- 8  2.067162322   4-12  2.063626777   4-16  2.070697868   5- 9  2.067162322   5-13  2.063626777
       ( 1.093895188)       ( 1.092024258)       ( 1.095766118)       ( 1.093895188)       ( 1.092024258)

  5-17  2.070697868
       ( 1.095766118)

 Bond angles

  1- 2- 6  110.74655140   1- 2-10  110.74655131   1- 2-14  110.74655205   1- 3- 7  110.74655140

  1- 3-11  110.74655131   1- 3-15  110.74655205   1- 4- 8  110.97476527   1- 4-12  110.97476486

  1- 4-16  110.97476513   1- 5- 9  110.97476527   1- 5-13  110.97476486   1- 5-17  110.97476513

  2-1-3  109.47122063   2-1-4  109.47122064   2-1-5  109.47122063   3-1-4  109.47122063

  3- 1- 5  109.47122064   4- 1- 5  109.47122064   6- 2-10  108.16633017   6- 2-14  108.16632950

  7- 3-11  108.16633017   7- 3-15  108.16632950   8- 4-12  107.92672620   8- 4-16  107.92672577

  9- 5-13  107.92672620   9- 5-17  107.92672577  10- 2-14  108.16632961  11- 3-15  108.16632961

 12- 4-16  107.92672621  13- 5-17  107.92672621

 NUCLEAR CHARGE:                   42
 NUMBER OF PRIMITIVE AOS:         219
 NUMBER OF SYMMETRY AOS:          214
 NUMBER OF CONTRACTIONS:          130   ( 130A   )
 NUMBER OF CORE ORBITALS:           5   (   5A   )
 NUMBER OF VALENCE ORBITALS:       32   (  32A   )


 NUCLEAR REPULSION ENERGY  198.59920699


 Eigenvalues of metric

         1 0.280E-02 0.503E-02 0.504E-02 0.504E-02 0.171E-01 0.189E-01 0.189E-01 0.189E-01


 Contracted 2-electron integrals neglected if value below      1.0D-16
 AO integral compression algorithm  1   Integral accuracy      1.0D-16

     299.106 MB (compressed) written to integral file ( 95.9%)

     Node minimum: 299.106 MB, node maximum: 299.106 MB


 NUMBER OF SORTED TWO-ELECTRON INTEGRALS:   36256870.     BUFFER LENGTH:  32768
 NUMBER OF SEGMENTS:   3  SEGMENT LENGTH:   15998004      RECORD LENGTH: 524288

 Memory used in sort:      16.56 MW

 SORT1 READ    38982726. AND WROTE    36118212. INTEGRALS IN    105 RECORDS. CPU TIME:     0.38 SEC, REAL TIME:     0.62 SEC
 SORT2 READ    36118212. AND WROTE    36256870. INTEGRALS IN   1141 RECORDS. CPU TIME:     0.29 SEC, REAL TIME:     0.48 SEC

 FILE SIZES:   FILE 1:   280.4 MBYTE,  FILE 4:   440.4 MBYTE,   TOTAL:    720.8 MBYTE

 OPERATOR DM      FOR CENTER  0  COORDINATES:    0.000000    0.000000    0.000000


 **********************************************************************************************************************************
 DATASETS  * FILE   NREC   LENGTH (MB)   RECORD NAMES
              1      19      280.57       500      610      700      900      950      970     1000      129      960     1100   
                                          VAR    BASINP    GEOM    SYMINP    ZMAT    AOBASIS   BASIS     P2S    ABASIS      S 
                                         1400     1410     1200     1210     1080     1600     1650     1300     1700   
                                           T        V       H0       H01     AOSYM     SMH    MOLCAS    ERIS     OPER   

 PROGRAMS   *        TOTAL       INT
 CPU TIMES  *         4.86      4.73
 REAL TIME  *         5.97 SEC
 DISK USED  *         1.02 GB      
 GA USED    *         0.01 MB       (max)       0.00 MB       (current)
 **********************************************************************************************************************************

1PROGRAM * RHF-SCF (CLOSED SHELL)       Authors: W. Meyer, H.-J. Werner


 NUMBER OF ELECTRONS:      21+   21-    SPACE SYMMETRY=1    SPIN SYMMETRY: Singlet 
 CONVERGENCE THRESHOLDS:    1.00E-10 (Density)    1.00E-13 (Energy)
 MAX. NUMBER OF ITERATIONS:      200
 INTERPOLATION TYPE:            DIIS
 INTERPOLATION STEPS:              2 (START)      1 (STEP)
 LEVEL SHIFTS:                  0.00 (CLOSED)  0.00 (OPEN) 



 Orbital guess generated from atomic densities. Full valence occupancy:   37

 Molecular orbital dump at record        2100.2

 ITERATION    DDIFF          GRAD             ENERGY        2-EL.EN.            DIPOLE MOMENTS         DIIS
    1      0.000D+00      0.000D+00      -196.27088077    527.677318   -0.00189    0.00189   -0.00000    0
    2      0.000D+00      0.467D-02      -196.33873994    521.943833   -0.00072    0.00072    0.00000    1
    3      0.930D-02      0.177D-02      -196.34653041    524.513926   -0.00073    0.00073    0.00000    2
    4      0.346D-02      0.571D-03      -196.34767717    523.812592   -0.00062    0.00062   -0.00000    3
    5      0.114D-02      0.118D-03      -196.34771175    523.879106   -0.00057    0.00057   -0.00000    4
    6      0.198D-03      0.238D-04      -196.34771343    523.875348   -0.00056    0.00056   -0.00000    5
    7      0.659D-04      0.226D-05      -196.34771345    523.875114   -0.00056    0.00056    0.00000    6
    8      0.685D-05      0.488D-06      -196.34771345    523.875072   -0.00056    0.00056    0.00000    6
    9      0.138D-05      0.703D-07      -196.34771345    523.875063   -0.00056    0.00056   -0.00000    5
   10      0.244D-06      0.935D-08      -196.34771345    523.875073   -0.00056    0.00056    0.00000    5
   11      0.316D-07      0.280D-08      -196.34771345    523.875069   -0.00056    0.00056    0.00000    5
   12      0.585D-08      0.105D-08      -196.34771345    523.875069   -0.00056    0.00056   -0.00000    6
   13      0.216D-08      0.867D-10      -196.34771345    523.875070   -0.00056    0.00056   -0.00000    6
   14      0.199D-09      0.278D-10      -196.34771345    523.875070   -0.00056    0.00056    0.00000    6
   15      0.747D-10      0.836D-11      -196.34771345    523.875070   -0.00056    0.00056    0.00000    6
   16      0.266D-10      0.161D-11      -196.34771345    523.875070   -0.00056    0.00056   -0.00000    6
   17      0.435D-11      0.545D-12      -196.34771345    523.875070   -0.00056    0.00056   -0.00000    7
   18      0.117D-11      0.143D-12      -196.34771345    523.875070   -0.00056    0.00056   -0.00000    6
   19      0.515D-12      0.414D-13      -196.34771345    523.875070   -0.00056    0.00056    0.00000    7
   20      0.159D-12      0.335D-13      -196.34771345    523.875070   -0.00056    0.00056    0.00000    8
   21      0.117D-12      0.268D-13      -196.34771345    523.875070   -0.00056    0.00056    0.00000    9
   22      0.765D-13      0.290D-13      -196.34771345    523.875070   -0.00056    0.00056    0.00000    9
   23      0.497D-13      0.255D-13      -196.34771345    523.875070   -0.00056    0.00056    0.00000    9
   24      0.474D-13      0.256D-13      -196.34771345    523.875070   -0.00056    0.00056    0.00000    9
   25      0.324D-13      0.216D-13      -196.34771345    523.875070   -0.00056    0.00056    0.00000    9
   26      0.391D-13      0.214D-13      -196.34771345    523.875070   -0.00056    0.00056    0.00000    0

 Final occupancy:  21

 !RHF STATE 1.1 Energy               -196.347713451988
 Nuclear energy                       198.59920699
 One-electron energy                 -656.88445520
 Two-electron energy                  261.93753476
 Virial quotient                       -1.00118108
 !RHF STATE 1.1 Dipole moment          -0.00055869     0.00055869     0.00000000
 Dipole moment /Debye                  -0.00141994     0.00141994     0.00000000

 Orbital energies:

         1.1          2.1          3.1          4.1          5.1          6.1          7.1          8.1          9.1         10.1
    -11.230715   -11.214134   -11.214118   -11.214073   -11.214041    -1.103749    -0.927668    -0.927563    -0.927458    -0.728614

        11.1         12.1         13.1         14.1         15.1         16.1         17.1         18.1         19.1         20.1
     -0.609646    -0.609076    -0.608505    -0.550839    -0.550133    -0.508134    -0.507789    -0.507443    -0.450595    -0.450331

        21.1         22.1         23.1
     -0.450069     0.170675     0.231135


 **********************************************************************************************************************************
 DATASETS  * FILE   NREC   LENGTH (MB)   RECORD NAMES
              1      19      280.57       500      610      700      900      950      970     1000      129      960     1100   
                                          VAR    BASINP    GEOM    SYMINP    ZMAT    AOBASIS   BASIS     P2S    ABASIS      S 
                                         1400     1410     1200     1210     1080     1600     1650     1300     1700   
                                           T        V       H0       H01     AOSYM     SMH    MOLCAS    ERIS     OPER   

              2       3        0.89       700     1000     2100   
                                         GEOM     BASIS     RHF  

 PROGRAMS   *        TOTAL       RHF       INT
 CPU TIMES  *        11.89      7.03      4.73
 REAL TIME  *        13.93 SEC
 DISK USED  *         1.02 GB      
 GA USED    *         0.01 MB       (max)       0.00 MB       (current)
 **********************************************************************************************************************************


1PROGRAM * CCSD (Closed-shell coupled cluster)     Authors: C. Hampel, H.-J. Werner, 1991, M. Deegan, P.J. Knowles, 1992


 Convergence thresholds:  THRVAR = 1.00D-08  THRDEN = 1.00D-12

 CCSD(T)     terms to be evaluated (factor= 1.000)


 Number of core orbitals:           5 (   5 )
 Number of closed-shell orbitals:  16 (  16 )
 Number of external orbitals:     109 ( 109 )

 Molecular orbitals read from record     2100.2  Type=RHF/CANONICAL (state 1.1)

 Number of N-1 electron functions:              16
 Number of N-2 electron functions:             136
 Number of singly external CSFs:              1744
 Number of doubly external CSFs:           1521640
 Total number of CSFs:                     1523385

 Length of J-op  integral file:               0.00 MB
 Length of K-op  integral file:               1.20 MB
 Length of 3-ext integral record:             0.00 MB

 Memory could be reduced to 28.13 Mwords without degradation in triples

 Integral transformation finished. Total CPU:   1.91 sec, npass=  1  Memory used:  22.98 MW

 Reference energy:                   -196.34771345

 MP2 singlet pair energy:              -0.48845272
 MP2 triplet pair energy:              -0.25007758
 MP2 correlation energy:               -0.73853029
 MP2 total energy:                   -197.08624375

 SCS-MP2 correlation energy:           -0.74174709   (PS=  1.200000  PT=  0.333333)
 SCS-MP2 total energy:               -197.08946054

 ITER.      SQ.NORM     CORR.ENERGY   TOTAL ENERGY   ENERGY CHANGE        DEN1      VAR(S)    VAR(P)  DIIS     TIME
   1      1.28821647    -0.80655558  -197.15426903    -0.06802529    -0.04667766  0.17D-02  0.47D-02  1  1     7.02
   2      1.31151550    -0.81148936  -197.15920281    -0.00493377    -0.02352465  0.47D-04  0.32D-03  2  2    12.20
   3      1.31554447    -0.81163862  -197.15935207    -0.00014926    -0.00245276  0.53D-05  0.22D-04  3  3    17.42
   4      1.31658484    -0.81170106  -197.15941451    -0.00006244    -0.00046076  0.25D-06  0.12D-05  4  4    22.62
   5      1.31670968    -0.81170563  -197.15941909    -0.00000457    -0.00005010  0.15D-07  0.93D-07  5  5    27.89
   6      1.31672250    -0.81170317  -197.15941663     0.00000246    -0.00000875  0.68D-09  0.61D-08  6  6    33.10
   7      1.31672107    -0.81170346  -197.15941691    -0.00000028     0.00000065  0.16D-09  0.52D-09  6  1    38.32
   8      1.31672080    -0.81170360  -197.15941706    -0.00000015     0.00000025  0.78D-11  0.30D-10  6  2    43.53
   9      1.31672051    -0.81170365  -197.15941710    -0.00000005     0.00000025  0.11D-11  0.25D-11  6  3    48.92
  10      1.31672040    -0.81170366  -197.15941711    -0.00000001     0.00000009  0.89D-13  0.22D-12  6  4    54.13
  11      1.31672034    -0.81170366  -197.15941711    -0.00000000     0.00000004  0.94D-14  0.24D-13  6  5    59.34
  12      1.31672031    -0.81170366  -197.15941712    -0.00000000     0.00000002  0.89D-15  0.12D-14  6  1    64.56
  13      1.31672030    -0.81170366  -197.15941712    -0.00000000     0.00000000  0.79D-16  0.70D-16  6  6    69.77
  14      1.31672030    -0.81170366  -197.15941712    -0.00000000     0.00000000  0.15D-16  0.96D-17  6  2    74.99
  15      1.31672030    -0.81170366  -197.15941712    -0.00000000     0.00000000  0.13D-17  0.11D-17  6  3    80.43
  16      1.31672030    -0.81170366  -197.15941712     0.00000000    -0.00000000  0.70D-19  0.92D-19  6  4    85.63
  17      1.31672030    -0.81170366  -197.15941712     0.00000000    -0.00000000  0.35D-20  0.86D-20  6  5    90.83
  18      1.31672030    -0.81170366  -197.15941712     0.00000000    -0.00000000  0.41D-21  0.12D-20  6  1    96.05
  19      1.31672030    -0.81170366  -197.15941712     0.00000000    -0.00000000  0.35D-22  0.17D-21  6  6   101.25

 Norm of t1 vector:      0.05469811      S-energy:    -0.00000000      T1 diagnostic:  0.00683726
                                                                       D1 diagnostic:  0.01261547


 Total CPU time for triples:     81.02 sec


 RESULTS
 =======

  Reference energy                   -196.347713451988
  CCSD singlet pair energy             -0.577587592384
  CCSD triplet pair energy             -0.234116070975
  CCSD correlation energy              -0.811703663358

  Triples (T) contribution             -0.023942412289
  Total correlation energy             -0.835646075648

  CCSD total energy                  -197.159417115346
  CCSD[T] energy                     -197.183818871587
  CCSD-T energy                      -197.183110865164
 !CCSD(T) total energy               -197.183359527636

 Timing summary (sec):

 STEP                 CPU(USER)    SYS     CPU(TOT)    WALL
 Transformation          2.00      0.18      2.18      2.17
 CCSD iterations        99.27      2.37    101.64    101.76
 Triples                81.02      1.79     82.81     82.83

 Program statistics:

 Available memory in ccsd:               999998876
 Min. memory needed in ccsd:               3966807
 Max. memory used in ccsd:                 5311887
 Max. memory used in cckext:               4858018 (19 integral passes)



 **********************************************************************************************************************************
 DATASETS  * FILE   NREC   LENGTH (MB)   RECORD NAMES
              1      20      392.28       500      610      700      900      950      970     1000      129      960     1100   
                                          VAR    BASINP    GEOM    SYMINP    ZMAT    AOBASIS   BASIS     P2S    ABASIS      S 
                                         1400     1410     1200     1210     1080     1600     1650     1300     1700     1380   
                                           T        V       H0       H01     AOSYM     SMH    MOLCAS    ERIS     OPER     JKOP   

              2       3        0.89       700     1000     2100   
                                         GEOM     BASIS     RHF  

 PROGRAMS   *        TOTAL   CCSD(T)       RHF       INT
 CPU TIMES  *       194.19    182.30      7.03      4.73
 REAL TIME  *       200.75 SEC
 DISK USED  *         1.02 GB      
 GA USED    *         0.01 MB       (max)       0.00 MB       (current)
 **********************************************************************************************************************************

        CCSD(T)         RHF-SCF 
   -197.18335953   -196.34771345
 **********************************************************************************************************************************
 Variable memory released
