
 Primary working directories    : /tmp/999602.818.gen4.q
 Secondary working directories  : /tmp/999602.818.gen4.q
 Wavefunction directory         : /home/vulcan/jj04645/wfu/
 Main file repository           : /tmp/999602.818.gen4.q/

 ARCHNAME  : Linux/x86_64
 FC        : /opt/intel/compilers_and_libraries_2016.1.150/linux/bin/intel64/ifort
 FCVERSION : 16.0.1
 BLASLIB   : -mkl
 id        : ccgc

 Nodes     nprocs
 n027         1
 ga_uses_ma=false, calling ma_init with nominal heap.
 GA-space will be limited to   8.0 MW (determined by -G option)

 Using customized tuning parameters: mindgm=10; mindgv=16; mindgc=4; mindgr=1; noblas=0; mincuda=1000; minvec=7
 default implementation of scratch files=df  

 ***,Optimization of 1,3-difluorobenzene
 memory,1000,m
 gthresh,energy=1.0d-12,orbital=1.0d-10,oneint=1.0d-16,twoint=1.0d-16,optgrad=1.0d-6,compress=1.0d-13
 geomtyp=xyz
 
 bohr
 geometry = {
  F    0.0056117919    4.4334993165   -1.7623109081
  C    0.0028375833    2.2417837056   -0.4830926526
  C   -0.0029088793   -2.2981098420    2.1431292056
  C    0.0000000000   -0.0000000000   -1.8530640923
  C    0.0029088793    2.2981098420    2.1431292056
  C    0.0000000000   -0.0000000000    3.4412542818
  C   -0.0028375833   -2.2417837056   -0.4830926526
  H    0.0000000000   -0.0000000000   -3.8944600852
  H   -0.0092690232    4.0867651712    3.1290364354
  H   -0.0000000000   -0.0000000000    5.4862721709
  F   -0.0056117919   -4.4334993165   -1.7623109081
  H    0.0092690232   -4.0867651712    3.1290364354
 }
 
 basis=VDZ
 {rhf;maxit,200}
 {ccsd(t);maxit,200}

 Variables initialized (661), CPU time= 0.00 sec
 Commands  initialized (458), CPU time= 0.01 sec, 486 directives.
 Default parameters read. Elapsed time= 0.05 sec

 Checking input...
 Passed
1


                                         ***  PROGRAM SYSTEM MOLPRO  ***
                         Copyright, University College Cardiff Consultants Limited, 2008

                                    Version 2010.1 linked May 16 2016 07:17:05


 **********************************************************************************************************************************
 LABEL *   Optimization of 1,3-difluorobenzene                                           
 Linux-4.4.3/n027(x86_64) 64 bit mpp version                                             DATE: 07-Feb-24          TIME: 19:09:52  
 **********************************************************************************************************************************

 SHA1:             9e8077add272b0f3cad6f7df79ec5211205f459d
 **********************************************************************************************************************************

 THRESHOLDS:

 ZERO    =  1.00D-12  ONEINT  =  1.00D-16  TWOINT  =  1.00D-16  PREFAC  =  1.00D-14  LOCALI  =  1.00D-09  EORDER  =  1.00D-04
 ENERGY  =  1.00D-12  ETEST   =  0.00D+00  EDENS   =  0.00D+00  THRDEDEF=  1.00D-06  GRADIENT=  1.00D-02  STEP    =  1.00D-03
 ORBITAL =  1.00D-10  CIVEC   =  1.00D-05  COEFF   =  1.00D-04  PRINTCI =  5.00D-02  PUNCHCI =  9.90D+01  OPTGRAD =  1.00D-06
 OPTENERG=  1.00D-06  OPTSTEP =  3.00D-04  THRGRAD =  1.00D-10  COMPRESS=  1.00D-13  VARMIN  =  1.00D-07  VARMAX  =  1.00D-03
 THRDOUB =  0.00D+00  THRDIV  =  1.00D-05  THRRED  =  1.00D-07  THRPSP  =  1.00D+00  THRDC   =  1.00D-10  THRCS   =  1.00D-10
 THRNRM  =  1.00D-08  THREQ   =  0.00D+00  THRDE   =  1.00D+00  THRREF  =  1.00D-05  SPARFAC =  1.00D+00  THRDLP  =  1.00D-07
 THRDIA  =  1.00D-10  THRDLS  =  1.00D-07  THRGPS  =  0.00D+00  THRKEX  =  0.00D+00  THRDIS  =  2.00D-01  THRVAR  =  1.00D-10
 THRLOC  =  1.00D-06  THRGAP  =  1.00D-06  THRLOCT = -1.00D+00  THRGAPT = -1.00D+00  THRORB  =  1.00D-06  THRMLTP =  0.00D+00
 THRCPQCI=  1.00D-10  KEXTA   =  0.00D+00  THRCOARS=  0.00D+00  SYMTOL  =  1.00D-06  GRADTOL =  1.00D-06  THROVL  =  1.00D-08
 THRORTH =  1.00D-08  GRID    =  1.00D-06  GRIDMAX =  1.00D-03  DTMAX   =  0.00D+00

 SETTING GEOMTYP        =    XYZ
 ZUNIT=BOHR
 

 Variable memory set to 1000000000 words,  buffer space   230000 words

 SETTING BASIS          =    VDZ


 Recomputing integrals since basis changed


 Using spherical harmonics

 Library entry F      S cc-pVDZ              selected for orbital group  1
 Library entry F      P cc-pVDZ              selected for orbital group  1
 Library entry F      D cc-pVDZ              selected for orbital group  1
 Library entry C      S cc-pVDZ              selected for orbital group  2
 Library entry C      P cc-pVDZ              selected for orbital group  2
 Library entry C      D cc-pVDZ              selected for orbital group  2
 Library entry H      S cc-pVDZ              selected for orbital group  3
 Library entry H      P cc-pVDZ              selected for orbital group  3

1PROGRAM * SEWARD (Integral evaluation for generally contracted gaussian basis sets)     Author: Roland Lindh, 1990

 Geometry written to block  1 of record 700


 Point group  C2  



 ATOMIC COORDINATES

 NR  ATOM    CHARGE       X              Y              Z

   1  F       9.00    0.005611792    4.433499316   -1.762310908
   2  F       9.00   -0.005611792   -4.433499316   -1.762310908
   3  C       6.00    0.002837583    2.241783706   -0.483092653
   4  C       6.00   -0.002837583   -2.241783706   -0.483092653
   5  C       6.00   -0.002908879   -2.298109842    2.143129206
   6  C       6.00    0.002908879    2.298109842    2.143129206
   7  C       6.00    0.000000000    0.000000000   -1.853064092
   8  C       6.00    0.000000000    0.000000000    3.441254282
   9  H       1.00    0.000000000    0.000000000   -3.894460085
  10  H       1.00   -0.009269023    4.086765171    3.129036435
  11  H       1.00    0.009269023   -4.086765171    3.129036435
  12  H       1.00    0.000000000    0.000000000    5.486272171

 Bond lengths in Bohr (Angstrom)

 1-3  2.537720308  2-4  2.537720308  3-6  2.626825820  3-7  2.627246464  4-5  2.626825820
     ( 1.342903750)     ( 1.342903750)     ( 1.390056356)     ( 1.390278951)     ( 1.390056356)

  4- 7  2.627246464   5- 8  2.639402588   5-11  2.042412606   6- 8  2.639402588   6-10  2.042412606
       ( 1.390278951)       ( 1.396711695)       ( 1.080798203)       ( 1.396711695)       ( 1.080798203)

  7- 9  2.041395993   8-12  2.045017889
       ( 1.080260234)       ( 1.082176859)

 Bond angles

  1-3-6  119.04174046   1-3-7  118.30018461   2-4-5  119.04174046   2-4-7  118.30018461

  3- 6- 8  118.23195752   3- 6-10  120.09163125   3- 7- 4  117.14118843   3- 7- 9  121.42940579

  4- 5- 8  118.23195752   4- 5-11  120.09163125   4- 7- 9  121.42940579   5- 4- 7  122.65807493

  5- 8- 6  121.07874667   5- 8-12  119.46062667   6- 3- 7  122.65807493   6- 8-12  119.46062667

  8- 5-11  121.67469735   8- 6-10  121.67469735

 NUCLEAR CHARGE:                   58
 NUMBER OF PRIMITIVE AOS:         244
 NUMBER OF SYMMETRY AOS:          236
 NUMBER OF CONTRACTIONS:          132   (  69A   +  63B   )
 NUMBER OF CORE ORBITALS:           8   (   5A   +   3B   )
 NUMBER OF VALENCE ORBITALS:       36   (  19A   +  17B   )


 NUCLEAR REPULSION ENERGY  342.36260723


 Eigenvalues of metric

         1 0.394E-03 0.169E-02 0.306E-02 0.130E-01 0.148E-01 0.202E-01 0.238E-01 0.265E-01
         2 0.120E-02 0.263E-02 0.315E-02 0.125E-01 0.220E-01 0.267E-01 0.396E-01 0.413E-01


 Contracted 2-electron integrals neglected if value below      1.0D-16
 AO integral compression algorithm  1   Integral accuracy      1.0D-16

     159.646 MB (compressed) written to integral file ( 88.5%)

     Node minimum: 159.646 MB, node maximum: 159.646 MB


 NUMBER OF SORTED TWO-ELECTRON INTEGRALS:   19556376.     BUFFER LENGTH:  32768
 NUMBER OF SEGMENTS:   2  SEGMENT LENGTH:   15999081      RECORD LENGTH: 524288

 Memory used in sort:      16.56 MW

 SORT1 READ    22591267. AND WROTE    19269645. INTEGRALS IN     56 RECORDS. CPU TIME:     0.29 SEC, REAL TIME:     0.42 SEC
 SORT2 READ    19269645. AND WROTE    19556376. INTEGRALS IN    609 RECORDS. CPU TIME:     0.27 SEC, REAL TIME:     0.35 SEC

 FILE SIZES:   FILE 1:   144.4 MBYTE,  FILE 4:   234.9 MBYTE,   TOTAL:    379.3 MBYTE

 OPERATOR DM      FOR CENTER  0  COORDINATES:    0.000000    0.000000    0.000000


 **********************************************************************************************************************************
 DATASETS  * FILE   NREC   LENGTH (MB)   RECORD NAMES
              1      19      144.54       500      610      700      900      950      970     1000      129      960     1100   
                                          VAR    BASINP    GEOM    SYMINP    ZMAT    AOBASIS   BASIS     P2S    ABASIS      S 
                                         1400     1410     1200     1210     1080     1600     1650     1300     1700   
                                           T        V       H0       H01     AOSYM     SMH    MOLCAS    ERIS     OPER   

 PROGRAMS   *        TOTAL       INT
 CPU TIMES  *         3.26      3.20
 REAL TIME  *         3.71 SEC
 DISK USED  *       539.86 MB      
 GA USED    *         0.00 MB       (max)       0.00 MB       (current)
 **********************************************************************************************************************************

1PROGRAM * RHF-SCF (CLOSED SHELL)       Authors: W. Meyer, H.-J. Werner


 NUMBER OF ELECTRONS:      29+   29-
 CONVERGENCE THRESHOLDS:    1.00E-10 (Density)    1.00E-13 (Energy)
 MAX. NUMBER OF ITERATIONS:      200
 INTERPOLATION TYPE:            DIIS
 INTERPOLATION STEPS:              2 (START)      1 (STEP)
 LEVEL SHIFTS:                  0.00 (CLOSED)  0.00 (OPEN) 



 Orbital guess generated from atomic densities. Full valence occupancy:   24  20

 Molecular orbital dump at record        2100.2

 Initial alpha occupancy:  16  13
 Initial beta  occupancy:  16  13
 Wave function symmetry:    1

 ITERATION    DDIFF          GRAD             ENERGY        2-EL.EN.            DIPOLE MOMENTS         DIIS
    1      0.000D+00      0.000D+00      -428.34386493    993.061933    0.00000    0.00000    0.47679    0
    2      0.000D+00      0.853D-02      -428.41800399    992.597260    0.00000    0.00000    0.92641    1
    3      0.176D-01      0.387D-02      -428.43189168    992.931000    0.00000    0.00000    0.62225    2
    4      0.559D-02      0.103D-02      -428.43344952    992.988035    0.00000    0.00000    0.73582    3
    5      0.210D-02      0.311D-03      -428.43358483    992.952731    0.00000    0.00000    0.70260    4
    6      0.527D-03      0.649D-04      -428.43359256    992.961957    0.00000    0.00000    0.70693    5
    7      0.139D-03      0.196D-04      -428.43359362    992.965303    0.00000    0.00000    0.70530    6
    8      0.471D-04      0.699D-05      -428.43359375    992.964637    0.00000    0.00000    0.70572    7
    9      0.158D-04      0.318D-05      -428.43359378    992.965030    0.00000    0.00000    0.70544    8
   10      0.848D-05      0.122D-05      -428.43359379    992.965592    0.00000    0.00000    0.70551    8
   11      0.384D-05      0.686D-06      -428.43359379    992.965504    0.00000    0.00000    0.70548    8
   12      0.235D-05      0.272D-06      -428.43359379    992.965600    0.00000    0.00000    0.70549    8
   13      0.134D-05      0.457D-07      -428.43359379    992.965627    0.00000    0.00000    0.70549    8
   14      0.150D-06      0.174D-07      -428.43359379    992.965622    0.00000    0.00000    0.70549    9
   15      0.589D-07      0.408D-08      -428.43359379    992.965622    0.00000    0.00000    0.70549    9
   16      0.123D-07      0.157D-08      -428.43359379    992.965622    0.00000    0.00000    0.70549    9
   17      0.488D-08      0.590D-09      -428.43359379    992.965622    0.00000    0.00000    0.70549    8
   18      0.175D-08      0.121D-09      -428.43359379    992.965622    0.00000    0.00000    0.70549    7
   19      0.316D-09      0.412D-10      -428.43359379    992.965622    0.00000    0.00000    0.70549    7
   20      0.111D-09      0.148D-10      -428.43359379    992.965622    0.00000    0.00000    0.70549    8
   21      0.282D-10      0.336D-11      -428.43359379    992.965622    0.00000    0.00000    0.70549    8
   22      0.738D-11      0.126D-11      -428.43359379    992.965622    0.00000    0.00000    0.70549    8
   23      0.364D-11      0.536D-12      -428.43359379    992.965622    0.00000    0.00000    0.70549    8
   24      0.210D-11      0.153D-12      -428.43359379    992.965622    0.00000    0.00000    0.70549    7
   25      0.139D-11      0.104D-12      -428.43359379    992.965622    0.00000    0.00000    0.70549    8
   26      0.902D-12      0.599D-13      -428.43359379    992.965622    0.00000    0.00000    0.70549    9
   27      0.541D-12      0.471D-13      -428.43359379    992.965622    0.00000    0.00000    0.70549    9
   28      0.333D-12      0.449D-13      -428.43359379    992.965622    0.00000    0.00000    0.70549    9
   29      0.243D-12      0.404D-13      -428.43359379    992.965622    0.00000    0.00000    0.70549    0

 Final occupancy:  16  13

 !RHF STATE 1.1 Energy               -428.433593789345
 Nuclear energy                       342.36260723
 One-electron energy                -1267.27901201
 Two-electron energy                  496.48281100
 Virial quotient                       -1.00060091
 !RHF STATE 1.1 Dipole moment           0.00000000     0.00000000     0.70548765
 Dipole moment /Debye                   0.00000000     0.00000000     1.79305331

 Orbital energies:

         1.1          2.1          3.1          4.1          5.1          6.1          7.1          8.1          9.1         10.1
    -26.320877   -11.349615   -11.272716   -11.258869   -11.255796    -1.639494    -1.178972    -1.046874    -0.874892    -0.774646

        11.1         12.1         13.1         14.1         15.1         16.1         17.1         18.1
     -0.702832    -0.695857    -0.668316    -0.623044    -0.533146    -0.348404     0.131848     0.179747

         1.2          2.2          3.2          4.2          5.2          6.2          7.2          8.2          9.2         10.2
    -26.320878   -11.349610   -11.255849    -1.638895    -1.036879    -0.865138    -0.740993    -0.703877    -0.685289    -0.586003

        11.2         12.2         13.2         14.2         15.2
     -0.554845    -0.513766    -0.360322     0.113832     0.226592


 **********************************************************************************************************************************
 DATASETS  * FILE   NREC   LENGTH (MB)   RECORD NAMES
              1      19      144.54       500      610      700      900      950      970     1000      129      960     1100   
                                          VAR    BASINP    GEOM    SYMINP    ZMAT    AOBASIS   BASIS     P2S    ABASIS      S 
                                         1400     1410     1200     1210     1080     1600     1650     1300     1700   
                                           T        V       H0       H01     AOSYM     SMH    MOLCAS    ERIS     OPER   

              2       3        0.64       700     1000     2100   
                                         GEOM     BASIS     RHF  

 PROGRAMS   *        TOTAL       RHF       INT
 CPU TIMES  *         6.56      3.30      3.20
 REAL TIME  *         7.54 SEC
 DISK USED  *       539.86 MB      
 GA USED    *         0.00 MB       (max)       0.00 MB       (current)
 **********************************************************************************************************************************


1PROGRAM * CCSD (Closed-shell coupled cluster)     Authors: C. Hampel, H.-J. Werner, 1991, M. Deegan, P.J. Knowles, 1992


 Convergence thresholds:  THRVAR = 1.00D-08  THRDEN = 1.00D-12

 CCSD(T)     terms to be evaluated (factor= 1.000)


 Number of core orbitals:           8 (   5   3 )
 Number of closed-shell orbitals:  21 (  11  10 )
 Number of external orbitals:     103 (  53  50 )

 Molecular orbitals read from record     2100.2  Type=RHF/CANONICAL (state 1.1)

 Number of N-1 electron functions:              21
 Number of N-2 electron functions:             231
 Number of singly external CSFs:              1083
 Number of doubly external CSFs:           1170726
 Total number of CSFs:                     1171810

 Length of J-op  integral file:               0.00 MB
 Length of K-op  integral file:               0.63 MB
 Length of 3-ext integral record:             0.00 MB

 Memory could be reduced to 16.10 Mwords without degradation in triples

 Integral transformation finished. Total CPU:   1.16 sec, npass=  1  Memory used:  11.72 MW

 Reference energy:                   -428.43359379

 MP2 singlet pair energy:              -0.67264109
 MP2 triplet pair energy:              -0.46572809
 MP2 correlation energy:               -1.13836918
 MP2 total energy:                   -429.57196297

 SCS-MP2 correlation energy:           -1.09695568   (PS=  1.200000  PT=  0.333333)
 SCS-MP2 total energy:               -429.53054947

 ITER.      SQ.NORM     CORR.ENERGY   TOTAL ENERGY   ENERGY CHANGE        DEN1      VAR(S)    VAR(P)  DIIS     TIME
   1      1.36210580    -1.16811565  -429.60170944    -0.02974647     0.00048965  0.67D-02  0.73D-02  1  1     4.29
   2      1.38857177    -1.17164744  -429.60524123    -0.00353179    -0.02699818  0.13D-03  0.11D-02  2  2     7.48
   3      1.39936722    -1.17224895  -429.60584274    -0.00060151    -0.00538119  0.86D-04  0.10D-03  3  3    10.68
   4      1.40339788    -1.17217448  -429.60576827     0.00007446    -0.00142371  0.48D-05  0.20D-04  4  4    13.88
   5      1.40523878    -1.17220500  -429.60579879    -0.00003052    -0.00045100  0.91D-06  0.22D-05  5  5    17.09
   6      1.40571481    -1.17221074  -429.60580453    -0.00000574    -0.00006804  0.12D-06  0.24D-06  6  6    20.30
   7      1.40580189    -1.17220572  -429.60579951     0.00000503     0.00000028  0.28D-07  0.22D-07  6  1    23.52
   8      1.40582684    -1.17220684  -429.60580063    -0.00000112    -0.00000755  0.61D-08  0.30D-08  6  2    26.73
   9      1.40582815    -1.17220750  -429.60580129    -0.00000066     0.00000229  0.17D-08  0.34D-09  6  3    29.93
  10      1.40583051    -1.17220727  -429.60580106     0.00000023    -0.00000121  0.38D-09  0.76D-10  6  4    33.14
  11      1.40583057    -1.17220750  -429.60580129    -0.00000024     0.00000032  0.45D-10  0.20D-10  6  5    36.35
  12      1.40583076    -1.17220748  -429.60580127     0.00000002    -0.00000007  0.11D-10  0.24D-11  6  6    39.55
  13      1.40583076    -1.17220750  -429.60580129    -0.00000002     0.00000005  0.57D-12  0.56D-12  6  1    42.76
  14      1.40583075    -1.17220751  -429.60580130    -0.00000001     0.00000002  0.15D-12  0.87D-13  6  2    45.97
  15      1.40583075    -1.17220751  -429.60580130     0.00000000     0.00000000  0.40D-13  0.14D-13  6  3    49.18
  16      1.40583075    -1.17220751  -429.60580130    -0.00000000     0.00000000  0.63D-14  0.42D-14  6  4    52.39
  17      1.40583075    -1.17220751  -429.60580130    -0.00000000    -0.00000000  0.16D-14  0.72D-15  6  5    55.60
  18      1.40583075    -1.17220751  -429.60580130    -0.00000000    -0.00000000  0.21D-15  0.11D-15  6  6    58.82
  19      1.40583076    -1.17220751  -429.60580130    -0.00000000    -0.00000000  0.31D-16  0.23D-16  6  1    62.02
  20      1.40583076    -1.17220751  -429.60580130     0.00000000    -0.00000000  0.13D-16  0.29D-17  6  2    65.23
  21      1.40583076    -1.17220751  -429.60580130    -0.00000000    -0.00000000  0.14D-17  0.67D-18  6  3    68.44
  22      1.40583076    -1.17220751  -429.60580130    -0.00000000    -0.00000000  0.44D-18  0.14D-18  6  4    71.65
  23      1.40583076    -1.17220751  -429.60580130     0.00000000    -0.00000000  0.88D-19  0.23D-19  6  5    74.85
  24      1.40583076    -1.17220751  -429.60580130    -0.00000000    -0.00000000  0.75D-20  0.50D-20  6  6    78.06
  25      1.40583076    -1.17220751  -429.60580130    -0.00000000     0.00000000  0.18D-20  0.11D-20  6  1    81.27

 Norm of t1 vector:      0.10829648      S-energy:     0.00000000      T1 diagnostic:  0.01181611
                                                                       D1 diagnostic:  0.03167049

 Doubles amplitudes (print threshold =  0.500E-01):

         I         J         SYM. A    SYM. B    A         B      T(IJ, AB)

        11        11         1         1         1         1     -0.08403215
        21        21         2         2         1         1     -0.08680640
        21        11         1         2         1         1     -0.05130855


 Total CPU time for triples:     58.16 sec


 RESULTS
 =======

  Reference energy                   -428.433593789344
  CCSD singlet pair energy             -0.756722134051
  CCSD triplet pair energy             -0.415485378764
  CCSD correlation energy              -1.172207512815

  Triples (T) contribution             -0.043065690097
  Total correlation energy             -1.215273202912

  CCSD total energy                  -429.605801302159
  CCSD[T] energy                     -429.650867274784
  CCSD-T energy                      -429.648142472869
 !CCSD(T) total energy               -429.648866992256

 Timing summary (sec):

 STEP                 CPU(USER)    SYS     CPU(TOT)    WALL
 Transformation          1.21      0.14      1.35      1.35
 CCSD iterations        80.06      1.95     82.01     82.07
 Triples                58.16      1.62     59.78     59.79

 Program statistics:

 Available memory in ccsd:               999998136
 Min. memory needed in ccsd:               3056734
 Max. memory used in ccsd:                 4112116
 Max. memory used in cckext:               4420430 (25 integral passes)



 **********************************************************************************************************************************
 DATASETS  * FILE   NREC   LENGTH (MB)   RECORD NAMES
              1      20      215.70       500      610      700      900      950      970     1000      129      960     1100   
                                          VAR    BASINP    GEOM    SYMINP    ZMAT    AOBASIS   BASIS     P2S    ABASIS      S 
                                         1400     1410     1200     1210     1080     1600     1650     1300     1700     1380   
                                           T        V       H0       H01     AOSYM     SMH    MOLCAS    ERIS     OPER     JKOP   

              2       3        0.64       700     1000     2100   
                                         GEOM     BASIS     RHF  

 PROGRAMS   *        TOTAL   CCSD(T)       RHF       INT
 CPU TIMES  *       146.00    139.44      3.30      3.20
 REAL TIME  *       150.80 SEC
 DISK USED  *       577.97 MB      
 GA USED    *         0.00 MB       (max)       0.00 MB       (current)
 **********************************************************************************************************************************

        CCSD(T)         RHF-SCF 
   -429.64886699   -428.43359379
 **********************************************************************************************************************************
 Variable memory released
