
 Primary working directories    : /tmp/984874.82.gen6.q
 Secondary working directories  : /tmp/984874.82.gen6.q
 Wavefunction directory         : /home/vulcan/mel64643/wfu/
 Main file repository           : /tmp/984874.82.gen6.q/

 ARCHNAME  : Linux/x86_64
 FC        : /opt/intel/compilers_and_libraries_2016.1.150/linux/bin/intel64/ifort
 FCVERSION : 16.0.1
 BLASLIB   : -mkl
 id        : ccgc

 Nodes     nprocs
 n090         1
 ga_uses_ma=false, calling ma_init with nominal heap.
 GA-space will be limited to   8.0 MW (determined by -G option)

 Using customized tuning parameters: mindgm=10; mindgv=16; mindgc=4; mindgr=1; noblas=0; mincuda=1000; minvec=7
 default implementation of scratch files=df  

 ***,Optimization of formic acid
 memory,1000,m
 gthresh,energy=1.0d-12,orbital=1.0d-10,oneint=1.0d-16,twoint=1.0d-16,optgrad=1.0d-6,compress=1.0d-13
 geomtyp=xyz
 
 
 
 bohr
 geometry = {
  C   -3.5026084136   -0.8305681463    0.0034354107
  O   -3.0939386099    1.6224771272   -0.0034184805
  O   -1.8890130627   -2.4825840589    0.0125894338
  H   -5.5222765951   -1.2712088477   -0.0000096764
  H   -1.2345057731    1.9532292079   -0.0125925682
  C    3.4985902093    0.8309570006    0.0034294640
  O    3.0947333960   -1.6228851895   -0.0034463910
  O    1.8817571107    2.4798042871    0.0125774976
  H    5.5173901396    1.2755588526    0.0000097353
  H    1.2498715988   -1.9547802329   -0.0125744254
 }
 
 basis=VTZ
 {rhf;maxit,200}
 {ccsd(t);maxit,200}

 Variables initialized (661), CPU time= 0.01 sec
 Commands  initialized (458), CPU time= 0.00 sec, 486 directives.
 Default parameters read. Elapsed time= 0.04 sec

 Checking input...
 Passed
1


                                         ***  PROGRAM SYSTEM MOLPRO  ***
                         Copyright, University College Cardiff Consultants Limited, 2008

                                    Version 2010.1 linked May 16 2016 07:17:05


 **********************************************************************************************************************************
 LABEL *   Optimization of formic acid                                                   
 Linux-4.4.3/n090(x86_64) 64 bit mpp version                                             DATE: 24-Jan-24          TIME: 09:56:45  
 **********************************************************************************************************************************

 SHA1:             9e8077add272b0f3cad6f7df79ec5211205f459d
 **********************************************************************************************************************************

 THRESHOLDS:

 ZERO    =  1.00D-12  ONEINT  =  1.00D-16  TWOINT  =  1.00D-16  PREFAC  =  1.00D-14  LOCALI  =  1.00D-09  EORDER  =  1.00D-04
 ENERGY  =  1.00D-12  ETEST   =  0.00D+00  EDENS   =  0.00D+00  THRDEDEF=  1.00D-06  GRADIENT=  1.00D-02  STEP    =  1.00D-03
 ORBITAL =  1.00D-10  CIVEC   =  1.00D-05  COEFF   =  1.00D-04  PRINTCI =  5.00D-02  PUNCHCI =  9.90D+01  OPTGRAD =  1.00D-06
 OPTENERG=  1.00D-06  OPTSTEP =  3.00D-04  THRGRAD =  1.00D-10  COMPRESS=  1.00D-13  VARMIN  =  1.00D-07  VARMAX  =  1.00D-03
 THRDOUB =  0.00D+00  THRDIV  =  1.00D-05  THRRED  =  1.00D-07  THRPSP  =  1.00D+00  THRDC   =  1.00D-10  THRCS   =  1.00D-10
 THRNRM  =  1.00D-08  THREQ   =  0.00D+00  THRDE   =  1.00D+00  THRREF  =  1.00D-05  SPARFAC =  1.00D+00  THRDLP  =  1.00D-07
 THRDIA  =  1.00D-10  THRDLS  =  1.00D-07  THRGPS  =  0.00D+00  THRKEX  =  0.00D+00  THRDIS  =  2.00D-01  THRVAR  =  1.00D-10
 THRLOC  =  1.00D-06  THRGAP  =  1.00D-06  THRLOCT = -1.00D+00  THRGAPT = -1.00D+00  THRORB  =  1.00D-06  THRMLTP =  0.00D+00
 THRCPQCI=  1.00D-10  KEXTA   =  0.00D+00  THRCOARS=  0.00D+00  SYMTOL  =  1.00D-06  GRADTOL =  1.00D-06  THROVL  =  1.00D-08
 THRORTH =  1.00D-08  GRID    =  1.00D-06  GRIDMAX =  1.00D-03  DTMAX   =  0.00D+00

 SETTING GEOMTYP        =    XYZ
 ZUNIT=BOHR
 

 Variable memory set to 1000000000 words,  buffer space   230000 words

 SETTING BASIS          =    VTZ


 Recomputing integrals since basis changed


 Using spherical harmonics

 Library entry C      S cc-pVTZ              selected for orbital group  1
 Library entry C      P cc-pVTZ              selected for orbital group  1
 Library entry C      D cc-pVTZ              selected for orbital group  1
 Library entry C      F cc-pVTZ              selected for orbital group  1
 Library entry O      S cc-pVTZ              selected for orbital group  2
 Library entry O      P cc-pVTZ              selected for orbital group  2
 Library entry O      D cc-pVTZ              selected for orbital group  2
 Library entry O      F cc-pVTZ              selected for orbital group  2
 Library entry H      S cc-pVTZ              selected for orbital group  3
 Library entry H      P cc-pVTZ              selected for orbital group  3
 Library entry H      D cc-pVTZ              selected for orbital group  3

1PROGRAM * SEWARD (Integral evaluation for generally contracted gaussian basis sets)     Author: Roland Lindh, 1990

 Geometry written to block  1 of record 700


 Point group  C1  



 ATOMIC COORDINATES

 NR  ATOM    CHARGE       X              Y              Z

   1  C       6.00   -3.502608414   -0.830568146    0.003435411
   2  O       8.00   -3.093938610    1.622477127   -0.003418480
   3  O       8.00   -1.889013063   -2.482584059    0.012589434
   4  H       1.00   -5.522276595   -1.271208848   -0.000009676
   5  H       1.00   -1.234505773    1.953229208   -0.012592568
   6  C       6.00    3.498590209    0.830957001    0.003429464
   7  O       8.00    3.094733396   -1.622885190   -0.003446391
   8  O       8.00    1.881757111    2.479804287    0.012577498
   9  H       1.00    5.517390140    1.275558853    0.000009735
  10  H       1.00    1.249871599   -1.954780233   -0.012574425

 Bond lengths in Bohr (Angstrom)

 1-2  2.486863305  1-3  2.309313822  1-4  2.067180606  2-5  1.888642787  6-7  2.486863305
     ( 1.315991383)     ( 1.222036243)     ( 1.093904864)     ( 0.999426719)     ( 1.315991383)

  6- 8  2.309313822   6- 9  2.067180607   7-10  1.874500651
       ( 1.222036243)       ( 1.093904864)       ( 0.991943023)

 Bond angles

  1-2-5  109.54509198   2-1-3  126.21591755   2-1-4  111.76566430   3-1-4  122.01841814

  6- 7-10  109.54509195   7- 6- 8  126.21591759   7- 6- 9  111.76566429   8- 6- 9  122.01841813

 NUCLEAR CHARGE:                   48
 NUMBER OF PRIMITIVE AOS:         350
 NUMBER OF SYMMETRY AOS:          316
 NUMBER OF CONTRACTIONS:          236   ( 236A   )
 NUMBER OF CORE ORBITALS:           6   (   6A   )
 NUMBER OF VALENCE ORBITALS:       28   (  28A   )


 NUCLEAR REPULSION ENERGY  235.53083963


 Eigenvalues of metric

         1 0.132E-02 0.141E-02 0.159E-02 0.159E-02 0.224E-02 0.268E-02 0.353E-02 0.361E-02


 Contracted 2-electron integrals neglected if value below      1.0D-16
 AO integral compression algorithm  1   Integral accuracy      1.0D-16

     2193.359 MB (compressed) written to integral file ( 64.9%)

     Node minimum: 2193.359 MB, node maximum: 2193.359 MB


 NUMBER OF SORTED TWO-ELECTRON INTEGRALS:  391062561.     BUFFER LENGTH:  32768
 NUMBER OF SEGMENTS:  25  SEGMENT LENGTH:   15999762      RECORD LENGTH: 524288

 Memory used in sort:      16.56 MW

 SORT1 READ   422671752. AND WROTE   349218439. INTEGRALS IN   1010 RECORDS. CPU TIME:     4.02 SEC, REAL TIME:     6.01 SEC
 SORT2 READ   349218439. AND WROTE   391062561. INTEGRALS IN   8367 RECORDS. CPU TIME:     2.97 SEC, REAL TIME:     4.04 SEC

 FILE SIZES:   FILE 1:  2009.7 MBYTE,  FILE 4:  4236.3 MBYTE,   TOTAL:   6246.0 MBYTE

 OPERATOR DM      FOR CENTER  0  COORDINATES:    0.000000    0.000000    0.000000


 **********************************************************************************************************************************
 DATASETS  * FILE   NREC   LENGTH (MB)   RECORD NAMES
              1      19     2010.34       500      610      700      900      950      970     1000      129      960     1100   
                                          VAR    BASINP    GEOM    SYMINP    ZMAT    AOBASIS   BASIS     P2S    ABASIS      S 
                                         1400     1410     1200     1210     1080     1600     1650     1300     1700   
                                           T        V       H0       H01     AOSYM     SMH    MOLCAS    ERIS     OPER   

 PROGRAMS   *        TOTAL       INT
 CPU TIMES  *        20.02     19.98
 REAL TIME  *        24.72 SEC
 DISK USED  *         8.44 GB      
 GA USED    *         0.01 MB       (max)       0.00 MB       (current)
 **********************************************************************************************************************************

1PROGRAM * RHF-SCF (CLOSED SHELL)       Authors: W. Meyer, H.-J. Werner


 NUMBER OF ELECTRONS:      24+   24-    SPACE SYMMETRY=1    SPIN SYMMETRY: Singlet 
 CONVERGENCE THRESHOLDS:    1.00E-10 (Density)    1.00E-13 (Energy)
 MAX. NUMBER OF ITERATIONS:      200
 INTERPOLATION TYPE:            DIIS
 INTERPOLATION STEPS:              2 (START)      1 (STEP)
 LEVEL SHIFTS:                  0.00 (CLOSED)  0.00 (OPEN) 



 Orbital guess generated from atomic densities. Full valence occupancy:   34

 Molecular orbital dump at record        2100.2

 ITERATION    DDIFF          GRAD             ENERGY        2-EL.EN.            DIPOLE MOMENTS         DIIS
    1      0.000D+00      0.000D+00      -377.56178209    747.257953    0.02431    0.00740   -0.02107    0
    2      0.000D+00      0.503D-02      -377.64939539    744.192489    0.02275    0.00390   -0.00976    1
    3      0.811D-02      0.328D-02      -377.69894256    746.518006    0.02084    0.00512   -0.01373    2
    4      0.319D-02      0.437D-03      -377.70048190    746.203374    0.02055    0.00457   -0.01355    3
    5      0.602D-03      0.192D-03      -377.70075909    746.241488    0.02008    0.00467   -0.01357    4
    6      0.250D-03      0.555D-04      -377.70080688    746.285861    0.01997    0.00454   -0.01349    5
    7      0.959D-04      0.240D-04      -377.70081799    746.268339    0.01989    0.00455   -0.01349    6
    8      0.529D-04      0.777D-05      -377.70081930    746.274154    0.01988    0.00452   -0.01348    7
    9      0.203D-04      0.248D-05      -377.70081942    746.272668    0.01987    0.00454   -0.01348    8
   10      0.603D-05      0.749D-06      -377.70081943    746.272864    0.01988    0.00452   -0.01348    7
   11      0.202D-05      0.230D-06      -377.70081943    746.272821    0.01987    0.00454   -0.01348    8
   12      0.599D-06      0.803D-07      -377.70081943    746.272823    0.01988    0.00452   -0.01348    8
   13      0.131D-06      0.349D-07      -377.70081943    746.272814    0.01988    0.00453   -0.01348    8
   14      0.502D-07      0.895D-08      -377.70081943    746.272817    0.01988    0.00453   -0.01348    8
   15      0.200D-07      0.372D-08      -377.70081943    746.272818    0.01988    0.00453   -0.01348    8
   16      0.632D-08      0.121D-08      -377.70081943    746.272817    0.01988    0.00453   -0.01348    8
   17      0.188D-08      0.458D-09      -377.70081943    746.272817    0.01988    0.00453   -0.01348    8
   18      0.757D-09      0.136D-09      -377.70081943    746.272817    0.01988    0.00453   -0.01348    8
   19      0.268D-09      0.532D-10      -377.70081943    746.272817    0.01988    0.00453   -0.01348    8
   20      0.116D-09      0.239D-10      -377.70081943    746.272817    0.01988    0.00453   -0.01348    8
   21      0.435D-10      0.738D-11      -377.70081943    746.272817    0.01988    0.00453   -0.01348    8
   22      0.185D-10      0.314D-11      -377.70081943    746.272817    0.01988    0.00453   -0.01348    0

 Final occupancy:  24

 !RHF STATE 1.1 Energy               -377.700819432107
 Nuclear energy                       235.53083963
 One-electron energy                 -986.36806749
 Two-electron energy                  373.13640843
 Virial quotient                       -1.00167691
 !RHF STATE 1.1 Dipole moment           0.01987584     0.00452854    -0.01347920
 Dipole moment /Debye                   0.05051604     0.01150966    -0.03425846

 Orbital energies:

         1.1          2.1          3.1          4.1          5.1          6.1          7.1          8.1          9.1         10.1
    -20.614321   -20.613083   -20.574095   -20.572607   -11.406906   -11.405479    -1.482798    -1.469828    -1.384732    -1.370538

        11.1         12.1         13.1         14.1         15.1         16.1         17.1         18.1         19.1         20.1
     -0.917185    -0.881385    -0.766785    -0.731357    -0.722409    -0.692867    -0.643278    -0.632928    -0.619434    -0.578678

        21.1         22.1         23.1         24.1         25.1         26.1
     -0.504776    -0.495730    -0.493285    -0.473144     0.146958     0.154248


 **********************************************************************************************************************************
 DATASETS  * FILE   NREC   LENGTH (MB)   RECORD NAMES
              1      19     2010.34       500      610      700      900      950      970     1000      129      960     1100   
                                          VAR    BASINP    GEOM    SYMINP    ZMAT    AOBASIS   BASIS     P2S    ABASIS      S 
                                         1400     1410     1200     1210     1080     1600     1650     1300     1700   
                                           T        V       H0       H01     AOSYM     SMH    MOLCAS    ERIS     OPER   

              2       3        1.56       700     1000     2100   
                                         GEOM     BASIS     RHF  

 PROGRAMS   *        TOTAL       RHF       INT
 CPU TIMES  *        81.70     61.68     19.98
 REAL TIME  *        90.54 SEC
 DISK USED  *         8.44 GB      
 GA USED    *         0.01 MB       (max)       0.00 MB       (current)
 **********************************************************************************************************************************


1PROGRAM * CCSD (Closed-shell coupled cluster)     Authors: C. Hampel, H.-J. Werner, 1991, M. Deegan, P.J. Knowles, 1992


 Convergence thresholds:  THRVAR = 1.00D-08  THRDEN = 1.00D-12

 CCSD(T)     terms to be evaluated (factor= 1.000)


 Number of core orbitals:           6 (   6 )
 Number of closed-shell orbitals:  18 (  18 )
 Number of external orbitals:     212 ( 212 )

 Molecular orbitals read from record     2100.2  Type=RHF/CANONICAL (state 1.1)

 Number of N-1 electron functions:              18
 Number of N-2 electron functions:             171
 Number of singly external CSFs:              3816
 Number of doubly external CSFs:           7282836
 Total number of CSFs:                     7286653

 Length of J-op  integral file:               0.00 MB
 Length of K-op  integral file:               3.87 MB
 Length of 3-ext integral record:             0.00 MB

 Memory could be reduced to 213.59 Mwords without degradation in triples

 Integral transformation finished. Total CPU:  17.42 sec, npass=  1  Memory used: 142.16 MW

 Reference energy:                   -377.70081943

 MP2 singlet pair energy:              -0.77626541
 MP2 triplet pair energy:              -0.49231487
 MP2 correlation energy:               -1.26858028
 MP2 total energy:                   -378.96939971

 SCS-MP2 correlation energy:           -1.23784775   (PS=  1.200000  PT=  0.333333)
 SCS-MP2 total energy:               -378.93866718

 ITER.      SQ.NORM     CORR.ENERGY   TOTAL ENERGY   ENERGY CHANGE        DEN1      VAR(S)    VAR(P)  DIIS     TIME
   1      1.30949676    -1.27597074  -378.97679018    -0.00739046     0.02987138  0.10D-01  0.65D-02  1  1    62.61
   2      1.33259587    -1.27529098  -378.97611041     0.00067976    -0.02908695  0.23D-03  0.93D-03  2  2   108.15
   3      1.34379040    -1.27586842  -378.97668786    -0.00057744    -0.00515428  0.24D-03  0.46D-04  3  3   153.72
   4      1.34905844    -1.27561789  -378.97643733     0.00025053    -0.00196057  0.24D-04  0.88D-05  4  4   199.30
   5      1.35146326    -1.27556664  -378.97638607     0.00005125    -0.00054336  0.25D-05  0.83D-06  5  5   244.91
   6      1.35204728    -1.27551716  -378.97633659     0.00004948    -0.00005472  0.14D-06  0.80D-07  6  6   290.50
   7      1.35213887    -1.27551229  -378.97633172     0.00000487    -0.00000878  0.12D-07  0.12D-07  6  2   336.13
   8      1.35213480    -1.27551353  -378.97633296    -0.00000124     0.00000754  0.27D-08  0.13D-08  6  3   381.76
   9      1.35214408    -1.27551215  -378.97633158     0.00000137    -0.00000278  0.24D-09  0.13D-09  6  1   427.36
  10      1.35214344    -1.27551226  -378.97633170    -0.00000011     0.00000021  0.59D-10  0.25D-10  6  5   472.99
  11      1.35214363    -1.27551229  -378.97633172    -0.00000003     0.00000005  0.14D-10  0.45D-11  6  4   518.63
  12      1.35214336    -1.27551231  -378.97633174    -0.00000002     0.00000010  0.31D-11  0.77D-12  6  6   564.25
  13      1.35214316    -1.27551234  -378.97633178    -0.00000003     0.00000009  0.73D-12  0.17D-12  6  2   609.85
  14      1.35214308    -1.27551235  -378.97633178    -0.00000000     0.00000001  0.11D-12  0.46D-13  6  3   655.47
  15      1.35214304    -1.27551235  -378.97633178    -0.00000000     0.00000000  0.18D-13  0.57D-14  6  1   701.10
  16      1.35214303    -1.27551235  -378.97633178    -0.00000000     0.00000000  0.44D-14  0.13D-14  6  4   746.74
  17      1.35214303    -1.27551235  -378.97633178     0.00000000    -0.00000000  0.13D-14  0.32D-15  6  5   792.36
  18      1.35214303    -1.27551235  -378.97633178    -0.00000000     0.00000000  0.30D-15  0.82D-16  6  6   838.02
  19      1.35214303    -1.27551235  -378.97633178     0.00000000    -0.00000000  0.88D-16  0.26D-16  6  2   883.66
  20      1.35214303    -1.27551235  -378.97633178     0.00000000    -0.00000000  0.17D-16  0.51D-17  6  3   929.28
  21      1.35214303    -1.27551235  -378.97633178     0.00000000     0.00000000  0.28D-17  0.13D-17  6  1   974.89
  22      1.35214303    -1.27551235  -378.97633178     0.00000000    -0.00000000  0.76D-18  0.18D-18  6  4  1020.52
  23      1.35214303    -1.27551235  -378.97633178    -0.00000000     0.00000000  0.14D-18  0.40D-19  6  5  1066.11
  24      1.35214303    -1.27551235  -378.97633178    -0.00000000     0.00000000  0.33D-19  0.11D-19  6  6  1111.70
  25      1.35214303    -1.27551235  -378.97633178     0.00000000    -0.00000000  0.88D-20  0.25D-20  6  3  1157.34
  26      1.35214303    -1.27551235  -378.97633178     0.00000000     0.00000000  0.18D-20  0.69D-21  6  2  1202.95

 Norm of t1 vector:      0.14433723      S-energy:     0.00000000      T1 diagnostic:  0.01701031
                                                                       D1 diagnostic:  0.06089895

 Singles amplitudes (print threshold =  0.500E-01):

         I         SYM. A    A   T(IA)

        11         1         1      0.05360974
        12         1         2      0.05561595


 Total CPU time for triples:   1024.76 sec


 RESULTS
 =======

  Reference energy                   -377.700819432106
  CCSD singlet pair energy             -0.840633166554
  CCSD triplet pair energy             -0.434879181424
  CCSD correlation energy              -1.275512347974

  Triples (T) contribution             -0.054447975741
  Total correlation energy             -1.329960323715

  CCSD total energy                  -378.976331780080
  CCSD[T] energy                     -379.034193105613
  CCSD-T energy                      -379.029407322447
 !CCSD(T) total energy               -379.030779755821

 Timing summary (sec):

 STEP                 CPU(USER)    SYS     CPU(TOT)    WALL
 Transformation         17.87      1.04     18.91     18.92
 CCSD iterations      1185.10     16.36   1201.46   1201.69
 Triples              1024.76     14.53   1039.29   1039.40

 Program statistics:

 Available memory in ccsd:               999998604
 Min. memory needed in ccsd:              17799381
 Max. memory used in ccsd:                24518097
 Max. memory used in cckext:              19762593 (26 integral passes)



 **********************************************************************************************************************************
 DATASETS  * FILE   NREC   LENGTH (MB)   RECORD NAMES
              1      20     2815.28       500      610      700      900      950      970     1000      129      960     1100   
                                          VAR    BASINP    GEOM    SYMINP    ZMAT    AOBASIS   BASIS     P2S    ABASIS      S 
                                         1400     1410     1200     1210     1080     1600     1650     1300     1700     1380   
                                           T        V       H0       H01     AOSYM     SMH    MOLCAS    ERIS     OPER     JKOP   

              2       3        1.56       700     1000     2100   
                                         GEOM     BASIS     RHF  

 PROGRAMS   *        TOTAL   CCSD(T)       RHF       INT
 CPU TIMES  *      2309.43   2227.72     61.68     19.98
 REAL TIME  *      2350.67 SEC
 DISK USED  *         8.44 GB      
 GA USED    *         0.01 MB       (max)       0.00 MB       (current)
 **********************************************************************************************************************************

        CCSD(T)         RHF-SCF 
   -379.03077976   -377.70081943
 **********************************************************************************************************************************
 Variable memory released
