
 Primary working directories    : /tmp/916947.89.gen4.q
 Secondary working directories  : /tmp/916947.89.gen4.q
 Wavefunction directory         : /home/vulcan/lo21740/wfu/
 Main file repository           : /tmp/916947.89.gen4.q/

 ARCHNAME  : Linux/x86_64
 FC        : /opt/intel/compilers_and_libraries_2016.1.150/linux/bin/intel64/ifort
 FCVERSION : 16.0.1
 BLASLIB   : -mkl
 id        : ccgc

 Nodes     nprocs
 n061         1
 ga_uses_ma=false, calling ma_init with nominal heap.
 GA-space will be limited to   8.0 MW (determined by -G option)

 Using customized tuning parameters: mindgm=10; mindgv=16; mindgc=4; mindgr=1; noblas=0; mincuda=1000; minvec=7
 default implementation of scratch files=df  

 ***,Optimization of h2o_2
 memory,1000,m
 gthresh,energy=1.0d-12,orbital=1.0d-10,oneint=1.0d-16,twoint=1.0d-16,optgrad=1.0d-6,compress=1.0d-13
 geomtyp=xyz
 
 bohr
 geometry = {
  O   -2.8091194704   -0.2121572034    0.0000000000
  H   -3.5444815700    1.4478751269    0.0000000000
  H   -1.0077981585    0.1033178460    0.0000000000
  O    2.6715313462    0.1992759407    0.0000000000
  H    3.3274279304   -0.6991789781   -1.4388270505
  H    3.3274279304   -0.6991789781    1.4388270505
 }
 
 basis=aug-cc-pvdz, H=cc-pvdz
 {rhf;maxit,200}
 {mp2}

 Variables initialized (661), CPU time= 0.01 sec
 Commands  initialized (458), CPU time= 0.00 sec, 486 directives.
 Default parameters read. Elapsed time= 0.05 sec

 Checking input...
 Passed
1


                                         ***  PROGRAM SYSTEM MOLPRO  ***
                         Copyright, University College Cardiff Consultants Limited, 2008

                                    Version 2010.1 linked May 16 2016 07:17:05


 **********************************************************************************************************************************
 LABEL *   Optimization of h2o_2                                                         
 Linux-4.4.3/n061(x86_64) 64 bit mpp version                                             DATE: 19-Jul-23          TIME: 15:18:41  
 **********************************************************************************************************************************

 SHA1:             9e8077add272b0f3cad6f7df79ec5211205f459d
 **********************************************************************************************************************************

 THRESHOLDS:

 ZERO    =  1.00D-12  ONEINT  =  1.00D-16  TWOINT  =  1.00D-16  PREFAC  =  1.00D-14  LOCALI  =  1.00D-09  EORDER  =  1.00D-04
 ENERGY  =  1.00D-12  ETEST   =  0.00D+00  EDENS   =  0.00D+00  THRDEDEF=  1.00D-06  GRADIENT=  1.00D-02  STEP    =  1.00D-03
 ORBITAL =  1.00D-10  CIVEC   =  1.00D-05  COEFF   =  1.00D-04  PRINTCI =  5.00D-02  PUNCHCI =  9.90D+01  OPTGRAD =  1.00D-06
 OPTENERG=  1.00D-06  OPTSTEP =  3.00D-04  THRGRAD =  1.00D-10  COMPRESS=  1.00D-13  VARMIN  =  1.00D-07  VARMAX  =  1.00D-03
 THRDOUB =  0.00D+00  THRDIV  =  1.00D-05  THRRED  =  1.00D-07  THRPSP  =  1.00D+00  THRDC   =  1.00D-10  THRCS   =  1.00D-10
 THRNRM  =  1.00D-08  THREQ   =  0.00D+00  THRDE   =  1.00D+00  THRREF  =  1.00D-05  SPARFAC =  1.00D+00  THRDLP  =  1.00D-07
 THRDIA  =  1.00D-10  THRDLS  =  1.00D-07  THRGPS  =  0.00D+00  THRKEX  =  0.00D+00  THRDIS  =  2.00D-01  THRVAR  =  1.00D-10
 THRLOC  =  1.00D-06  THRGAP  =  1.00D-06  THRLOCT = -1.00D+00  THRGAPT = -1.00D+00  THRORB  =  1.00D-06  THRMLTP =  0.00D+00
 THRCPQCI=  1.00D-10  KEXTA   =  0.00D+00  THRCOARS=  0.00D+00  SYMTOL  =  1.00D-06  GRADTOL =  1.00D-06  THROVL  =  1.00D-08
 THRORTH =  1.00D-08  GRID    =  1.00D-06  GRIDMAX =  1.00D-03  DTMAX   =  0.00D+00

 SETTING GEOMTYP        =    XYZ
 ZUNIT=BOHR
 

 Variable memory set to 1000000000 words,  buffer space   230000 words

 SETTING BASIS          =    AUG-CC-PVDZ,H=CC-PVDZ


 Recomputing integrals since basis changed


 Using spherical harmonics

 Library entry O      S aug-cc-pVDZ          selected for orbital group  1
 Library entry O      P aug-cc-pVDZ          selected for orbital group  1
 Library entry O      D aug-cc-pVDZ          selected for orbital group  1
 Library entry H      S cc-pVDZ              selected for orbital group  2
 Library entry H      P cc-pVDZ              selected for orbital group  2

1PROGRAM * SEWARD (Integral evaluation for generally contracted gaussian basis sets)     Author: Roland Lindh, 1990

 Geometry written to block  1 of record 700


 Point group  Cs  



 ATOMIC COORDINATES

 NR  ATOM    CHARGE       X              Y              Z

   1  O       8.00   -2.809119470   -0.212157203    0.000000000
   2  H       1.00   -3.544481570    1.447875127    0.000000000
   3  H       1.00   -1.007798158    0.103317846    0.000000000
   4  O       8.00    2.671531346    0.199275941    0.000000000
   5  H       1.00    3.327427930   -0.699178978   -1.438827051
   6  H       1.00    3.327427930   -0.699178978    1.438827051

 Bond lengths in Bohr (Angstrom)

 1-2  1.815616908  1-3  1.828738083  4-5  1.818693171  4-6  1.818693171
     ( 0.960783088)     ( 0.967726515)     ( 0.962410976)     ( 0.962410976)

 Bond angles

  2-1-3  103.95864267   5-4-6  104.58292018

 NUCLEAR CHARGE:                   20
 NUMBER OF PRIMITIVE AOS:         102
 NUMBER OF SYMMETRY AOS:           98
 NUMBER OF CONTRACTIONS:           66   (  45A'  +  21A"  )
 NUMBER OF CORE ORBITALS:           2   (   2A'  +   0A"  )
 NUMBER OF VALENCE ORBITALS:       12   (   9A'  +   3A"  )


 NUCLEAR REPULSION ENERGY   36.58880222


 Eigenvalues of metric

         1 0.609E-02 0.778E-02 0.120E-01 0.129E-01 0.166E-01 0.209E-01 0.374E-01 0.488E-01
         2 0.165E-01 0.284E-01 0.133E+00 0.138E+00 0.246E+00 0.305E+00 0.323E+00 0.348E+00


 Contracted 2-electron integrals neglected if value below      1.0D-16
 AO integral compression algorithm  1   Integral accuracy      1.0D-16

     12.583 MB (compressed) written to integral file ( 94.5%)

     Node minimum: 12.583 MB, node maximum: 12.583 MB


 NUMBER OF SORTED TWO-ELECTRON INTEGRALS:    1280181.     BUFFER LENGTH:  32768
 NUMBER OF SEGMENTS:   1  SEGMENT LENGTH:    1280181      RECORD LENGTH: 524288

 Memory used in sort:       1.84 MW

 SORT1 READ     1642187. AND WROTE     1247436. INTEGRALS IN      4 RECORDS. CPU TIME:     0.02 SEC, REAL TIME:     0.03 SEC
 SORT2 READ     1247436. AND WROTE     1280181. INTEGRALS IN     48 RECORDS. CPU TIME:     0.02 SEC, REAL TIME:     0.03 SEC

 FILE SIZES:   FILE 1:    12.4 MBYTE,  FILE 4:    16.8 MBYTE,   TOTAL:     29.2 MBYTE

 OPERATOR DM      FOR CENTER  0  COORDINATES:    0.000000    0.000000    0.000000


 **********************************************************************************************************************************
 DATASETS  * FILE   NREC   LENGTH (MB)   RECORD NAMES
              1      19       12.43       500      610      700      900      950      970     1000      129      960     1100   
                                          VAR    BASINP    GEOM    SYMINP    ZMAT    AOBASIS   BASIS     P2S    ABASIS      S 
                                         1400     1410     1200     1210     1080     1600     1650     1300     1700   
                                           T        V       H0       H01     AOSYM     SMH    MOLCAS    ERIS     OPER   

 PROGRAMS   *        TOTAL       INT
 CPU TIMES  *         0.29      0.24
 REAL TIME  *         0.49 SEC
 DISK USED  *        42.43 MB      
 GA USED    *         0.00 MB       (max)       0.00 MB       (current)
 **********************************************************************************************************************************

1PROGRAM * RHF-SCF (CLOSED SHELL)       Authors: W. Meyer, H.-J. Werner


 NUMBER OF ELECTRONS:      10+   10-
 CONVERGENCE THRESHOLDS:    1.00E-10 (Density)    1.00E-13 (Energy)
 MAX. NUMBER OF ITERATIONS:      200
 INTERPOLATION TYPE:            DIIS
 INTERPOLATION STEPS:              2 (START)      1 (STEP)
 LEVEL SHIFTS:                  0.00 (CLOSED)  0.00 (OPEN) 



 Orbital guess generated from atomic densities. Full valence occupancy:   11   3

 Molecular orbital dump at record        2100.2

 Initial alpha occupancy:   8   2
 Initial beta  occupancy:   8   2
 Wave function symmetry:    1

 ITERATION    DDIFF          GRAD             ENERGY        2-EL.EN.            DIPOLE MOMENTS         DIIS
    1      0.000D+00      0.000D+00      -152.02048583    191.349377    1.38187    0.09884    0.00000    0
    2      0.000D+00      0.157D-01      -152.07003577    184.883483    1.03295    0.03402    0.00000    1
    3      0.298D-01      0.881D-02      -152.08686691    187.661146    1.09275    0.06071    0.00000    2
    4      0.101D-01      0.989D-03      -152.08725853    187.439454    1.07890    0.05842    0.00000    3
    5      0.167D-02      0.237D-03      -152.08728824    187.460398    1.07491    0.05951    0.00000    4
    6      0.474D-03      0.500D-04      -152.08728974    187.463131    1.07411    0.05888    0.00000    5
    7      0.115D-03      0.227D-04      -152.08728992    187.462198    1.07388    0.05922    0.00000    6
    8      0.325D-04      0.474D-05      -152.08728994    187.462164    1.07376    0.05918    0.00000    7
    9      0.126D-04      0.687D-06      -152.08728994    187.462170    1.07374    0.05918    0.00000    6
   10      0.163D-05      0.131D-06      -152.08728994    187.462168    1.07374    0.05918    0.00000    6
   11      0.312D-06      0.338D-07      -152.08728994    187.462171    1.07374    0.05918    0.00000    6
   12      0.717D-07      0.975D-08      -152.08728994    187.462170    1.07374    0.05918    0.00000    6
   13      0.248D-07      0.294D-08      -152.08728994    187.462170    1.07374    0.05918    0.00000    6
   14      0.561D-08      0.102D-08      -152.08728994    187.462170    1.07374    0.05918    0.00000    7
   15      0.190D-08      0.282D-09      -152.08728994    187.462170    1.07374    0.05918    0.00000    7
   16      0.522D-09      0.148D-09      -152.08728994    187.462170    1.07374    0.05918    0.00000    8
   17      0.250D-09      0.207D-10      -152.08728994    187.462170    1.07374    0.05918    0.00000    8
   18      0.436D-10      0.818D-11      -152.08728994    187.462170    1.07374    0.05918    0.00000    7
   19      0.238D-10      0.127D-11      -152.08728994    187.462170    1.07374    0.05918    0.00000    7
   20      0.330D-11      0.215D-12      -152.08728994    187.462170    1.07374    0.05918    0.00000    7
   21      0.442D-12      0.641D-13      -152.08728994    187.462170    1.07374    0.05918    0.00000    7
   22      0.165D-12      0.297D-13      -152.08728994    187.462170    1.07374    0.05918    0.00000    0

 Final occupancy:   8   2

 !RHF STATE 1.1 Energy               -152.087289943289
 Nuclear energy                        36.58880222
 One-electron energy                 -282.40717730
 Two-electron energy                   93.73108513
 Virial quotient                       -1.00165918
 !RHF STATE 1.1 Dipole moment           1.07374288     0.05918241     0.00000000
 Dipole moment /Debye                   2.72900342     0.15041683     0.00000000

 Orbital energies:

         1.1          2.1          3.1          4.1          5.1          6.1          7.1          8.1          9.1         10.1
    -20.602847   -20.546032    -1.381412    -1.323644    -0.692890    -0.614373    -0.559761    -0.529934     0.112361     0.152872

         1.2          2.2          3.2          4.2
     -0.741804    -0.479806     0.165020     0.240506


 **********************************************************************************************************************************
 DATASETS  * FILE   NREC   LENGTH (MB)   RECORD NAMES
              1      19       12.43       500      610      700      900      950      970     1000      129      960     1100   
                                          VAR    BASINP    GEOM    SYMINP    ZMAT    AOBASIS   BASIS     P2S    ABASIS      S 
                                         1400     1410     1200     1210     1080     1600     1650     1300     1700   
                                           T        V       H0       H01     AOSYM     SMH    MOLCAS    ERIS     OPER   

              2       3        0.40       700     1000     2100   
                                         GEOM     BASIS     RHF  

 PROGRAMS   *        TOTAL       RHF       INT
 CPU TIMES  *         0.44      0.16      0.24
 REAL TIME  *         0.69 SEC
 DISK USED  *        42.43 MB      
 GA USED    *         0.00 MB       (max)       0.00 MB       (current)
 **********************************************************************************************************************************


1PROGRAM * MP2 (Closed-shell)     Authors: C. Hampel, H.-J. Werner, 1991, M. Deegan, P.J. Knowles, 1992


 Convergence thresholds:  THRVAR = 1.00D-08  THRDEN = 1.00D-12

 Number of core orbitals:           2 (   2   0 )
 Number of closed-shell orbitals:   8 (   6   2 )
 Number of external orbitals:      56 (  37  19 )

 Molecular orbitals read from record     2100.2  Type=RHF/CANONICAL (state 1.1)

 Number of N-1 electron functions:               8
 Number of N-2 electron functions:              36
 Number of singly external CSFs:               260
 Number of doubly external CSFs:             51696
 Total number of CSFs:                       51957

 Length of J-op  integral file:               0.00 MB
 Length of K-op  integral file:               0.20 MB

 Integral transformation finished. Total CPU:   0.02 sec, npass=  1  Memory used:   0.17 MW

 Memory needed for MP2:                      0.01 MW

 SCS-MP2 correlation energy:           -0.429186165699   (PS=  1.200000  PT=  0.333333)
 SCS-MP2 total energy:               -152.516476108989


  Reference energy                   -152.087289943290
  MP2 singlet pair energy              -0.270206688052
  MP2 triplet pair energy              -0.168650582202
  MP2 correlation energy               -0.438857270254

 !MP2 total energy                   -152.526147213544


 **********************************************************************************************************************************
 DATASETS  * FILE   NREC   LENGTH (MB)   RECORD NAMES
              1      20       13.47       500      610      700      900      950      970     1000      129      960     1100   
                                          VAR    BASINP    GEOM    SYMINP    ZMAT    AOBASIS   BASIS     P2S    ABASIS      S 
                                         1400     1410     1200     1210     1080     1600     1650     1300     1700     1380   
                                           T        V       H0       H01     AOSYM     SMH    MOLCAS    ERIS     OPER     JKOP   

              2       3        0.40       700     1000     2100   
                                         GEOM     BASIS     RHF  

 PROGRAMS   *        TOTAL       MP2       RHF       INT
 CPU TIMES  *         0.47      0.03      0.16      0.24
 REAL TIME  *         0.74 SEC
 DISK USED  *        42.43 MB      
 GA USED    *         0.00 MB       (max)       0.00 MB       (current)
 **********************************************************************************************************************************

        MP2             RHF-SCF 
   -152.52614721   -152.08728994
 **********************************************************************************************************************************
 Variable memory released
