
 Primary working directories    : /tmp/1011203.833.gen4.q
 Secondary working directories  : /tmp/1011203.833.gen4.q
 Wavefunction directory         : /home/vulcan/mel64643/wfu/
 Main file repository           : /tmp/1011203.833.gen4.q/

 ARCHNAME  : Linux/x86_64
 FC        : /opt/intel/compilers_and_libraries_2016.1.150/linux/bin/intel64/ifort
 FCVERSION : 16.0.1
 BLASLIB   : -mkl
 id        : ccgc

 Nodes     nprocs
 n022         1
 ga_uses_ma=false, calling ma_init with nominal heap.
 GA-space will be limited to   8.0 MW (determined by -G option)

 Using customized tuning parameters: mindgm=10; mindgv=16; mindgc=4; mindgr=1; noblas=0; mincuda=1000; minvec=7
 default implementation of scratch files=df  

 ***,Optimization of c2h4_2
 memory,1000,m
 gthresh,energy=1.0d-12,orbital=1.0d-10,oneint=1.0d-16,twoint=1.0d-16,optgrad=1.0d-6,compress=1.0d-13
 geomtyp=xyz
 
 
 
 bohr
 geometry = {
  C   -1.2635689033    0.0035959503   -3.4918822938
  C    1.2657466512    0.0035983371   -3.4910918824
  H   -2.3360018652   -0.0069386896   -1.7458943697
  H    2.3370881807   -0.0069342799   -1.7444340284
  H   -2.3292752604    0.0141445705   -5.2412030081
  H    2.3325461060    0.0141489695   -5.2397461883
  C   -0.0010921001    1.2610268405    3.4838298316
  C   -0.0010944868   -1.2682425300    3.4991049622
  H   -0.0092771260    2.3223497949    1.7310541810
  H   -0.0092815357   -2.3506585130    1.7592760907
  H    0.0071073693    2.3378217295    5.2263594807
  H    0.0071029702   -2.3239121799    5.2545133005
 }
 
 basis=aug-cc-pvdz, H=cc-pvdz
 {rhf;maxit,200}
 {mp2}

 Variables initialized (661), CPU time= 0.00 sec
 Commands  initialized (458), CPU time= 0.00 sec, 486 directives.
 Default parameters read. Elapsed time= 0.05 sec

 Checking input...
 Passed
1


                                         ***  PROGRAM SYSTEM MOLPRO  ***
                         Copyright, University College Cardiff Consultants Limited, 2008

                                    Version 2010.1 linked May 16 2016 07:17:05


 **********************************************************************************************************************************
 LABEL *   Optimization of c2h4_2                                                        
 Linux-4.4.3/n022(x86_64) 64 bit mpp version                                             DATE: 25-Feb-24          TIME: 14:51:07  
 **********************************************************************************************************************************

 SHA1:             9e8077add272b0f3cad6f7df79ec5211205f459d
 **********************************************************************************************************************************

 THRESHOLDS:

 ZERO    =  1.00D-12  ONEINT  =  1.00D-16  TWOINT  =  1.00D-16  PREFAC  =  1.00D-14  LOCALI  =  1.00D-09  EORDER  =  1.00D-04
 ENERGY  =  1.00D-12  ETEST   =  0.00D+00  EDENS   =  0.00D+00  THRDEDEF=  1.00D-06  GRADIENT=  1.00D-02  STEP    =  1.00D-03
 ORBITAL =  1.00D-10  CIVEC   =  1.00D-05  COEFF   =  1.00D-04  PRINTCI =  5.00D-02  PUNCHCI =  9.90D+01  OPTGRAD =  1.00D-06
 OPTENERG=  1.00D-06  OPTSTEP =  3.00D-04  THRGRAD =  1.00D-10  COMPRESS=  1.00D-13  VARMIN  =  1.00D-07  VARMAX  =  1.00D-03
 THRDOUB =  0.00D+00  THRDIV  =  1.00D-05  THRRED  =  1.00D-07  THRPSP  =  1.00D+00  THRDC   =  1.00D-10  THRCS   =  1.00D-10
 THRNRM  =  1.00D-08  THREQ   =  0.00D+00  THRDE   =  1.00D+00  THRREF  =  1.00D-05  SPARFAC =  1.00D+00  THRDLP  =  1.00D-07
 THRDIA  =  1.00D-10  THRDLS  =  1.00D-07  THRGPS  =  0.00D+00  THRKEX  =  0.00D+00  THRDIS  =  2.00D-01  THRVAR  =  1.00D-10
 THRLOC  =  1.00D-06  THRGAP  =  1.00D-06  THRLOCT = -1.00D+00  THRGAPT = -1.00D+00  THRORB  =  1.00D-06  THRMLTP =  0.00D+00
 THRCPQCI=  1.00D-10  KEXTA   =  0.00D+00  THRCOARS=  0.00D+00  SYMTOL  =  1.00D-06  GRADTOL =  1.00D-06  THROVL  =  1.00D-08
 THRORTH =  1.00D-08  GRID    =  1.00D-06  GRIDMAX =  1.00D-03  DTMAX   =  0.00D+00

 SETTING GEOMTYP        =    XYZ
 ZUNIT=BOHR
 

 Variable memory set to 1000000000 words,  buffer space   230000 words

 SETTING BASIS          =    AUG-CC-PVDZ,H=CC-PVDZ


 Recomputing integrals since basis changed


 Using spherical harmonics

 Library entry C      S aug-cc-pVDZ          selected for orbital group  1
 Library entry C      P aug-cc-pVDZ          selected for orbital group  1
 Library entry C      D aug-cc-pVDZ          selected for orbital group  1
 Library entry H      S cc-pVDZ              selected for orbital group  2
 Library entry H      P cc-pVDZ              selected for orbital group  2

1PROGRAM * SEWARD (Integral evaluation for generally contracted gaussian basis sets)     Author: Roland Lindh, 1990

 Geometry written to block  1 of record 700


 Point group  C1  



 ATOMIC COORDINATES

 NR  ATOM    CHARGE       X              Y              Z

   1  C       6.00   -1.263568903    0.003595950   -3.491882294
   2  C       6.00    1.265746651    0.003598337   -3.491091882
   3  H       1.00   -2.336001865   -0.006938690   -1.745894370
   4  H       1.00    2.337088181   -0.006934280   -1.744434028
   5  H       1.00   -2.329275260    0.014144571   -5.241203008
   6  H       1.00    2.332546106    0.014148970   -5.239746188
   7  C       6.00   -0.001092100    1.261026841    3.483829832
   8  C       6.00   -0.001094487   -1.268242530    3.499104962
   9  H       1.00   -0.009277126    2.322349795    1.731054181
  10  H       1.00   -0.009281536   -2.350658513    1.759276091
  11  H       1.00    0.007107369    2.337821729    5.226359481
  12  H       1.00    0.007102970   -2.323912180    5.254513301

 Bond lengths in Bohr (Angstrom)

 1-2  2.529315678  1-3  2.049072294  1-5  2.048405300  2-4  2.049072294  2-6  2.048405300
     ( 1.338456211)     ( 1.084322358)     ( 1.083969400)     ( 1.084322358)     ( 1.083969400)

  7- 8  2.529315496   7- 9  2.049071958   7-11  2.048405244   8-10  2.049071958   8-12  2.048405244
       ( 1.338456115)       ( 1.084322180)       ( 1.083969370)       ( 1.084322180)       ( 1.083969370)

 Bond angles

  1-2-4  121.54100084   1-2-6  121.36769645   2-1-3  121.54100084   2-1-5  121.36769645

  3- 1- 5  117.09130271   4- 2- 6  117.09130271   7- 8-10  121.54106298   7- 8-12  121.36765667

  8- 7- 9  121.54106298   8- 7-11  121.36765666   9- 7-11  117.09128036  10- 8-12  117.09128036

 NUCLEAR CHARGE:                   32
 NUMBER OF PRIMITIVE AOS:         204
 NUMBER OF SYMMETRY AOS:          196
 NUMBER OF CONTRACTIONS:          132   ( 132A   )
 NUMBER OF CORE ORBITALS:           4   (   4A   )
 NUMBER OF VALENCE ORBITALS:       24   (  24A   )


 NUCLEAR REPULSION ENERGY  102.22434383


 Eigenvalues of metric

         1 0.173E-03 0.173E-03 0.332E-03 0.332E-03 0.553E-02 0.553E-02 0.588E-02 0.672E-02


 Contracted 2-electron integrals neglected if value below      1.0D-16
 AO integral compression algorithm  1   Integral accuracy      1.0D-16

     322.437 MB (compressed) written to integral file ( 91.9%)

     Node minimum: 322.437 MB, node maximum: 322.437 MB


 NUMBER OF SORTED TWO-ELECTRON INTEGRALS:   38531031.     BUFFER LENGTH:  32768
 NUMBER OF SEGMENTS:   3  SEGMENT LENGTH:   15998004      RECORD LENGTH: 524288

 Memory used in sort:      16.56 MW

 SORT1 READ    43892337. AND WROTE    38002301. INTEGRALS IN    110 RECORDS. CPU TIME:     0.46 SEC, REAL TIME:     0.69 SEC
 SORT2 READ    38002301. AND WROTE    38531031. INTEGRALS IN   1230 RECORDS. CPU TIME:     0.32 SEC, REAL TIME:     0.54 SEC

 FILE SIZES:   FILE 1:   287.5 MBYTE,  FILE 4:   461.4 MBYTE,   TOTAL:    748.9 MBYTE

 OPERATOR DM      FOR CENTER  0  COORDINATES:    0.000000    0.000000    0.000000


 **********************************************************************************************************************************
 DATASETS  * FILE   NREC   LENGTH (MB)   RECORD NAMES
              1      19      287.75       500      610      700      900      950      970     1000      129      960     1100   
                                          VAR    BASINP    GEOM    SYMINP    ZMAT    AOBASIS   BASIS     P2S    ABASIS      S 
                                         1400     1410     1200     1210     1080     1600     1650     1300     1700   
                                           T        V       H0       H01     AOSYM     SMH    MOLCAS    ERIS     OPER   

 PROGRAMS   *        TOTAL       INT
 CPU TIMES  *         3.14      3.09
 REAL TIME  *         3.95 SEC
 DISK USED  *         1.07 GB      
 GA USED    *         0.00 MB       (max)       0.00 MB       (current)
 **********************************************************************************************************************************

1PROGRAM * RHF-SCF (CLOSED SHELL)       Authors: W. Meyer, H.-J. Werner


 NUMBER OF ELECTRONS:      16+   16-    SPACE SYMMETRY=1    SPIN SYMMETRY: Singlet 
 CONVERGENCE THRESHOLDS:    1.00E-10 (Density)    1.00E-13 (Energy)
 MAX. NUMBER OF ITERATIONS:      200
 INTERPOLATION TYPE:            DIIS
 INTERPOLATION STEPS:              2 (START)      1 (STEP)
 LEVEL SHIFTS:                  0.00 (CLOSED)  0.00 (OPEN) 



 Orbital guess generated from atomic densities. Full valence occupancy:   28

 Molecular orbital dump at record        2100.2

 ITERATION    DDIFF          GRAD             ENERGY        2-EL.EN.            DIPOLE MOMENTS         DIIS
    1      0.000D+00      0.000D+00      -156.03861801    307.072276   -0.00001   -0.00014   -0.00001    0
    2      0.000D+00      0.347D-02      -156.07905387    304.340033    0.00042    0.00015   -0.00001    1
    3      0.713D-02      0.117D-02      -156.08311321    305.463973    0.00037    0.00032   -0.00001    2
    4      0.225D-02      0.354D-03      -156.08368336    305.177136    0.00047    0.00040   -0.00001    3
    5      0.796D-03      0.441D-04      -156.08369417    305.191702    0.00046    0.00041   -0.00001    4
    6      0.111D-03      0.712D-05      -156.08369458    305.190141    0.00049    0.00043   -0.00001    5
    7      0.188D-04      0.170D-05      -156.08369461    305.190124    0.00047    0.00042   -0.00001    6
    8      0.515D-05      0.265D-06      -156.08369461    305.190133    0.00049    0.00043   -0.00001    6
    9      0.812D-06      0.718D-07      -156.08369461    305.190135    0.00048    0.00043   -0.00001    6
   10      0.162D-06      0.255D-07      -156.08369461    305.190137    0.00048    0.00043   -0.00001    6
   11      0.494D-07      0.401D-08      -156.08369461    305.190137    0.00048    0.00043   -0.00001    6
   12      0.103D-07      0.859D-09      -156.08369461    305.190137    0.00048    0.00043   -0.00001    6
   13      0.278D-08      0.268D-09      -156.08369461    305.190137    0.00048    0.00043   -0.00001    6
   14      0.678D-09      0.108D-09      -156.08369461    305.190137    0.00048    0.00043   -0.00001    7
   15      0.262D-09      0.398D-10      -156.08369461    305.190137    0.00048    0.00043   -0.00001    7
   16      0.134D-09      0.125D-10      -156.08369461    305.190137    0.00048    0.00043   -0.00001    7
   17      0.471D-10      0.246D-11      -156.08369461    305.190137    0.00048    0.00043   -0.00001    7
   18      0.125D-10      0.803D-12      -156.08369461    305.190137    0.00048    0.00043   -0.00001    7
   19      0.411D-11      0.305D-12      -156.08369461    305.190137    0.00048    0.00043   -0.00001    0

 Final occupancy:  16

 !RHF STATE 1.1 Energy               -156.083694608397
 Nuclear energy                       102.22434383
 One-electron energy                 -410.90310706
 Two-electron energy                  152.59506862
 Virial quotient                       -1.00199380
 !RHF STATE 1.1 Dipole moment           0.00048477     0.00042763    -0.00001325
 Dipole moment /Debye                   0.00123209     0.00108686    -0.00003366

 Orbital energies:

         1.1          2.1          3.1          4.1          5.1          6.1          7.1          8.1          9.1         10.1
    -11.241781   -11.241778   -11.240162   -11.240160    -1.038658    -1.032832    -0.794781    -0.794780    -0.656811    -0.631286

        11.1         12.1         13.1         14.1         15.1         16.1         17.1         18.1
     -0.588277    -0.584972    -0.508768    -0.508766    -0.376336    -0.376335     0.069015     0.069015


 **********************************************************************************************************************************
 DATASETS  * FILE   NREC   LENGTH (MB)   RECORD NAMES
              1      19      287.75       500      610      700      900      950      970     1000      129      960     1100   
                                          VAR    BASINP    GEOM    SYMINP    ZMAT    AOBASIS   BASIS     P2S    ABASIS      S 
                                         1400     1410     1200     1210     1080     1600     1650     1300     1700   
                                           T        V       H0       H01     AOSYM     SMH    MOLCAS    ERIS     OPER   

              2       3        0.81       700     1000     2100   
                                         GEOM     BASIS     RHF  

 PROGRAMS   *        TOTAL       RHF       INT
 CPU TIMES  *         9.05      5.91      3.09
 REAL TIME  *        10.53 SEC
 DISK USED  *         1.07 GB      
 GA USED    *         0.00 MB       (max)       0.00 MB       (current)
 **********************************************************************************************************************************


1PROGRAM * MP2 (Closed-shell)     Authors: C. Hampel, H.-J. Werner, 1991, M. Deegan, P.J. Knowles, 1992


 Convergence thresholds:  THRVAR = 1.00D-08  THRDEN = 1.00D-12

 Number of core orbitals:           4 (   4 )
 Number of closed-shell orbitals:  12 (  12 )
 Number of external orbitals:     116 ( 116 )

 Molecular orbitals read from record     2100.2  Type=RHF/CANONICAL (state 1.1)

 Number of N-1 electron functions:              12
 Number of N-2 electron functions:              78
 Number of singly external CSFs:              1392
 Number of doubly external CSFs:            969528
 Total number of CSFs:                      970921

 Length of J-op  integral file:               0.00 MB
 Length of K-op  integral file:               1.24 MB

 Integral transformation finished. Total CPU:   0.72 sec, npass=  1  Memory used:   2.65 MW

 Memory needed for MP2:                      0.08 MW

 SCS-MP2 correlation energy:           -0.573944470991   (PS=  1.200000  PT=  0.333333)
 SCS-MP2 total energy:               -156.657639079388


  Reference energy                   -156.083694608397
  MP2 singlet pair energy              -0.379790289204
  MP2 triplet pair energy              -0.189958056342
  MP2 correlation energy               -0.569748345546

 !MP2 total energy                   -156.653442953943


 **********************************************************************************************************************************
 DATASETS  * FILE   NREC   LENGTH (MB)   RECORD NAMES
              1      20      304.47       500      610      700      900      950      970     1000      129      960     1100   
                                          VAR    BASINP    GEOM    SYMINP    ZMAT    AOBASIS   BASIS     P2S    ABASIS      S 
                                         1400     1410     1200     1210     1080     1600     1650     1300     1700     1380   
                                           T        V       H0       H01     AOSYM     SMH    MOLCAS    ERIS     OPER     JKOP   

              2       3        0.81       700     1000     2100   
                                         GEOM     BASIS     RHF  

 PROGRAMS   *        TOTAL       MP2       RHF       INT
 CPU TIMES  *         9.87      0.82      5.91      3.09
 REAL TIME  *        11.44 SEC
 DISK USED  *         1.07 GB      
 GA USED    *         0.00 MB       (max)       0.00 MB       (current)
 **********************************************************************************************************************************

        MP2             RHF-SCF 
   -156.65344295   -156.08369461
 **********************************************************************************************************************************
 Variable memory released
