
 Primary working directories    : /tmp/943419.143.gen6.q
 Secondary working directories  : /tmp/943419.143.gen6.q
 Wavefunction directory         : /home/vulcan/mel64643/wfu/
 Main file repository           : /tmp/943419.143.gen6.q/

 ARCHNAME  : Linux/x86_64
 FC        : /opt/intel/compilers_and_libraries_2016.1.150/linux/bin/intel64/ifort
 FCVERSION : 16.0.1
 BLASLIB   : -mkl
 id        : ccgc

 Nodes     nprocs
 n079         1
 ga_uses_ma=false, calling ma_init with nominal heap.
 GA-space will be limited to   8.0 MW (determined by -G option)

 Using customized tuning parameters: mindgm=10; mindgv=16; mindgc=4; mindgr=1; noblas=0; mincuda=1000; minvec=7
 default implementation of scratch files=df  

 ***,Optimization of nh3_nitrosmethane
 memory,1000,m
 gthresh,energy=1.0d-12,orbital=1.0d-10,oneint=1.0d-16,twoint=1.0d-16,optgrad=1.0d-6,compress=1.0d-13
 geomtyp=xyz
 
 bohr
 geometry = {
  N   -5.2217149585   -0.1865615993    0.0000000000
  H   -6.2961634418    0.2282498740   -1.5342842210
  H   -3.7577360560    1.0569508382   -0.0000000000
  H   -6.2961634418    0.2282498740    1.5342842210
  H   -0.9267651838   -2.3919580320   -0.0000000000
  H    1.8792409926   -3.4292147305   -1.6666900511
  H    1.8792409926   -3.4292147305    1.6666900511
  C    1.1336803173   -2.4642348672   -0.0000000000
  N    2.2628243929    0.0932414320    0.0000000000
  O    0.7076748765    1.7715489502    0.0000000000
 }
 
 basis=aug-cc-pvtz
 {rhf;maxit,200}
 {mp2}

 Variables initialized (661), CPU time= 0.00 sec
 Commands  initialized (458), CPU time= 0.00 sec, 486 directives.
 Default parameters read. Elapsed time= 0.04 sec

 Checking input...
 Passed
1


                                         ***  PROGRAM SYSTEM MOLPRO  ***
                         Copyright, University College Cardiff Consultants Limited, 2008

                                    Version 2010.1 linked May 16 2016 07:17:05


 **********************************************************************************************************************************
 LABEL *   Optimization of nh3_nitrosmethane                                             
 Linux-4.4.3/n079(x86_64) 64 bit mpp version                                             DATE: 25-Oct-23          TIME: 21:26:48  
 **********************************************************************************************************************************

 SHA1:             9e8077add272b0f3cad6f7df79ec5211205f459d
 **********************************************************************************************************************************

 THRESHOLDS:

 ZERO    =  1.00D-12  ONEINT  =  1.00D-16  TWOINT  =  1.00D-16  PREFAC  =  1.00D-14  LOCALI  =  1.00D-09  EORDER  =  1.00D-04
 ENERGY  =  1.00D-12  ETEST   =  0.00D+00  EDENS   =  0.00D+00  THRDEDEF=  1.00D-06  GRADIENT=  1.00D-02  STEP    =  1.00D-03
 ORBITAL =  1.00D-10  CIVEC   =  1.00D-05  COEFF   =  1.00D-04  PRINTCI =  5.00D-02  PUNCHCI =  9.90D+01  OPTGRAD =  1.00D-06
 OPTENERG=  1.00D-06  OPTSTEP =  3.00D-04  THRGRAD =  1.00D-10  COMPRESS=  1.00D-13  VARMIN  =  1.00D-07  VARMAX  =  1.00D-03
 THRDOUB =  0.00D+00  THRDIV  =  1.00D-05  THRRED  =  1.00D-07  THRPSP  =  1.00D+00  THRDC   =  1.00D-10  THRCS   =  1.00D-10
 THRNRM  =  1.00D-08  THREQ   =  0.00D+00  THRDE   =  1.00D+00  THRREF  =  1.00D-05  SPARFAC =  1.00D+00  THRDLP  =  1.00D-07
 THRDIA  =  1.00D-10  THRDLS  =  1.00D-07  THRGPS  =  0.00D+00  THRKEX  =  0.00D+00  THRDIS  =  2.00D-01  THRVAR  =  1.00D-10
 THRLOC  =  1.00D-06  THRGAP  =  1.00D-06  THRLOCT = -1.00D+00  THRGAPT = -1.00D+00  THRORB  =  1.00D-06  THRMLTP =  0.00D+00
 THRCPQCI=  1.00D-10  KEXTA   =  0.00D+00  THRCOARS=  0.00D+00  SYMTOL  =  1.00D-06  GRADTOL =  1.00D-06  THROVL  =  1.00D-08
 THRORTH =  1.00D-08  GRID    =  1.00D-06  GRIDMAX =  1.00D-03  DTMAX   =  0.00D+00

 SETTING GEOMTYP        =    XYZ
 ZUNIT=BOHR
 

 Variable memory set to 1000000000 words,  buffer space   230000 words

 SETTING BASIS          =    AUG-CC-PVTZ


 Recomputing integrals since basis changed


 Using spherical harmonics

 Library entry N      S aug-cc-pVTZ          selected for orbital group  1
 Library entry N      P aug-cc-pVTZ          selected for orbital group  1
 Library entry N      D aug-cc-pVTZ          selected for orbital group  1
 Library entry N      F aug-cc-pVTZ          selected for orbital group  1
 Library entry H      S aug-cc-pVTZ          selected for orbital group  2
 Library entry H      P aug-cc-pVTZ          selected for orbital group  2
 Library entry H      D aug-cc-pVTZ          selected for orbital group  2
 Library entry C      S aug-cc-pVTZ          selected for orbital group  3
 Library entry C      P aug-cc-pVTZ          selected for orbital group  3
 Library entry C      D aug-cc-pVTZ          selected for orbital group  3
 Library entry C      F aug-cc-pVTZ          selected for orbital group  3
 Library entry O      S aug-cc-pVTZ          selected for orbital group  5
 Library entry O      P aug-cc-pVTZ          selected for orbital group  5
 Library entry O      D aug-cc-pVTZ          selected for orbital group  5
 Library entry O      F aug-cc-pVTZ          selected for orbital group  5

1PROGRAM * SEWARD (Integral evaluation for generally contracted gaussian basis sets)     Author: Roland Lindh, 1990

 Geometry written to block  1 of record 700


 Point group  Cs  



 ATOMIC COORDINATES

 NR  ATOM    CHARGE       X              Y              Z

   1  N       7.00   -5.221714958   -0.186561599    0.000000000
   2  H       1.00   -6.296163442    0.228249874   -1.534284221
   3  H       1.00   -6.296163442    0.228249874    1.534284221
   4  H       1.00   -3.757736056    1.056950838    0.000000000
   5  H       1.00   -0.926765184   -2.391958032    0.000000000
   6  H       1.00    1.879240993   -3.429214731   -1.666690051
   7  H       1.00    1.879240993   -3.429214731    1.666690051
   8  C       6.00    1.133680317   -2.464234867    0.000000000
   9  N       7.00    2.262824393    0.093241432    0.000000000
  10  O       8.00    0.707674877    1.771548950    0.000000000

 Bond lengths in Bohr (Angstrom)

 1-2  1.918472354  1-3  1.918472354  1-4  1.920822066  5-8  2.061712784  6-8  2.065164057
     ( 1.015211846)     ( 1.015211846)     ( 1.016455260)     ( 1.091011417)     ( 1.092837752)

  7- 8  2.065164057   8- 9  2.795648648   9-10  2.288057286
       ( 1.092837752)       ( 1.479393549)       ( 1.210787769)

 Bond angles

  2-1-3  106.21107417   2-1-4  106.67095379   3-1-4  106.67095379   5-8-6  112.15889939

  5-8-7  112.15889939   5-8-9  111.81278903   6-8-7  107.61734688   6-8-9  106.35838605

  7- 8- 9  106.35838605   8- 9-10  113.35946297

 NUCLEAR CHARGE:                   34
 NUMBER OF PRIMITIVE AOS:         430
 NUMBER OF SYMMETRY AOS:          382
 NUMBER OF CONTRACTIONS:          322   ( 198A'  + 124A"  )
 NUMBER OF CORE ORBITALS:           4   (   4A'  +   0A"  )
 NUMBER OF VALENCE ORBITALS:       22   (  16A'  +   6A"  )


 NUCLEAR REPULSION ENERGY  117.63729584


 Eigenvalues of metric

         1 0.329E-04 0.527E-04 0.104E-03 0.118E-03 0.168E-03 0.231E-03 0.372E-03 0.561E-03
         2 0.819E-04 0.237E-03 0.683E-03 0.121E-02 0.166E-02 0.190E-02 0.238E-02 0.340E-02


 Contracted 2-electron integrals neglected if value below      1.0D-16
 AO integral compression algorithm  1   Integral accuracy      1.0D-16

     5132.517 MB (compressed) written to integral file ( 83.3%)

     Node minimum: 5132.517 MB, node maximum: 5132.517 MB


 NUMBER OF SORTED TWO-ELECTRON INTEGRALS:  682157926.     BUFFER LENGTH:  32768
 NUMBER OF SEGMENTS:  22  SEGMENT LENGTH:   31998651      RECORD LENGTH: 524288

 Memory used in sort:      32.56 MW

 SORT1 READ   769999854. AND WROTE   652163841. INTEGRALS IN   1877 RECORDS. CPU TIME:     7.80 SEC, REAL TIME:    12.19 SEC
 SORT2 READ   652163841. AND WROTE   682157926. INTEGRALS IN  19579 RECORDS. CPU TIME:     5.03 SEC, REAL TIME:     9.40 SEC

 FILE SIZES:   FILE 1:  4783.7 MBYTE,  FILE 4:  7872.7 MBYTE,   TOTAL:  12656.5 MBYTE

 OPERATOR DM      FOR CENTER  0  COORDINATES:    0.000000    0.000000    0.000000


 **********************************************************************************************************************************
 DATASETS  * FILE   NREC   LENGTH (MB)   RECORD NAMES
              1      19     4784.38       500      610      700      900      950      970     1000      129      960     1100   
                                          VAR    BASINP    GEOM    SYMINP    ZMAT    AOBASIS   BASIS     P2S    ABASIS      S 
                                         1400     1410     1200     1210     1080     1600     1650     1300     1700   
                                           T        V       H0       H01     AOSYM     SMH    MOLCAS    ERIS     OPER   

 PROGRAMS   *        TOTAL       INT
 CPU TIMES  *        34.41     34.38
 REAL TIME  *        46.41 SEC
 DISK USED  *        17.79 GB      
 GA USED    *         0.00 MB       (max)       0.00 MB       (current)
 **********************************************************************************************************************************

1PROGRAM * RHF-SCF (CLOSED SHELL)       Authors: W. Meyer, H.-J. Werner


 NUMBER OF ELECTRONS:      17+   17-
 CONVERGENCE THRESHOLDS:    1.00E-10 (Density)    1.00E-13 (Energy)
 MAX. NUMBER OF ITERATIONS:      200
 INTERPOLATION TYPE:            DIIS
 INTERPOLATION STEPS:              2 (START)      1 (STEP)
 LEVEL SHIFTS:                  0.00 (CLOSED)  0.00 (OPEN) 



 Orbital guess generated from atomic densities. Full valence occupancy:   20   6

 Molecular orbital dump at record        2100.2

 Initial alpha occupancy:  14   3
 Initial beta  occupancy:  14   3
 Wave function symmetry:    1

 ITERATION    DDIFF          GRAD             ENERGY        2-EL.EN.            DIPOLE MOMENTS         DIIS
    1      0.000D+00      0.000D+00      -225.01965829    393.985227    0.05932   -0.59783    0.00000    0
    2      0.000D+00      0.382D-02      -225.08029074    393.395173   -0.57213   -0.38039    0.00000    1
    3      0.668D-02      0.273D-02      -225.11456977    393.998926   -0.23805   -0.55136    0.00000    2
    4      0.278D-02      0.529D-03      -225.11678918    393.856610   -0.31291   -0.45526    0.00000    3
    5      0.758D-03      0.216D-03      -225.11721809    393.865964   -0.30973   -0.48307    0.00000    4
    6      0.318D-03      0.531D-04      -225.11726494    393.890614   -0.31558   -0.47919    0.00000    5
    7      0.114D-03      0.202D-04      -225.11727174    393.875106   -0.31742   -0.47910    0.00000    6
    8      0.467D-04      0.823D-05      -225.11727283    393.881758   -0.31848   -0.47894    0.00000    7
    9      0.181D-04      0.361D-05      -225.11727308    393.880291   -0.31879   -0.47862    0.00000    8
   10      0.992D-05      0.109D-05      -225.11727310    393.879998   -0.31890   -0.47842    0.00000    8
   11      0.317D-05      0.354D-06      -225.11727311    393.880119   -0.31892   -0.47833    0.00000    8
   12      0.970D-06      0.115D-06      -225.11727311    393.880070   -0.31892   -0.47830    0.00000    8
   13      0.382D-06      0.392D-07      -225.11727311    393.880064   -0.31892   -0.47830    0.00000    8
   14      0.962D-07      0.188D-07      -225.11727311    393.880067   -0.31892   -0.47829    0.00000    9
   15      0.411D-07      0.192D-08      -225.11727311    393.880067   -0.31892   -0.47829    0.00000    8
   16      0.499D-08      0.501D-09      -225.11727311    393.880067   -0.31892   -0.47829    0.00000    7
   17      0.123D-08      0.184D-09      -225.11727311    393.880067   -0.31892   -0.47829    0.00000    7
   18      0.410D-09      0.477D-10      -225.11727311    393.880067   -0.31892   -0.47829    0.00000    7
   19      0.117D-09      0.101D-10      -225.11727311    393.880067   -0.31892   -0.47829    0.00000    7
   20      0.319D-10      0.332D-11      -225.11727311    393.880067   -0.31892   -0.47829    0.00000    6
   21      0.223D-10      0.124D-11      -225.11727311    393.880067   -0.31892   -0.47829    0.00000    7
   22      0.111D-10      0.656D-12      -225.11727311    393.880067   -0.31892   -0.47829    0.00000    8
   23      0.182D-10      0.289D-12      -225.11727311    393.880067   -0.31892   -0.47829    0.00000    8
   24      0.130D-10      0.320D-12      -225.11727311    393.880067   -0.31892   -0.47829    0.00000    0

 Final occupancy:  14   3

 !RHF STATE 1.1 Energy               -225.117273106044
 Nuclear energy                       117.63729584
 One-electron energy                 -539.69460234
 Two-electron energy                  196.94003339
 Virial quotient                       -1.00189369
 !RHF STATE 1.1 Dipole moment          -0.31891784    -0.47829356     0.00000000
 Dipole moment /Debye                  -0.81055519    -1.21562135     0.00000000

 Orbital energies:

         1.1          2.1          3.1          4.1          5.1          6.1          7.1          8.1          9.1         10.1
    -20.630514   -15.704815   -15.539009   -11.263016    -1.514028    -1.138915    -1.074862    -0.860153    -0.693216    -0.676395

        11.1         12.1         13.1         14.1         15.1         16.1
     -0.624030    -0.556061    -0.429308    -0.405633     0.028826     0.038578

         1.2          2.2          3.2          4.2          5.2
     -0.637605    -0.624419    -0.535288     0.041948     0.056421


 **********************************************************************************************************************************
 DATASETS  * FILE   NREC   LENGTH (MB)   RECORD NAMES
              1      19     4784.38       500      610      700      900      950      970     1000      129      960     1100   
                                          VAR    BASINP    GEOM    SYMINP    ZMAT    AOBASIS   BASIS     P2S    ABASIS      S 
                                         1400     1410     1200     1210     1080     1600     1650     1300     1700   
                                           T        V       H0       H01     AOSYM     SMH    MOLCAS    ERIS     OPER   

              2       3        1.56       700     1000     2100   
                                         GEOM     BASIS     RHF  

 PROGRAMS   *        TOTAL       RHF       INT
 CPU TIMES  *       111.19     76.78     34.38
 REAL TIME  *       133.75 SEC
 DISK USED  *        17.79 GB      
 GA USED    *         0.00 MB       (max)       0.00 MB       (current)
 **********************************************************************************************************************************


1PROGRAM * MP2 (Closed-shell)     Authors: C. Hampel, H.-J. Werner, 1991, M. Deegan, P.J. Knowles, 1992


 Convergence thresholds:  THRVAR = 1.00D-08  THRDEN = 1.00D-12

 Number of core orbitals:           4 (   4   0 )
 Number of closed-shell orbitals:  13 (  10   3 )
 Number of external orbitals:     305 ( 184 121 )

 Molecular orbitals read from record     2100.2  Type=RHF/CANONICAL (state 1.1)

 Number of N-1 electron functions:              13
 Number of N-2 electron functions:              91
 Number of singly external CSFs:              2203
 Number of doubly external CSFs:           3980909
 Total number of CSFs:                     3983113

 Length of J-op  integral file:               0.00 MB
 Length of K-op  integral file:               3.80 MB

 Integral transformation finished. Total CPU:   5.77 sec, npass=  1  Memory used:   5.54 MW

 Memory needed for MP2:                      0.27 MW

 SCS-MP2 correlation energy:           -0.858132962337   (PS=  1.200000  PT=  0.333333)
 SCS-MP2 total energy:               -225.975406068379


  Reference energy                   -225.117273106042
  MP2 singlet pair energy              -0.556492412739
  MP2 triplet pair energy              -0.305906893474
  MP2 correlation energy               -0.862399306213

 !MP2 total energy                   -225.979672412255


 **********************************************************************************************************************************
 DATASETS  * FILE   NREC   LENGTH (MB)   RECORD NAMES
              1      20     4843.29       500      610      700      900      950      970     1000      129      960     1100   
                                          VAR    BASINP    GEOM    SYMINP    ZMAT    AOBASIS   BASIS     P2S    ABASIS      S 
                                         1400     1410     1200     1210     1080     1600     1650     1300     1700     1380   
                                           T        V       H0       H01     AOSYM     SMH    MOLCAS    ERIS     OPER     JKOP   

              2       3        1.56       700     1000     2100   
                                         GEOM     BASIS     RHF  

 PROGRAMS   *        TOTAL       MP2       RHF       INT
 CPU TIMES  *       117.15      5.95     76.78     34.38
 REAL TIME  *       140.24 SEC
 DISK USED  *        17.79 GB      
 GA USED    *         0.00 MB       (max)       0.00 MB       (current)
 **********************************************************************************************************************************

        MP2             RHF-SCF 
   -225.97967241   -225.11727311
 **********************************************************************************************************************************
 Variable memory released
