
 Primary working directories    : /tmp/985636.432.gen6.q
 Secondary working directories  : /tmp/985636.432.gen6.q
 Wavefunction directory         : /home/vulcan/jj04645/wfu/
 Main file repository           : /tmp/985636.432.gen6.q/

 ARCHNAME  : Linux/x86_64
 FC        : /opt/intel/compilers_and_libraries_2016.1.150/linux/bin/intel64/ifort
 FCVERSION : 16.0.1
 BLASLIB   : -mkl
 id        : ccgc

 Nodes     nprocs
 n090         1
 ga_uses_ma=false, calling ma_init with nominal heap.
 GA-space will be limited to   8.0 MW (determined by -G option)

 Using customized tuning parameters: mindgm=10; mindgv=16; mindgc=4; mindgr=1; noblas=0; mincuda=1000; minvec=7
 default implementation of scratch files=df  

 ***,Optimization of tetrahydrothiopyran
 memory,1000,m
 gthresh,energy=1.0d-12,orbital=1.0d-10,oneint=1.0d-16,twoint=1.0d-16,optgrad=1.0d-6,compress=1.0d-13
 geomtyp=xyz
 
 bohr
 geometry = {
  S    0.3479453514    2.7001198486    0.0027617356
  C   -0.3246728543   -3.3676251561   -0.0020936136
  C   -0.6648000952    0.6687477589   -2.5789787260
  C   -0.6640343334    0.6708076819    2.5797653230
  C    0.4748218538   -1.9852229675   -2.4115756254
  C    0.4754308828   -1.9832093546    2.4120293341
  H   -2.7309379336    0.5683007716   -2.5831086232
  H   -2.7301782949    0.5704642393    2.5833070941
  H   -0.0764190867    1.6248260304   -4.3091110948
  H   -0.0761224555    1.6263329030    4.3103626364
  H    2.5367092108   -1.8377910228   -2.4781194582
  H    2.5373049931   -1.8359042966    2.4792610673
  H   -0.1236382932   -3.0786027663   -4.0634685759
  H   -0.1235659161   -3.0768923412    4.0635270215
  H    0.4525052274   -5.2819228210   -0.0021187434
  H   -2.3890832729   -3.5622499244   -0.0024397516
 }
 
 basis=VDZ
 {rhf;maxit,200}
 {ccsd(t);maxit,200}

 Variables initialized (661), CPU time= 0.00 sec
 Commands  initialized (458), CPU time= 0.01 sec, 486 directives.
 Default parameters read. Elapsed time= 0.04 sec

 Checking input...
 Passed
1


                                         ***  PROGRAM SYSTEM MOLPRO  ***
                         Copyright, University College Cardiff Consultants Limited, 2008

                                    Version 2010.1 linked May 16 2016 07:17:05


 **********************************************************************************************************************************
 LABEL *   Optimization of tetrahydrothiopyran                                           
 Linux-4.4.3/n090(x86_64) 64 bit mpp version                                             DATE: 26-Jan-24          TIME: 12:54:59  
 **********************************************************************************************************************************

 SHA1:             9e8077add272b0f3cad6f7df79ec5211205f459d
 **********************************************************************************************************************************

 THRESHOLDS:

 ZERO    =  1.00D-12  ONEINT  =  1.00D-16  TWOINT  =  1.00D-16  PREFAC  =  1.00D-14  LOCALI  =  1.00D-09  EORDER  =  1.00D-04
 ENERGY  =  1.00D-12  ETEST   =  0.00D+00  EDENS   =  0.00D+00  THRDEDEF=  1.00D-06  GRADIENT=  1.00D-02  STEP    =  1.00D-03
 ORBITAL =  1.00D-10  CIVEC   =  1.00D-05  COEFF   =  1.00D-04  PRINTCI =  5.00D-02  PUNCHCI =  9.90D+01  OPTGRAD =  1.00D-06
 OPTENERG=  1.00D-06  OPTSTEP =  3.00D-04  THRGRAD =  1.00D-10  COMPRESS=  1.00D-13  VARMIN  =  1.00D-07  VARMAX  =  1.00D-03
 THRDOUB =  0.00D+00  THRDIV  =  1.00D-05  THRRED  =  1.00D-07  THRPSP  =  1.00D+00  THRDC   =  1.00D-10  THRCS   =  1.00D-10
 THRNRM  =  1.00D-08  THREQ   =  0.00D+00  THRDE   =  1.00D+00  THRREF  =  1.00D-05  SPARFAC =  1.00D+00  THRDLP  =  1.00D-07
 THRDIA  =  1.00D-10  THRDLS  =  1.00D-07  THRGPS  =  0.00D+00  THRKEX  =  0.00D+00  THRDIS  =  2.00D-01  THRVAR  =  1.00D-10
 THRLOC  =  1.00D-06  THRGAP  =  1.00D-06  THRLOCT = -1.00D+00  THRGAPT = -1.00D+00  THRORB  =  1.00D-06  THRMLTP =  0.00D+00
 THRCPQCI=  1.00D-10  KEXTA   =  0.00D+00  THRCOARS=  0.00D+00  SYMTOL  =  1.00D-06  GRADTOL =  1.00D-06  THROVL  =  1.00D-08
 THRORTH =  1.00D-08  GRID    =  1.00D-06  GRIDMAX =  1.00D-03  DTMAX   =  0.00D+00

 SETTING GEOMTYP        =    XYZ
 ZUNIT=BOHR
 

 Variable memory set to 1000000000 words,  buffer space   230000 words

 SETTING BASIS          =    VDZ


 Recomputing integrals since basis changed


 Using spherical harmonics

 Library entry S      S cc-pVDZ              selected for orbital group  1
 Library entry S      P cc-pVDZ              selected for orbital group  1
 Library entry S      D cc-pVDZ              selected for orbital group  1
 Library entry C      S cc-pVDZ              selected for orbital group  2
 Library entry C      P cc-pVDZ              selected for orbital group  2
 Library entry C      D cc-pVDZ              selected for orbital group  2
 Library entry H      S cc-pVDZ              selected for orbital group  3
 Library entry H      P cc-pVDZ              selected for orbital group  3

1PROGRAM * SEWARD (Integral evaluation for generally contracted gaussian basis sets)     Author: Roland Lindh, 1990

 Geometry written to block  1 of record 700


 Point group  C1  



 ATOMIC COORDINATES

 NR  ATOM    CHARGE       X              Y              Z

   1  S      16.00    0.347945351    2.700119849    0.002761736
   2  C       6.00   -0.324672854   -3.367625156   -0.002093614
   3  C       6.00   -0.664800095    0.668747759   -2.578978726
   4  C       6.00   -0.664034333    0.670807682    2.579765323
   5  C       6.00    0.474821854   -1.985222967   -2.411575625
   6  C       6.00    0.475430883   -1.983209355    2.412029334
   7  H       1.00   -2.730937934    0.568300772   -2.583108623
   8  H       1.00   -2.730178295    0.570464239    2.583307094
   9  H       1.00   -0.076419087    1.624826030   -4.309111095
  10  H       1.00   -0.076122456    1.626332903    4.310362636
  11  H       1.00    2.536709211   -1.837791023   -2.478119458
  12  H       1.00    2.537304993   -1.835904297    2.479261067
  13  H       1.00   -0.123638293   -3.078602766   -4.063468576
  14  H       1.00   -0.123565916   -3.076892341    4.063527021
  15  H       1.00    0.452505227   -5.281922821   -0.002118743
  16  H       1.00   -2.389083273   -3.562249924   -0.002439752

 Bond lengths in Bohr (Angstrom)

  1- 3  3.437660501   1- 4  3.432660519   2- 5  2.890645458   2- 6  2.895645473   2-15  2.066044850
       ( 1.819131589)       ( 1.816485713)       ( 1.529663696)       ( 1.532309590)       ( 1.093303847)

  2-16  2.073564394   3- 5  2.893150981   3- 7  2.068582176   3- 9  2.062434456   4- 6  2.893151011
       ( 1.097283019)       ( 1.530989562)       ( 1.094646543)       ( 1.091393309)       ( 1.530989577)

  4- 8  2.068582176   4-10  2.062434456   5-11  2.068222361   5-13  2.069392242   6-12  2.068222361
       ( 1.094646543)       ( 1.091393309)       ( 1.094456136)       ( 1.095075211)       ( 1.094456136)

  6-14  2.069392242
       ( 1.095075211)

 Bond angles

  1-3-5  112.49264417   1-3-7  108.93215674   1-3-9  105.78545959   1-4-6  112.49968436

  1- 4- 8  108.93068568   1- 4-10  105.78398854   2- 5- 3  112.20871414   2- 5-11  109.67242889

  2- 5-13  109.43353667   2- 6- 4  112.21574864   2- 6-12  109.67095156   2- 6-14  109.43205934

  3- 1- 4   97.33223693   3- 5-11  108.99247444   3- 5-13  108.93979102   4- 6-12  108.99099712

  4- 6-14  108.93831370   5- 2- 6  112.94614965   5- 2-15  109.81944898   5- 2-16  108.66938488

  5- 3- 7  110.42674057   5- 3- 9  111.18672814   6- 2-15  109.81944896   6- 2-16  108.66938485

  6- 4- 8  110.42526954   6- 4-10  111.18525709   7- 3- 9  107.80527064   8- 4-10  107.80379957

 11- 5-13  107.47506484  12- 6-14  107.47358760  15- 2-16  106.71075431

 NUCLEAR CHARGE:                   56
 NUMBER OF PRIMITIVE AOS:         247
 NUMBER OF SYMMETRY AOS:          241
 NUMBER OF CONTRACTIONS:          138   ( 138A   )
 NUMBER OF CORE ORBITALS:          10   (  10A   )
 NUMBER OF VALENCE ORBITALS:       34   (  34A   )


 NUCLEAR REPULSION ENERGY  312.14738382


 Eigenvalues of metric

         1 0.286E-02 0.305E-02 0.427E-02 0.635E-02 0.703E-02 0.151E-01 0.157E-01 0.196E-01


 Contracted 2-electron integrals neglected if value below      1.0D-16
 AO integral compression algorithm  1   Integral accuracy      1.0D-16

     374.079 MB (compressed) written to integral file ( 94.2%)

     Node minimum: 374.079 MB, node maximum: 374.079 MB


 NUMBER OF SORTED TWO-ELECTRON INTEGRALS:   45998436.     BUFFER LENGTH:  32768
 NUMBER OF SEGMENTS:   3  SEGMENT LENGTH:   15998004      RECORD LENGTH: 524288

 Memory used in sort:      16.56 MW

 SORT1 READ    49670079. AND WROTE    45796211. INTEGRALS IN    132 RECORDS. CPU TIME:     0.45 SEC, REAL TIME:     0.70 SEC
 SORT2 READ    45796211. AND WROTE    45998436. INTEGRALS IN   1427 RECORDS. CPU TIME:     0.34 SEC, REAL TIME:     0.51 SEC

 FILE SIZES:   FILE 1:   349.6 MBYTE,  FILE 4:   553.7 MBYTE,   TOTAL:    903.3 MBYTE

 OPERATOR DM      FOR CENTER  0  COORDINATES:    0.000000    0.000000    0.000000


 **********************************************************************************************************************************
 DATASETS  * FILE   NREC   LENGTH (MB)   RECORD NAMES
              1      19      349.81       500      610      700      900      950      970     1000      129      960     1100   
                                          VAR    BASINP    GEOM    SYMINP    ZMAT    AOBASIS   BASIS     P2S    ABASIS      S 
                                         1400     1410     1200     1210     1080     1600     1650     1300     1700   
                                           T        V       H0       H01     AOSYM     SMH    MOLCAS    ERIS     OPER   

 PROGRAMS   *        TOTAL       INT
 CPU TIMES  *         4.29      4.25
 REAL TIME  *         5.08 SEC
 DISK USED  *         1.28 GB      
 GA USED    *         0.01 MB       (max)       0.00 MB       (current)
 **********************************************************************************************************************************

1PROGRAM * RHF-SCF (CLOSED SHELL)       Authors: W. Meyer, H.-J. Werner


 NUMBER OF ELECTRONS:      28+   28-    SPACE SYMMETRY=1    SPIN SYMMETRY: Singlet 
 CONVERGENCE THRESHOLDS:    1.00E-10 (Density)    1.00E-13 (Energy)
 MAX. NUMBER OF ITERATIONS:      200
 INTERPOLATION TYPE:            DIIS
 INTERPOLATION STEPS:              2 (START)      1 (STEP)
 LEVEL SHIFTS:                  0.00 (CLOSED)  0.00 (OPEN) 



 Orbital guess generated from atomic densities. Full valence occupancy:   44

 Molecular orbital dump at record        2100.2

 ITERATION    DDIFF          GRAD             ENERGY        2-EL.EN.            DIPOLE MOMENTS         DIIS
    1      0.000D+00      0.000D+00      -592.64380791   1056.854506   -0.40969   -0.80137   -0.00079    0
    2      0.000D+00      0.396D-02      -592.70484798   1054.279176   -0.20674   -0.73849   -0.00063    1
    3      0.778D-02      0.133D-02      -592.71079407   1055.708077   -0.28045   -0.67559   -0.00066    2
    4      0.269D-02      0.540D-03      -592.71180670   1055.093514   -0.25256   -0.70887   -0.00072    3
    5      0.933D-03      0.770D-04      -592.71183231   1055.155861   -0.24873   -0.70044   -0.00070    4
    6      0.180D-03      0.266D-04      -592.71183481   1055.124894   -0.25044   -0.70074   -0.00072    5
    7      0.501D-04      0.621D-05      -592.71183502   1055.128143   -0.24977   -0.70062   -0.00071    6
    8      0.164D-04      0.174D-05      -592.71183504   1055.127275   -0.24976   -0.70049   -0.00072    7
    9      0.539D-05      0.452D-06      -592.71183504   1055.127159   -0.24974   -0.70044   -0.00072    7
   10      0.127D-05      0.161D-06      -592.71183504   1055.127197   -0.24973   -0.70044   -0.00072    7
   11      0.478D-06      0.342D-07      -592.71183504   1055.127183   -0.24973   -0.70044   -0.00072    7
   12      0.114D-06      0.682D-08      -592.71183504   1055.127188   -0.24973   -0.70044   -0.00072    7
   13      0.181D-07      0.285D-08      -592.71183504   1055.127185   -0.24973   -0.70044   -0.00072    7
   14      0.625D-08      0.835D-09      -592.71183504   1055.127186   -0.24973   -0.70044   -0.00072    7
   15      0.224D-08      0.270D-09      -592.71183504   1055.127186   -0.24973   -0.70044   -0.00072    7
   16      0.646D-09      0.840D-10      -592.71183504   1055.127186   -0.24973   -0.70044   -0.00072    8
   17      0.201D-09      0.181D-10      -592.71183504   1055.127186   -0.24973   -0.70044   -0.00072    7
   18      0.478D-10      0.539D-11      -592.71183504   1055.127186   -0.24973   -0.70044   -0.00072    7
   19      0.167D-10      0.181D-11      -592.71183504   1055.127186   -0.24973   -0.70044   -0.00072    8
   20      0.505D-11      0.493D-12      -592.71183504   1055.127186   -0.24973   -0.70044   -0.00072    0

 Final occupancy:  28

 !RHF STATE 1.1 Energy               -592.711835041900
 Nuclear energy                       312.14738382
 One-electron energy                -1432.42281186
 Two-electron energy                  527.56359300
 Virial quotient                       -1.00019703
 !RHF STATE 1.1 Dipole moment          -0.24973310    -0.70043855    -0.00071603
 Dipole moment /Debye                  -0.63471664    -1.78022061    -0.00181985

 Orbital energies:

         1.1          2.1          3.1          4.1          5.1          6.1          7.1          8.1          9.1         10.1
    -91.929757   -11.255181   -11.255000   -11.231140   -11.230998   -11.228984    -8.933689    -6.615589    -6.614152    -6.611950

        11.1         12.1         13.1         14.1         15.1         16.1         17.1         18.1         19.1         20.1
     -1.119569    -1.019365    -1.007071    -0.842817    -0.835415    -0.755786    -0.646780    -0.614210    -0.609590    -0.578488

        21.1         22.1         23.1         24.1         25.1         26.1         27.1         28.1         29.1         30.1
     -0.546545    -0.523528    -0.498061    -0.496281    -0.472427    -0.435067    -0.411789    -0.328584     0.176999     0.190364


 **********************************************************************************************************************************
 DATASETS  * FILE   NREC   LENGTH (MB)   RECORD NAMES
              1      19      349.81       500      610      700      900      950      970     1000      129      960     1100   
                                          VAR    BASINP    GEOM    SYMINP    ZMAT    AOBASIS   BASIS     P2S    ABASIS      S 
                                         1400     1410     1200     1210     1080     1600     1650     1300     1700   
                                           T        V       H0       H01     AOSYM     SMH    MOLCAS    ERIS     OPER   

              2       3        0.92       700     1000     2100   
                                         GEOM     BASIS     RHF  

 PROGRAMS   *        TOTAL       RHF       INT
 CPU TIMES  *         9.87      5.57      4.25
 REAL TIME  *        11.38 SEC
 DISK USED  *         1.28 GB      
 GA USED    *         0.01 MB       (max)       0.00 MB       (current)
 **********************************************************************************************************************************


1PROGRAM * CCSD (Closed-shell coupled cluster)     Authors: C. Hampel, H.-J. Werner, 1991, M. Deegan, P.J. Knowles, 1992


 Convergence thresholds:  THRVAR = 1.00D-08  THRDEN = 1.00D-12

 CCSD(T)     terms to be evaluated (factor= 1.000)


 Number of core orbitals:          10 (  10 )
 Number of closed-shell orbitals:  18 (  18 )
 Number of external orbitals:     110 ( 110 )

 Molecular orbitals read from record     2100.2  Type=RHF/CANONICAL (state 1.1)

 Number of N-1 electron functions:              18
 Number of N-2 electron functions:             171
 Number of singly external CSFs:              1980
 Number of doubly external CSFs:           1961190
 Total number of CSFs:                     1963171

 Length of J-op  integral file:               0.00 MB
 Length of K-op  integral file:               1.35 MB
 Length of 3-ext integral record:             0.00 MB

 Memory could be reduced to 32.58 Mwords without degradation in triples

 Integral transformation finished. Total CPU:   2.01 sec, npass=  1  Memory used:  30.89 MW

 Reference energy:                   -592.71183504

 MP2 singlet pair energy:              -0.53947308
 MP2 triplet pair energy:              -0.30437740
 MP2 correlation energy:               -0.84385048
 MP2 total energy:                   -593.55568552

 SCS-MP2 correlation energy:           -0.83675808   (PS=  1.200000  PT=  0.333333)
 SCS-MP2 total energy:               -593.54859312

 ITER.      SQ.NORM     CORR.ENERGY   TOTAL ENERGY   ENERGY CHANGE        DEN1      VAR(S)    VAR(P)  DIIS     TIME
   1      1.33970946    -0.91082492  -593.62265997    -0.06697445    -0.04301676  0.26D-02  0.55D-02  1  1     8.95
   2      1.36670173    -0.91617183  -593.62800688    -0.00534691    -0.02577606  0.69D-04  0.46D-03  2  2    15.98
   3      1.37203336    -0.91629966  -593.62813470    -0.00012783    -0.00303751  0.16D-04  0.28D-04  3  3    23.02
   4      1.37352529    -0.91635771  -593.62819275    -0.00005805    -0.00059372  0.76D-06  0.20D-05  4  4    30.05
   5      1.37376558    -0.91636433  -593.62819937    -0.00000662    -0.00007079  0.17D-06  0.16D-06  5  5    37.07
   6      1.37381109    -0.91635989  -593.62819493     0.00000444    -0.00001392  0.30D-07  0.14D-07  6  6    44.12
   7      1.37381862    -0.91635977  -593.62819482     0.00000011     0.00000064  0.53D-08  0.23D-08  6  2    51.16
   8      1.37382467    -0.91635946  -593.62819450     0.00000031    -0.00000124  0.73D-09  0.26D-09  6  1    58.19
   9      1.37382549    -0.91635940  -593.62819444     0.00000006     0.00000050  0.66D-10  0.44D-10  6  4    65.23
  10      1.37382638    -0.91635936  -593.62819441     0.00000003    -0.00000011  0.48D-11  0.35D-11  6  3    72.27
  11      1.37382639    -0.91635937  -593.62819441    -0.00000000     0.00000004  0.12D-11  0.53D-12  6  5    79.32
  12      1.37382635    -0.91635937  -593.62819441    -0.00000000     0.00000002  0.17D-12  0.77D-13  6  6    86.37
  13      1.37382630    -0.91635937  -593.62819441    -0.00000000     0.00000002  0.24D-13  0.10D-13  6  1    93.40
  14      1.37382629    -0.91635937  -593.62819441    -0.00000000     0.00000000  0.30D-14  0.12D-14  6  2   100.42
  15      1.37382629    -0.91635937  -593.62819441     0.00000000    -0.00000000  0.66D-15  0.30D-15  6  4   107.46
  16      1.37382630    -0.91635937  -593.62819441     0.00000000    -0.00000000  0.31D-16  0.23D-16  6  5   114.49
  17      1.37382630    -0.91635937  -593.62819441     0.00000000    -0.00000000  0.55D-17  0.24D-17  6  3   121.52
  18      1.37382630    -0.91635937  -593.62819441     0.00000000    -0.00000000  0.18D-17  0.48D-18  6  6   128.56
  19      1.37382630    -0.91635937  -593.62819441     0.00000000    -0.00000000  0.37D-18  0.11D-18  6  1   135.59
  20      1.37382630    -0.91635937  -593.62819441     0.00000000     0.00000000  0.45D-19  0.17D-19  6  2   142.64
  21      1.37382630    -0.91635937  -593.62819441    -0.00000000     0.00000000  0.81D-20  0.34D-20  6  4   149.68

 Norm of t1 vector:      0.07012771      S-energy:    -0.00000000      T1 diagnostic:  0.00826463
                                                                       D1 diagnostic:  0.02104150


 Total CPU time for triples:    100.70 sec


 RESULTS
 =======

  Reference energy                   -592.711835041899
  CCSD singlet pair energy             -0.634229289993
  CCSD triplet pair energy             -0.282130081380
  CCSD correlation energy              -0.916359371373

  Triples (T) contribution             -0.029869308304
  Total correlation energy             -0.946228679678

  CCSD total energy                  -593.628194413272
  CCSD[T] energy                     -593.658683085222
  CCSD-T energy                      -593.657752330170
 !CCSD(T) total energy               -593.658063721576

 Timing summary (sec):

 STEP                 CPU(USER)    SYS     CPU(TOT)    WALL
 Transformation          2.11      0.22      2.33      2.33
 CCSD iterations       147.58      2.66    150.24    150.29
 Triples               100.70      2.06    102.76    102.79

 Program statistics:

 Available memory in ccsd:               999998604
 Min. memory needed in ccsd:               5123362
 Max. memory used in ccsd:                 6867976
 Max. memory used in cckext:               6836871 (21 integral passes)



 **********************************************************************************************************************************
 DATASETS  * FILE   NREC   LENGTH (MB)   RECORD NAMES
              1      20      486.19       500      610      700      900      950      970     1000      129      960     1100   
                                          VAR    BASINP    GEOM    SYMINP    ZMAT    AOBASIS   BASIS     P2S    ABASIS      S 
                                         1400     1410     1200     1210     1080     1600     1650     1300     1700     1380   
                                           T        V       H0       H01     AOSYM     SMH    MOLCAS    ERIS     OPER     JKOP   

              2       3        0.92       700     1000     2100   
                                         GEOM     BASIS     RHF  

 PROGRAMS   *        TOTAL   CCSD(T)       RHF       INT
 CPU TIMES  *       260.27    250.41      5.57      4.25
 REAL TIME  *       266.85 SEC
 DISK USED  *         1.28 GB      
 GA USED    *         0.01 MB       (max)       0.00 MB       (current)
 **********************************************************************************************************************************

        CCSD(T)         RHF-SCF 
   -593.65806372   -592.71183504
 **********************************************************************************************************************************
 Variable memory released
