
 Primary working directories    : /tmp/879303.155.gen6.q
 Secondary working directories  : /tmp/879303.155.gen6.q
 Wavefunction directory         : /home/vulcan/lo21740/wfu/
 Main file repository           : /tmp/879303.155.gen6.q/

 ARCHNAME  : Linux/x86_64
 FC        : /opt/intel/compilers_and_libraries_2016.1.150/linux/bin/intel64/ifort
 FCVERSION : 16.0.1
 BLASLIB   : -mkl
 id        : ccgc

 Nodes     nprocs
 n077         1
 ga_uses_ma=false, calling ma_init with nominal heap.
 GA-space will be limited to   8.0 MW (determined by -G option)

 Using customized tuning parameters: mindgm=10; mindgv=16; mindgc=4; mindgr=1; noblas=0; mincuda=1000; minvec=7
 default implementation of scratch files=df  

 ***,Optimization of formamide
 memory,1000,m
 gthresh,energy=1.0d-12,orbital=1.0d-10,oneint=1.0d-16,twoint=1.0d-16,optgrad=1.0d-6,compress=1.0d-13
 geomtyp=xyz
 
 bohr
 geometry = {
  C   -3.8262452054    0.0874349857    0.0013533350
  O   -2.7274471052    2.1423651030   -0.0006857777
  N   -2.6808720795   -2.1800335247   -0.0007896548
  H   -3.7413684583   -3.7570950000    0.0002755594
  H   -0.7475683005   -2.3057583733   -0.0002768321
  H   -5.9059594908   -0.0206134502   -0.0003393034
  C    3.8253574676   -0.0852501937   -0.0013503798
  O    2.7329794669   -2.1355429797    0.0006777438
  N    2.6818542863    2.1788410736    0.0007893776
  H    3.7368081719    3.7549975234   -0.0002680841
  H    0.7537980182    2.3043830391    0.0002746049
  H    5.8986632288    0.0162717966    0.0003394111
 }
 
 basis=AVDZ, H=VDZ
 {rhf;maxit,200}
 {ccsd(t);maxit,200}

 Variables initialized (661), CPU time= 0.00 sec
 Commands  initialized (458), CPU time= 0.01 sec, 486 directives.
 Default parameters read. Elapsed time= 0.05 sec

 Checking input...
 Passed
1


                                         ***  PROGRAM SYSTEM MOLPRO  ***
                         Copyright, University College Cardiff Consultants Limited, 2008

                                    Version 2010.1 linked May 16 2016 07:17:05


 **********************************************************************************************************************************
 LABEL *   Optimization of formamide                                                     
 Linux-4.4.3/n077(x86_64) 64 bit mpp version                                             DATE: 23-May-23          TIME: 13:32:23  
 **********************************************************************************************************************************

 SHA1:             9e8077add272b0f3cad6f7df79ec5211205f459d
 **********************************************************************************************************************************

 THRESHOLDS:

 ZERO    =  1.00D-12  ONEINT  =  1.00D-16  TWOINT  =  1.00D-16  PREFAC  =  1.00D-14  LOCALI  =  1.00D-09  EORDER  =  1.00D-04
 ENERGY  =  1.00D-12  ETEST   =  0.00D+00  EDENS   =  0.00D+00  THRDEDEF=  1.00D-06  GRADIENT=  1.00D-02  STEP    =  1.00D-03
 ORBITAL =  1.00D-10  CIVEC   =  1.00D-05  COEFF   =  1.00D-04  PRINTCI =  5.00D-02  PUNCHCI =  9.90D+01  OPTGRAD =  1.00D-06
 OPTENERG=  1.00D-06  OPTSTEP =  3.00D-04  THRGRAD =  1.00D-10  COMPRESS=  1.00D-13  VARMIN  =  1.00D-07  VARMAX  =  1.00D-03
 THRDOUB =  0.00D+00  THRDIV  =  1.00D-05  THRRED  =  1.00D-07  THRPSP  =  1.00D+00  THRDC   =  1.00D-10  THRCS   =  1.00D-10
 THRNRM  =  1.00D-08  THREQ   =  0.00D+00  THRDE   =  1.00D+00  THRREF  =  1.00D-05  SPARFAC =  1.00D+00  THRDLP  =  1.00D-07
 THRDIA  =  1.00D-10  THRDLS  =  1.00D-07  THRGPS  =  0.00D+00  THRKEX  =  0.00D+00  THRDIS  =  2.00D-01  THRVAR  =  1.00D-10
 THRLOC  =  1.00D-06  THRGAP  =  1.00D-06  THRLOCT = -1.00D+00  THRGAPT = -1.00D+00  THRORB  =  1.00D-06  THRMLTP =  0.00D+00
 THRCPQCI=  1.00D-10  KEXTA   =  0.00D+00  THRCOARS=  0.00D+00  SYMTOL  =  1.00D-06  GRADTOL =  1.00D-06  THROVL  =  1.00D-08
 THRORTH =  1.00D-08  GRID    =  1.00D-06  GRIDMAX =  1.00D-03  DTMAX   =  0.00D+00

 SETTING GEOMTYP        =    XYZ
 ZUNIT=BOHR
 

 Variable memory set to 1000000000 words,  buffer space   230000 words

 SETTING BASIS          =    AVDZ,H=VDZ


 Recomputing integrals since basis changed


 Using spherical harmonics

 Library entry C      S aug-cc-pVDZ          selected for orbital group  1
 Library entry C      P aug-cc-pVDZ          selected for orbital group  1
 Library entry C      D aug-cc-pVDZ          selected for orbital group  1
 Library entry O      S aug-cc-pVDZ          selected for orbital group  2
 Library entry O      P aug-cc-pVDZ          selected for orbital group  2
 Library entry O      D aug-cc-pVDZ          selected for orbital group  2
 Library entry N      S aug-cc-pVDZ          selected for orbital group  3
 Library entry N      P aug-cc-pVDZ          selected for orbital group  3
 Library entry N      D aug-cc-pVDZ          selected for orbital group  3
 Library entry H      S cc-pVDZ              selected for orbital group  4
 Library entry H      P cc-pVDZ              selected for orbital group  4

1PROGRAM * SEWARD (Integral evaluation for generally contracted gaussian basis sets)     Author: Roland Lindh, 1990

 Geometry written to block  1 of record 700


 Point group  C1  



 ATOMIC COORDINATES

 NR  ATOM    CHARGE       X              Y              Z

   1  C       6.00   -3.826245205    0.087434986    0.001353335
   2  O       8.00   -2.727447105    2.142365103   -0.000685778
   3  N       7.00   -2.680872079   -2.180033525   -0.000789655
   4  H       1.00   -3.741368458   -3.757095000    0.000275559
   5  H       1.00   -0.747568301   -2.305758373   -0.000276832
   6  H       1.00   -5.905959491   -0.020613450   -0.000339303
   7  C       6.00    3.825357468   -0.085250194   -0.001350380
   8  O       8.00    2.732979467   -2.135542980    0.000677744
   9  N       7.00    2.681854286    2.178841074    0.000789378
  10  H       1.00    3.736808172    3.754997523   -0.000268084
  11  H       1.00    0.753798018    2.304383039    0.000274605
  12  H       1.00    5.898663229    0.016271797    0.000339411

 Bond lengths in Bohr (Angstrom)

 1-2  2.330257327  1-3  2.540334158  1-6  2.082519829  3-4  1.900467469  3-5  1.937387546
     ( 1.233119069)     ( 1.344286940)     ( 1.102022031)     ( 1.005684071)     ( 1.025221334)

  7- 8  2.323143198   7- 9  2.536476566   7-12  2.075790536   9-10  1.896628053   9-11  1.932139235
       ( 1.229354434)       ( 1.342245590)       ( 1.098461042)       ( 1.003652340)       ( 1.022444048)

 Bond angles

  1-3-4  119.28121234   1-3-5  120.52058590   2-1-3  125.06607181   2-1-6  121.10797068

  3- 1- 6  113.82574357   4- 3- 5  120.19810992   7- 9-10  119.40820471   7- 9-11  120.52196576

  8- 7- 9  125.15507945   8- 7-12  120.85154742   9- 7-12  113.99315938  10- 9-11  120.06973774

 NUCLEAR CHARGE:                   48
 NUMBER OF PRIMITIVE AOS:         264
 NUMBER OF SYMMETRY AOS:          252
 NUMBER OF CONTRACTIONS:          168   ( 168A   )
 NUMBER OF CORE ORBITALS:           6   (   6A   )
 NUMBER OF VALENCE ORBITALS:       30   (  30A   )


 NUCLEAR REPULSION ENERGY  230.50423273


 Eigenvalues of metric

         1 0.417E-03 0.626E-03 0.114E-02 0.135E-02 0.161E-02 0.168E-02 0.366E-02 0.437E-02


 Contracted 2-electron integrals neglected if value below      1.0D-16
 AO integral compression algorithm  1   Integral accuracy      1.0D-16

     721.158 MB (compressed) written to integral file ( 79.2%)

     Node minimum: 721.158 MB, node maximum: 721.158 MB


 NUMBER OF SORTED TWO-ELECTRON INTEGRALS:  100770306.     BUFFER LENGTH:  32768
 NUMBER OF SEGMENTS:   7  SEGMENT LENGTH:   15999503      RECORD LENGTH: 524288

 Memory used in sort:      16.56 MW

 SORT1 READ   113826309. AND WROTE    98808011. INTEGRALS IN    287 RECORDS. CPU TIME:     1.09 SEC, REAL TIME:     1.60 SEC
 SORT2 READ    98808011. AND WROTE   100770306. INTEGRALS IN   2751 RECORDS. CPU TIME:     0.76 SEC, REAL TIME:     1.16 SEC

 FILE SIZES:   FILE 1:   647.5 MBYTE,  FILE 4:  1203.8 MBYTE,   TOTAL:   1851.3 MBYTE

 OPERATOR DM      FOR CENTER  0  COORDINATES:    0.000000    0.000000    0.000000


 **********************************************************************************************************************************
 DATASETS  * FILE   NREC   LENGTH (MB)   RECORD NAMES
              1      19      647.80       500      610      700      900      950      970     1000      129      960     1100   
                                          VAR    BASINP    GEOM    SYMINP    ZMAT    AOBASIS   BASIS     P2S    ABASIS      S 
                                         1400     1410     1200     1210     1080     1600     1650     1300     1700   
                                           T        V       H0       H01     AOSYM     SMH    MOLCAS    ERIS     OPER   

 PROGRAMS   *        TOTAL       INT
 CPU TIMES  *         5.79      5.75
 REAL TIME  *         7.31 SEC
 DISK USED  *         2.57 GB      
 GA USED    *         0.00 MB       (max)       0.00 MB       (current)
 **********************************************************************************************************************************

1PROGRAM * RHF-SCF (CLOSED SHELL)       Authors: W. Meyer, H.-J. Werner


 NUMBER OF ELECTRONS:      24+   24-    SPACE SYMMETRY=1    SPIN SYMMETRY: Singlet 
 CONVERGENCE THRESHOLDS:    1.00E-10 (Density)    1.00E-13 (Energy)
 MAX. NUMBER OF ITERATIONS:      200
 INTERPOLATION TYPE:            DIIS
 INTERPOLATION STEPS:              2 (START)      1 (STEP)
 LEVEL SHIFTS:                  0.00 (CLOSED)  0.00 (OPEN) 



 Orbital guess generated from atomic densities. Full valence occupancy:   36

 Molecular orbital dump at record        2100.2

 ITERATION    DDIFF          GRAD             ENERGY        2-EL.EN.            DIPOLE MOMENTS         DIIS
    1      0.000D+00      0.000D+00      -337.80392989    704.670306   -0.00782   -0.01303    0.00001    0
    2      0.000D+00      0.643D-02      -337.88138296    699.071044    0.00026   -0.00213   -0.00000    1
    3      0.123D-01      0.468D-02      -337.93913585    701.809560   -0.00358   -0.00820    0.00001    2
    4      0.486D-02      0.619D-03      -337.94134556    701.712647   -0.00295   -0.00588    0.00000    3
    5      0.107D-02      0.213D-03      -337.94161249    701.646961   -0.00327   -0.00703    0.00001    4
    6      0.384D-03      0.698D-04      -337.94167341    701.672540   -0.00315   -0.00630    0.00000    5
    7      0.166D-03      0.310D-04      -337.94168431    701.663719   -0.00329   -0.00676    0.00001    6
    8      0.820D-04      0.932D-05      -337.94168524    701.668984   -0.00318   -0.00624    0.00000    7
    9      0.250D-04      0.340D-05      -337.94168532    701.667306   -0.00328   -0.00665    0.00000    8
   10      0.694D-05      0.136D-05      -337.94168533    701.666941   -0.00323   -0.00648    0.00000    8
   11      0.325D-05      0.506D-06      -337.94168533    701.667300   -0.00325   -0.00652    0.00000    8
   12      0.102D-05      0.131D-06      -337.94168533    701.667247   -0.00325   -0.00652    0.00000    8
   13      0.368D-06      0.370D-07      -337.94168533    701.667234   -0.00325   -0.00652    0.00000    8
   14      0.845D-07      0.156D-07      -337.94168533    701.667240   -0.00325   -0.00652    0.00000    8
   15      0.347D-07      0.280D-08      -337.94168533    701.667240   -0.00325   -0.00652    0.00000    8
   16      0.756D-08      0.756D-09      -337.94168533    701.667240   -0.00325   -0.00652    0.00000    8
   17      0.159D-08      0.236D-09      -337.94168533    701.667240   -0.00325   -0.00652    0.00000    7
   18      0.485D-09      0.718D-10      -337.94168533    701.667240   -0.00325   -0.00652    0.00000    7
   19      0.149D-09      0.308D-10      -337.94168533    701.667240   -0.00325   -0.00652    0.00000    8
   20      0.596D-10      0.135D-10      -337.94168533    701.667240   -0.00325   -0.00652    0.00000    8
   21      0.273D-10      0.470D-11      -337.94168533    701.667240   -0.00325   -0.00652    0.00000    8
   22      0.108D-10      0.238D-11      -337.94168533    701.667240   -0.00325   -0.00652    0.00000    8
   23      0.609D-11      0.694D-12      -337.94168533    701.667240   -0.00325   -0.00652    0.00000    8
   24      0.246D-11      0.346D-12      -337.94168533    701.667240   -0.00325   -0.00652    0.00000    0

 Final occupancy:  24

 !RHF STATE 1.1 Energy               -337.941685334263
 Nuclear energy                       230.50423273
 One-electron energy                 -919.27953815
 Two-electron energy                  350.83362008
 Virial quotient                       -1.00176656
 !RHF STATE 1.1 Dipole moment          -0.00324668    -0.00651855     0.00000485
 Dipole moment /Debye                  -0.00825168    -0.01656742     0.00001232

 Orbital energies:

         1.1          2.1          3.1          4.1          5.1          6.1          7.1          8.1          9.1         10.1
    -20.540955   -20.540683   -15.589874   -15.588958   -11.369025   -11.367722    -1.389659    -1.384373    -1.218569    -1.212298

        11.1         12.1         13.1         14.1         15.1         16.1         17.1         18.1         19.1         20.1
     -0.860879    -0.835692    -0.749845    -0.740789    -0.705829    -0.645012    -0.619258    -0.593665    -0.573817    -0.565661

        21.1         22.1         23.1         24.1         25.1         26.1
     -0.454334    -0.429052    -0.420389    -0.409813     0.068009     0.068827


 **********************************************************************************************************************************
 DATASETS  * FILE   NREC   LENGTH (MB)   RECORD NAMES
              1      19      647.80       500      610      700      900      950      970     1000      129      960     1100   
                                          VAR    BASINP    GEOM    SYMINP    ZMAT    AOBASIS   BASIS     P2S    ABASIS      S 
                                         1400     1410     1200     1210     1080     1600     1650     1300     1700   
                                           T        V       H0       H01     AOSYM     SMH    MOLCAS    ERIS     OPER   

              2       3        1.03       700     1000     2100   
                                         GEOM     BASIS     RHF  

 PROGRAMS   *        TOTAL       RHF       INT
 CPU TIMES  *        22.73     16.94      5.75
 REAL TIME  *        25.75 SEC
 DISK USED  *         2.57 GB      
 GA USED    *         0.00 MB       (max)       0.00 MB       (current)
 **********************************************************************************************************************************


1PROGRAM * CCSD (Closed-shell coupled cluster)     Authors: C. Hampel, H.-J. Werner, 1991, M. Deegan, P.J. Knowles, 1992


 Convergence thresholds:  THRVAR = 1.00D-08  THRDEN = 1.00D-12

 CCSD(T)     terms to be evaluated (factor= 1.000)


 Number of core orbitals:           6 (   6 )
 Number of closed-shell orbitals:  18 (  18 )
 Number of external orbitals:     144 ( 144 )

 Molecular orbitals read from record     2100.2  Type=RHF/CANONICAL (state 1.1)

 Number of N-1 electron functions:              18
 Number of N-2 electron functions:             171
 Number of singly external CSFs:              2592
 Number of doubly external CSFs:           3360528
 Total number of CSFs:                     3363121

 Length of J-op  integral file:               0.00 MB
 Length of K-op  integral file:               1.98 MB
 Length of 3-ext integral record:             0.00 MB

 Memory could be reduced to 69.94 Mwords without degradation in triples

 Integral transformation finished. Total CPU:   4.46 sec, npass=  1  Memory used:  53.82 MW

 Reference energy:                   -337.94168533

 MP2 singlet pair energy:              -0.61957398
 MP2 triplet pair energy:              -0.40481672
 MP2 correlation energy:               -1.02439070
 MP2 total energy:                   -338.96607604

 SCS-MP2 correlation energy:           -0.99537474   (PS=  1.200000  PT=  0.333333)
 SCS-MP2 total energy:               -338.93706007

 ITER.      SQ.NORM     CORR.ENERGY   TOTAL ENERGY   ENERGY CHANGE        DEN1      VAR(S)    VAR(P)  DIIS     TIME
   1      1.31869105    -1.05310211  -338.99478745    -0.02871141     0.00239150  0.10D-01  0.60D-02  1  1    18.64
   2      1.34412936    -1.05505017  -338.99673550    -0.00194806    -0.02585923  0.22D-03  0.11D-02  2  2    32.91
   3      1.35669981    -1.05594453  -338.99762986    -0.00089436    -0.00554375  0.22D-03  0.51D-04  3  3    47.19
   4      1.36189323    -1.05568127  -338.99736660     0.00026326    -0.00168527  0.21D-04  0.92D-05  4  4    61.48
   5      1.36401469    -1.05562489  -338.99731022     0.00005638    -0.00044264  0.26D-05  0.11D-05  5  5    75.79
   6      1.36452233    -1.05559552  -338.99728085     0.00002937    -0.00004741  0.24D-06  0.17D-06  6  6    90.10
   7      1.36464969    -1.05558363  -338.99726896     0.00001189    -0.00000762  0.31D-07  0.22D-07  6  2   104.41
   8      1.36467375    -1.05558349  -338.99726883     0.00000014     0.00000001  0.57D-08  0.26D-08  6  1   118.73
   9      1.36467610    -1.05558320  -338.99726853     0.00000029     0.00000184  0.92D-09  0.46D-09  6  4   133.04
  10      1.36468019    -1.05558314  -338.99726848     0.00000006    -0.00000045  0.25D-09  0.46D-10  6  3   147.36
  11      1.36468041    -1.05558322  -338.99726855    -0.00000008     0.00000016  0.38D-10  0.11D-10  6  5   161.68
  12      1.36468022    -1.05558324  -338.99726857    -0.00000002     0.00000009  0.53D-11  0.26D-11  6  6   176.01
  13      1.36467992    -1.05558328  -338.99726861    -0.00000004     0.00000013  0.80D-12  0.34D-12  6  2   190.32
  14      1.36467976    -1.05558329  -338.99726862    -0.00000001     0.00000004  0.11D-12  0.69D-13  6  1   204.64
  15      1.36467970    -1.05558329  -338.99726862    -0.00000000     0.00000001  0.23D-13  0.14D-13  6  4   218.95
  16      1.36467967    -1.05558329  -338.99726863    -0.00000000     0.00000000  0.41D-14  0.22D-14  6  3   233.25
  17      1.36467966    -1.05558329  -338.99726863    -0.00000000    -0.00000000  0.11D-14  0.37D-15  6  5   247.60
  18      1.36467966    -1.05558329  -338.99726863    -0.00000000     0.00000000  0.17D-15  0.95D-16  6  6   261.90
  19      1.36467965    -1.05558329  -338.99726863    -0.00000000     0.00000000  0.49D-16  0.18D-16  6  2   276.21
  20      1.36467965    -1.05558329  -338.99726863    -0.00000000     0.00000000  0.11D-16  0.33D-17  6  1   290.53
  21      1.36467965    -1.05558329  -338.99726863    -0.00000000     0.00000000  0.28D-17  0.10D-17  6  4   304.84
  22      1.36467965    -1.05558329  -338.99726863     0.00000000     0.00000000  0.80D-18  0.30D-18  6  3   319.15
  23      1.36467965    -1.05558329  -338.99726863     0.00000000    -0.00000000  0.23D-18  0.60D-19  6  5   333.46
  24      1.36467965    -1.05558329  -338.99726863     0.00000000    -0.00000000  0.49D-19  0.15D-19  6  6   347.80
  25      1.36467965    -1.05558329  -338.99726863     0.00000000    -0.00000000  0.87D-20  0.45D-20  6  2   362.12
  26      1.36467965    -1.05558329  -338.99726863    -0.00000000    -0.00000000  0.26D-20  0.10D-20  6  1   376.43
  27      1.36467965    -1.05558329  -338.99726863    -0.00000000     0.00000000  0.65D-21  0.23D-21  6  5   390.75

 Norm of t1 vector:      0.14795179      S-energy:     0.00000000      T1 diagnostic:  0.01743629
                                                                       D1 diagnostic:  0.05908086


 Total CPU time for triples:    260.47 sec


 RESULTS
 =======

  Reference energy                   -337.941685334265
  CCSD singlet pair energy             -0.696703343034
  CCSD triplet pair energy             -0.358879949102
  CCSD correlation energy              -1.055583292135

  Triples (T) contribution             -0.039272240113
  Total correlation energy             -1.094855532249

  CCSD total energy                  -338.997268626400
  CCSD[T] energy                     -339.039734502391
  CCSD-T energy                      -339.035444676626
 !CCSD(T) total energy               -339.036540866514

 Timing summary (sec):

 STEP                 CPU(USER)    SYS     CPU(TOT)    WALL
 Transformation          4.63      0.39      5.02      5.02
 CCSD iterations       386.12      6.02    392.14    392.34
 Triples               260.47      4.31    264.78    264.81

 Program statistics:

 Available memory in ccsd:               999998604
 Min. memory needed in ccsd:               8471140
 Max. memory used in ccsd:                11533156
 Max. memory used in cckext:              10081612 (27 integral passes)



 **********************************************************************************************************************************
 DATASETS  * FILE   NREC   LENGTH (MB)   RECORD NAMES
              1      20      923.00       500      610      700      900      950      970     1000      129      960     1100   
                                          VAR    BASINP    GEOM    SYMINP    ZMAT    AOBASIS   BASIS     P2S    ABASIS      S 
                                         1400     1410     1200     1210     1080     1600     1650     1300     1700     1380   
                                           T        V       H0       H01     AOSYM     SMH    MOLCAS    ERIS     OPER     JKOP   

              2       3        1.03       700     1000     2100   
                                         GEOM     BASIS     RHF  

 PROGRAMS   *        TOTAL   CCSD(T)       RHF       INT
 CPU TIMES  *       673.97    651.24     16.94      5.75
 REAL TIME  *       688.00 SEC
 DISK USED  *         2.57 GB      
 GA USED    *         0.00 MB       (max)       0.00 MB       (current)
 **********************************************************************************************************************************

        CCSD(T)         RHF-SCF 
   -339.03654087   -337.94168533
 **********************************************************************************************************************************
 Variable memory released
