
    -----------------------------------------------------------------------
          Psi4: An Open-Source Ab Initio Electronic Structure Package
                               Psi4 1.4a2.dev629 

                         Git: Rev {master} 2938fc2 dirty


    D. G. A. Smith, L. A. Burns, A. C. Simmonett, R. M. Parrish,
    M. C. Schieber, R. Galvelis, P. Kraus, H. Kruse, R. Di Remigio,
    A. Alenaizan, A. M. James, S. Lehtola, J. P. Misiewicz, M. Scheurer,
    R. A. Shaw, J. B. Schriber, Y. Xie, Z. L. Glick, D. A. Sirianni,
    J. S. O'Brien, J. M. Waldrop, A. Kumar, E. G. Hohenstein,
    B. P. Pritchard, B. R. Brooks, H. F. Schaefer III, A. Yu. Sokolov,
    K. Patkowski, A. E. DePrince III, U. Bozkaya, R. A. King,
    F. A. Evangelista, J. M. Turney, T. D. Crawford, C. D. Sherrill,
    J. Chem. Phys. 152(18) 184108 (2020). https://doi.org/10.1063/5.0006002

                            Additional Code Authors
    E. T. Seidl, C. L. Janssen, E. F. Valeev, M. L. Leininger,
    J. F. Gonthier, R. M. Richard, H. R. McAlexander, M. Saitow, X. Wang,
    P. Verma, and M. H. Lechner

             Previous Authors, Complete List of Code Contributors,
                       and Citations for Specific Modules
    https://github.com/psi4/psi4/blob/master/codemeta.json
    https://github.com/psi4/psi4/graphs/contributors
    http://psicode.org/psi4manual/master/introduction.html#citing-psifour

    -----------------------------------------------------------------------


    Psi4 started on: Sunday, 31 October 2021 03:22PM

    Process ID: 6122
    Host:       n059
    PSIDATADIR: /opt/psi/4/master/share/psi4
    Memory:     500.0 MiB
    Threads:    1
    
  ==> Input File <==

--------------------------------------------------------------------------
import os
memory 14 GB 
 
molecule {
 C   -0.0000000000    0.0000000000   -2.4519566658
 H    0.0000000000   -1.7883431344   -3.4457638273
 H    0.0000000000    1.7883431344   -3.4457638273
 X    1.0000000000    0.0000000000    0.0391615400
 C    0.0000000000   -0.0000000000    0.0436821616
 X    0.0000000000    1.0000000000    0.0391615400
 O   -0.0000000000   -0.0000000000    2.2463687187
units bohr
}

basis {

assign 6-31g_2dfp_

[ 6-31g_2dfp_ ]
spherical

!----------------------------------------------------------------------
! Basis Set Exchange
! Version v0.8.13
! https://www.basissetexchange.org
!----------------------------------------------------------------------
!   Basis set: 6-31G(2df,p)
! Description: 6-31G(2df,p)
!        Role: orbital
!     Version: 0  (Data from the original Basis Set Exchange)
!----------------------------------------------------------------------


****
H     0
S    3   1.00
     18.7311370              0.03349460
      2.8253937              0.23472695
      0.6401217              0.81375733
S    1   1.00
      0.1612778              1.00000000
P    1   1.00
      1.5000000              1.0000000
P    1   1.00
      0.3750000              1.0000000
****
C     0
S    6   1.00
   3047.5249000              0.0018347
    457.3695100              0.0140373
    103.9486900              0.0688426
     29.2101550              0.2321844
      9.2866630              0.4679413
      3.1639270              0.3623120
SP   3   1.00
      7.8682724             -0.1193324              0.0689991
      1.8812885             -0.1608542              0.3164240
      0.5442493              1.1434564              0.7443083
SP   1   1.00
      0.1687144              1.0000000              1.0000000
D    1   1.00
      1.2520000              1.0000000
D    1   1.00
      0.3130000              1.0000000
F    1   1.00
      0.8000000              1.0000000
****
O     0
S    6   1.00
   5484.6717000              0.0018311
    825.2349500              0.0139501
    188.0469600              0.0684451
     52.9645000              0.2327143
     16.8975700              0.4701930
      5.7996353              0.3585209
SP   3   1.00
     15.5396160             -0.1107775              0.0708743
      3.5999336             -0.1480263              0.3397528
      1.0137618              1.1307670              0.7271586
SP   1   1.00
      0.2700058              1.0000000              1.0000000
D    1   1.00
      2.5840000              1.0000000
D    1   1.00
      0.6460000              1.0000000
F    1   1.00
      1.4000000              1.0000000
****
}


set {
opt_type min                            
reference rhf                          
freeze_core true
e_convergence 10                       
d_convergence 10                      
ensure_bt_convergence true           
dft_spherical_points 590
dft_radial_points 99
}

e = energy('b3lyp')

print_out('Grab this energy {0}'.format(e))
--------------------------------------------------------------------------

  Memory set to  13.039 GiB by Python driver.

Scratch directory: /tmp/

*** tstart() called on n059
*** at Sun Oct 31 15:22:02 2021

   => Loading Basis Set <=

    Name: ANONYMOUS9AF32EBD
    Role: ORBITAL
    Keyword: BASIS
    atoms 1, 4 entry C          line    27 inputblock 6-31g_2dfp_ 
    atoms 2-3  entry H          line    15 inputblock 6-31g_2dfp_ 
    atoms 5    entry O          line    48 inputblock 6-31g_2dfp_ 


         ---------------------------------------------------------
                                   SCF
               by Justin Turney, Rob Parrish, Andy Simmonett
                          and Daniel G. A. Smith
                              RKS Reference
                        1 Threads,  13351 MiB Core
         ---------------------------------------------------------

  ==> Geometry <==

    Molecular point group: c2v
    Full point group: C2v

    Geometry (in Bohr), charge = 0, multiplicity = 1:

       Center              X                  Y                   Z               Mass       
    ------------   -----------------  -----------------  -----------------  -----------------
         C            0.000000000000     0.000000000000    -2.453997288898    12.000000000000
         H            0.000000000000    -1.788343134400    -3.447804450398     1.007825032230
         H           -0.000000000000     1.788343134400    -3.447804450398     1.007825032230
         C            0.000000000000     0.000000000000     0.041641538502    12.000000000000
         O            0.000000000000     0.000000000000     2.244328095602    15.994914619570

  Running in c2v symmetry.

  Rotational constants: A =      9.33851  B =      0.34047  C =      0.32849 [cm^-1]
  Rotational constants: A = 279961.35933  B =  10207.04371  C =   9847.99793 [MHz]
  Nuclear repulsion =   58.320125244721652

  Charge       = 0
  Multiplicity = 1
  Electrons    = 22
  Nalpha       = 11
  Nbeta        = 11

  ==> Algorithm <==

  SCF Algorithm Type is DF.
  DIIS enabled.
  MOM disabled.
  Fractional occupation disabled.
  Guess Type is SAD.
  Energy threshold   = 1.00e-10
  Density threshold  = 1.00e-10
  Integral threshold = 0.00e+00

  ==> Primary Basis <==

  Basis Set: ANONYMOUS9AF32EBD
    Blend: 6-31G_2DFP_
    Number of shells: 32
    Number of basis function: 94
    Number of Cartesian functions: 109
    Spherical Harmonics?: true
    Max angular momentum: 3

  ==> DFT Potential <==

   => Composite Functional: B3LYP <= 

    B3LYP Hyb-GGA Exchange-Correlation Functional

    P. J. Stephens, F. J. Devlin, C. F. Chabalowski, and M. J. Frisch, J. Phys. Chem. 98, 11623 (1994)

    Deriv               =              1
    GGA                 =           TRUE
    Meta                =          FALSE

    Exchange Hybrid     =           TRUE
    MP2 Hybrid          =          FALSE

   => Exchange Functionals <=

    0.0800   Slater exchange
    0.7200         Becke 88

   => Exact (HF) Exchange <=

    0.2000               HF 

   => Correlation Functionals <=

    0.1900   Vosko, Wilk & Nusair (VWN5_RPA)
    0.8100   Lee, Yang & Parr

   => Molecular Quadrature <=

    Radial Scheme          =       TREUTLER
    Pruning Scheme         =           NONE
    Nuclear Scheme         =       TREUTLER

    BS radius alpha        =              1
    Pruning alpha          =              1
    Radial Points          =             99
    Spherical Points       =            590
    Total Points           =         276162
    Total Blocks           =           2084
    Max Points             =            256
    Max Functions          =             94
    Weights Tolerance      =       1.00E-15

   => Loading Basis Set <=

    Name: (ANONYMOUS9AF32EBD AUX)
    Role: JKFIT
    Keyword: DF_BASIS_SCF
    atoms 1, 4 entry C          line   198 file /opt/psi/4/master/share/psi4/basis/def2-universal-jkfit.gbs 
    atoms 2-3  entry H          line    18 file /opt/psi/4/master/share/psi4/basis/def2-universal-jkfit.gbs 
    atoms 5    entry O          line   318 file /opt/psi/4/master/share/psi4/basis/def2-universal-jkfit.gbs 

  ==> Integral Setup <==

  DFHelper Memory: AOs need 0.020 GiB; user supplied 9.135 GiB. Using in-core AOs.

  ==> MemDFJK: Density-Fitted J/K Matrices <==

    J tasked:                   Yes
    K tasked:                   Yes
    wK tasked:                   No
    OpenMP threads:               1
    Memory [MiB]:              9354
    Algorithm:                 Core
    Schwarz Cutoff:           1E-12
    Mask sparsity (%):       0.8828
    Fitting Condition:        1E-10

   => Auxiliary Basis Set <=

  Basis Set: (ANONYMOUS9AF32EBD AUX)
    Blend: DEF2-UNIVERSAL-JKFIT
    Number of shells: 87
    Number of basis function: 263
    Number of Cartesian functions: 311
    Spherical Harmonics?: true
    Max angular momentum: 4

  Cached 100.0% of DFT collocation blocks in 0.644 [GiB].

  Minimum eigenvalue in the overlap matrix is 9.6525237374E-04.
  Reciprocal condition number of the overlap matrix is 2.1841119793E-04.
    Using symmetric orthogonalization.

  ==> Pre-Iterations <==

  SCF Guess: Superposition of Atomic Densities via on-the-fly atomic UHF (no occupation information).

   -------------------------
    Irrep   Nso     Nmo    
   -------------------------
     A1        39      39 
     A2        11      11 
     B1        20      20 
     B2        24      24 
   -------------------------
    Total      94      94
   -------------------------

  ==> Iterations <==

                           Total Energy        Delta E     RMS |[F,P]|

   @DF-RKS iter SAD:  -152.12338289224172   -1.52123e+02   0.00000e+00 
   @DF-RKS iter   1:  -152.43805355820965   -3.14671e-01   1.18789e-02 DIIS
   @DF-RKS iter   2:  -152.38744636960936    5.06072e-02   1.35145e-02 DIIS
   @DF-RKS iter   3:  -152.59993781945877   -2.12491e-01   2.86368e-03 DIIS
   @DF-RKS iter   4:  -152.60873317771987   -8.79536e-03   7.53923e-04 DIIS
   @DF-RKS iter   5:  -152.60916663031253   -4.33453e-04   4.18957e-04 DIIS
   @DF-RKS iter   6:  -152.60939730655608   -2.30676e-04   1.21819e-05 DIIS
   @DF-RKS iter   7:  -152.60939751137656   -2.04820e-07   3.23147e-06 DIIS
   @DF-RKS iter   8:  -152.60939752722444   -1.58479e-08   4.46741e-07 DIIS
   @DF-RKS iter   9:  -152.60939752745483   -2.30386e-10   8.00995e-08 DIIS
   @DF-RKS iter  10:  -152.60939752746458   -9.74865e-12   1.00157e-08 DIIS
   @DF-RKS iter  11:  -152.60939752746464   -5.68434e-14   9.18410e-10 DIIS
   @DF-RKS iter  12:  -152.60939752746444    1.98952e-13   1.00178e-10 DIIS
   @DF-RKS iter  13:  -152.60939752746449   -5.68434e-14   1.58588e-11 DIIS
  Energy and wave function converged.


  ==> Post-Iterations <==

    Orbital Energies [Eh]
    ---------------------

    Doubly Occupied:                                                      

       1A1   -19.213978     2A1   -10.305569     3A1   -10.187887  
       4A1    -1.112788     5A1    -0.771437     6A1    -0.537235  
       7A1    -0.483333     1B2    -0.482830     1B1    -0.446997  
       2B2    -0.404341     2B1    -0.240276  

    Virtual:                                                              

       3B2    -0.033494     3B1     0.063403     8A1     0.094710  
       4B2     0.181969     9A1     0.193447    10A1     0.287705  
      11A1     0.436208     5B2     0.472468    12A1     0.478924  
       4B1     0.481827     1A2     0.493107     5B1     0.559102  
       6B2     0.577430    13A1     0.596015     7B2     0.670553  
      14A1     0.679531     2A2     0.698680    15A1     0.772154  
       6B1     0.782654     8B2     0.871573    16A1     0.884842  
       7B1     0.939732     9B2     0.979779     8B1     1.001429  
      17A1     1.038350    18A1     1.096546     3A2     1.153154  
      10B2     1.242817     9B1     1.340534    19A1     1.421915  
      11B2     1.502186    20A1     1.550362    21A1     1.594861  
       4A2     1.609374    22A1     1.697177    23A1     1.925351  
      12B2     1.962561    10B1     2.154001    24A1     2.280213  
      13B2     2.346491    11B1     2.695838    25A1     2.700271  
      14B2     2.729023     5A2     2.729940    12B1     2.734146  
      15B2     2.808503    16B2     2.913397    26A1     2.962446  
      13B1     3.047270    27A1     3.075018     6A2     3.090598  
      14B1     3.113618     7A2     3.207848    28A1     3.236447  
      29A1     3.316516    17B2     3.319623    18B2     3.513133  
       8A2     3.604310    30A1     3.677814    15B1     3.749674  
      31A1     3.875981    19B2     4.039562    16B1     4.062729  
      32A1     4.137064     9A2     4.226808    17B1     4.277046  
      33A1     4.436638    20B2     4.769715    34A1     4.784947  
      21B2     5.017384    18B1     5.019029    22B2     5.150944  
      35A1     5.210071    10A2     5.498069    36A1     5.550632  
      19B1     5.992690    23B2     6.004894    37A1     6.371754  
      11A2     6.749399    38A1     6.752367    20B1     7.121263  
      24B2     7.195637    39A1     7.570805  

    Final Occupation by Irrep:
             A1    A2    B1    B2 
    DOCC [     7,    0,    2,    2 ]

  @DF-RKS Final Energy:  -152.60939752746449

   => Energetics <=

    Nuclear Repulsion Energy =             58.3201252447216518
    One-Electron Energy =                -321.7834267957249494
    Two-Electron Energy =                 127.1314108517077131
    DFT Exchange-Correlation Energy =     -16.2775068281689457
    Empirical Dispersion Energy =           0.0000000000000000
    VV10 Nonlocal Energy =                  0.0000000000000000
    Total Energy =                       -152.6093975274645231

Computation Completed


Properties will be evaluated at   0.000000,   0.000000,   0.000000 [a0]

Properties computed using the SCF density matrix

  Nuclear Dipole Moment: [e a0]
     X:     0.0000      Y:     0.0000      Z:    -3.4151

  Electronic Dipole Moment: [e a0]
     X:     0.0000      Y:     0.0000      Z:     2.8604

  Dipole Moment: [e a0]
     X:     0.0000      Y:     0.0000      Z:    -0.5547     Total:     0.5547

  Dipole Moment: [D]
     X:     0.0000      Y:     0.0000      Z:    -1.4100     Total:     1.4100


*** tstop() called on n059 at Sun Oct 31 15:22:15 2021
Module time:
	user time   =      12.20 seconds =       0.20 minutes
	system time =       0.21 seconds =       0.00 minutes
	total time  =         13 seconds =       0.22 minutes
Total time:
	user time   =      12.20 seconds =       0.20 minutes
	system time =       0.21 seconds =       0.00 minutes
	total time  =         13 seconds =       0.22 minutes
Grab this energy -152.6093975274645
    Psi4 stopped on: Sunday, 31 October 2021 03:22PM
    Psi4 wall time for execution: 0:00:12.44

*** Psi4 exiting successfully. Buy a developer a beer!
