
    -----------------------------------------------------------------------
          Psi4: An Open-Source Ab Initio Electronic Structure Package
                               Psi4 1.4a2.dev629 

                         Git: Rev {master} 2938fc2 dirty


    D. G. A. Smith, L. A. Burns, A. C. Simmonett, R. M. Parrish,
    M. C. Schieber, R. Galvelis, P. Kraus, H. Kruse, R. Di Remigio,
    A. Alenaizan, A. M. James, S. Lehtola, J. P. Misiewicz, M. Scheurer,
    R. A. Shaw, J. B. Schriber, Y. Xie, Z. L. Glick, D. A. Sirianni,
    J. S. O'Brien, J. M. Waldrop, A. Kumar, E. G. Hohenstein,
    B. P. Pritchard, B. R. Brooks, H. F. Schaefer III, A. Yu. Sokolov,
    K. Patkowski, A. E. DePrince III, U. Bozkaya, R. A. King,
    F. A. Evangelista, J. M. Turney, T. D. Crawford, C. D. Sherrill,
    J. Chem. Phys. 152(18) 184108 (2020). https://doi.org/10.1063/5.0006002

                            Additional Code Authors
    E. T. Seidl, C. L. Janssen, E. F. Valeev, M. L. Leininger,
    J. F. Gonthier, R. M. Richard, H. R. McAlexander, M. Saitow, X. Wang,
    P. Verma, and M. H. Lechner

             Previous Authors, Complete List of Code Contributors,
                       and Citations for Specific Modules
    https://github.com/psi4/psi4/blob/master/codemeta.json
    https://github.com/psi4/psi4/graphs/contributors
    http://psicode.org/psi4manual/master/introduction.html#citing-psifour

    -----------------------------------------------------------------------


    Psi4 started on: Sunday, 31 October 2021 03:22PM

    Process ID: 19381
    Host:       n087
    PSIDATADIR: /opt/psi/4/master/share/psi4
    Memory:     500.0 MiB
    Threads:    1
    
  ==> Input File <==

--------------------------------------------------------------------------
import os
memory 14 GB 
 
molecule {
 C    0.0000000000    0.0007297549   -2.4489068019
 H   -0.0000000000   -1.7759316824   -3.4432477305
 H   -0.0000000000    1.7708676297   -3.4376275405
 X    1.0000000000    0.0000000000    0.0391615400
 C   -0.0000000000    0.0069681407    0.0376040530
 X    0.0000000000    1.0000000000    0.0391615400
 O    0.0000000000   -0.0026338429    2.2387445800
units bohr
}

basis {

assign 6-31g_2dfp_

[ 6-31g_2dfp_ ]
spherical

!----------------------------------------------------------------------
! Basis Set Exchange
! Version v0.8.13
! https://www.basissetexchange.org
!----------------------------------------------------------------------
!   Basis set: 6-31G(2df,p)
! Description: 6-31G(2df,p)
!        Role: orbital
!     Version: 0  (Data from the original Basis Set Exchange)
!----------------------------------------------------------------------


****
H     0
S    3   1.00
     18.7311370              0.03349460
      2.8253937              0.23472695
      0.6401217              0.81375733
S    1   1.00
      0.1612778              1.00000000
P    1   1.00
      1.5000000              1.0000000
P    1   1.00
      0.3750000              1.0000000
****
C     0
S    6   1.00
   3047.5249000              0.0018347
    457.3695100              0.0140373
    103.9486900              0.0688426
     29.2101550              0.2321844
      9.2866630              0.4679413
      3.1639270              0.3623120
SP   3   1.00
      7.8682724             -0.1193324              0.0689991
      1.8812885             -0.1608542              0.3164240
      0.5442493              1.1434564              0.7443083
SP   1   1.00
      0.1687144              1.0000000              1.0000000
D    1   1.00
      1.2520000              1.0000000
D    1   1.00
      0.3130000              1.0000000
F    1   1.00
      0.8000000              1.0000000
****
O     0
S    6   1.00
   5484.6717000              0.0018311
    825.2349500              0.0139501
    188.0469600              0.0684451
     52.9645000              0.2327143
     16.8975700              0.4701930
      5.7996353              0.3585209
SP   3   1.00
     15.5396160             -0.1107775              0.0708743
      3.5999336             -0.1480263              0.3397528
      1.0137618              1.1307670              0.7271586
SP   1   1.00
      0.2700058              1.0000000              1.0000000
D    1   1.00
      2.5840000              1.0000000
D    1   1.00
      0.6460000              1.0000000
F    1   1.00
      1.4000000              1.0000000
****
}


set {
opt_type min                            
reference rhf                          
freeze_core true
e_convergence 10                       
d_convergence 10                      
ensure_bt_convergence true           
dft_spherical_points 590
dft_radial_points 99
}

e = energy('b3lyp')

print_out('Grab this energy {0}'.format(e))
--------------------------------------------------------------------------

  Memory set to  13.039 GiB by Python driver.

Scratch directory: /tmp/

*** tstart() called on n087
*** at Sun Oct 31 15:22:17 2021

   => Loading Basis Set <=

    Name: ANONYMOUSCFD13ACE
    Role: ORBITAL
    Keyword: BASIS
    atoms 1, 4 entry C          line    27 inputblock 6-31g_2dfp_ 
    atoms 2-3  entry H          line    15 inputblock 6-31g_2dfp_ 
    atoms 5    entry O          line    48 inputblock 6-31g_2dfp_ 


         ---------------------------------------------------------
                                   SCF
               by Justin Turney, Rob Parrish, Andy Simmonett
                          and Daniel G. A. Smith
                              RKS Reference
                        1 Threads,  13351 MiB Core
         ---------------------------------------------------------

  ==> Geometry <==

    Molecular point group: cs
    Full point group: Cs

    Geometry (in Bohr), charge = 0, multiplicity = 1:

       Center              X                  Y                   Z               Mass       
    ------------   -----------------  -----------------  -----------------  -----------------
         C            0.000344807562     2.447435197866     0.000000000000    12.000000000000
         H            1.777006244862     3.441776126466     0.000000000000     1.007825032230
         H           -1.769793067238     3.436155936466     0.000000000000     1.007825032230
         C           -0.005893578238    -0.039075657034     0.000000000000    12.000000000000
         O            0.003708405362    -2.240216184034     0.000000000000    15.994914619570

  Running in cs symmetry.

  Rotational constants: A =      9.49562  B =      0.34203  C =      0.33014 [cm^-1]
  Rotational constants: A = 284671.47598  B =  10253.78694  C =   9897.28934 [MHz]
  Nuclear repulsion =   58.475534075938526

  Charge       = 0
  Multiplicity = 1
  Electrons    = 22
  Nalpha       = 11
  Nbeta        = 11

  ==> Algorithm <==

  SCF Algorithm Type is DF.
  DIIS enabled.
  MOM disabled.
  Fractional occupation disabled.
  Guess Type is SAD.
  Energy threshold   = 1.00e-10
  Density threshold  = 1.00e-10
  Integral threshold = 0.00e+00

  ==> Primary Basis <==

  Basis Set: ANONYMOUSCFD13ACE
    Blend: 6-31G_2DFP_
    Number of shells: 32
    Number of basis function: 94
    Number of Cartesian functions: 109
    Spherical Harmonics?: true
    Max angular momentum: 3

  ==> DFT Potential <==

   => Composite Functional: B3LYP <= 

    B3LYP Hyb-GGA Exchange-Correlation Functional

    P. J. Stephens, F. J. Devlin, C. F. Chabalowski, and M. J. Frisch, J. Phys. Chem. 98, 11623 (1994)

    Deriv               =              1
    GGA                 =           TRUE
    Meta                =          FALSE

    Exchange Hybrid     =           TRUE
    MP2 Hybrid          =          FALSE

   => Exchange Functionals <=

    0.0800   Slater exchange
    0.7200         Becke 88

   => Exact (HF) Exchange <=

    0.2000               HF 

   => Correlation Functionals <=

    0.1900   Vosko, Wilk & Nusair (VWN5_RPA)
    0.8100   Lee, Yang & Parr

   => Molecular Quadrature <=

    Radial Scheme          =       TREUTLER
    Pruning Scheme         =           NONE
    Nuclear Scheme         =       TREUTLER

    BS radius alpha        =              1
    Pruning alpha          =              1
    Radial Points          =             99
    Spherical Points       =            590
    Total Points           =         276121
    Total Blocks           =           2096
    Max Points             =            256
    Max Functions          =             94
    Weights Tolerance      =       1.00E-15

   => Loading Basis Set <=

    Name: (ANONYMOUSCFD13ACE AUX)
    Role: JKFIT
    Keyword: DF_BASIS_SCF
    atoms 1, 4 entry C          line   198 file /opt/psi/4/master/share/psi4/basis/def2-universal-jkfit.gbs 
    atoms 2-3  entry H          line    18 file /opt/psi/4/master/share/psi4/basis/def2-universal-jkfit.gbs 
    atoms 5    entry O          line   318 file /opt/psi/4/master/share/psi4/basis/def2-universal-jkfit.gbs 

  ==> Integral Setup <==

  DFHelper Memory: AOs need 0.020 GiB; user supplied 9.137 GiB. Using in-core AOs.

  ==> MemDFJK: Density-Fitted J/K Matrices <==

    J tasked:                   Yes
    K tasked:                   Yes
    wK tasked:                   No
    OpenMP threads:               1
    Memory [MiB]:              9355
    Algorithm:                 Core
    Schwarz Cutoff:           1E-12
    Mask sparsity (%):       0.8828
    Fitting Condition:        1E-10

   => Auxiliary Basis Set <=

  Basis Set: (ANONYMOUSCFD13ACE AUX)
    Blend: DEF2-UNIVERSAL-JKFIT
    Number of shells: 87
    Number of basis function: 263
    Number of Cartesian functions: 311
    Spherical Harmonics?: true
    Max angular momentum: 4

  Cached 100.0% of DFT collocation blocks in 0.642 [GiB].

  Minimum eigenvalue in the overlap matrix is 9.5206456774E-04.
  Reciprocal condition number of the overlap matrix is 2.0110768579E-04.
    Using symmetric orthogonalization.

  ==> Pre-Iterations <==

  SCF Guess: Superposition of Atomic Densities via on-the-fly atomic UHF (no occupation information).

   -------------------------
    Irrep   Nso     Nmo    
   -------------------------
     A'        63      63 
     A"        31      31 
   -------------------------
    Total      94      94
   -------------------------

  ==> Iterations <==

                           Total Energy        Delta E     RMS |[F,P]|

   @DF-RKS iter SAD:  -152.13407315689264   -1.52134e+02   0.00000e+00 
   @DF-RKS iter   1:  -152.43658465709137   -3.02512e-01   8.69745e-03 DIIS
   @DF-RKS iter   2:  -152.38908512555145    4.74995e-02   9.80355e-03 DIIS
   @DF-RKS iter   3:  -152.60030158566741   -2.11216e-01   2.05175e-03 DIIS
   @DF-RKS iter   4:  -152.60883834446159   -8.53676e-03   5.38185e-04 DIIS
   @DF-RKS iter   5:  -152.60923598003279   -3.97636e-04   3.10278e-04 DIIS
   @DF-RKS iter   6:  -152.60947190801738   -2.35928e-04   8.61414e-06 DIIS
   @DF-RKS iter   7:  -152.60947209520626   -1.87189e-07   2.32362e-06 DIIS
   @DF-RKS iter   8:  -152.60947211053423   -1.53280e-08   3.31585e-07 DIIS
   @DF-RKS iter   9:  -152.60947211077479   -2.40561e-10   5.98830e-08 DIIS
   @DF-RKS iter  10:  -152.60947211078468   -9.89075e-12   1.01855e-08 DIIS
   @DF-RKS iter  11:  -152.60947211078496   -2.84217e-13   2.51378e-09 DIIS
   @DF-RKS iter  12:  -152.60947211078479    1.70530e-13   3.18557e-10 DIIS
   @DF-RKS iter  13:  -152.60947211078494   -1.42109e-13   2.66143e-11 DIIS
  Energy and wave function converged.


  ==> Post-Iterations <==

    Orbital Energies [Eh]
    ---------------------

    Doubly Occupied:                                                      

       1Ap   -19.213506     2Ap   -10.304725     3Ap   -10.185814  
       4Ap    -1.112927     5Ap    -0.773271     6Ap    -0.537889  
       7Ap    -0.484434     8Ap    -0.484057     1App   -0.447235  
       9Ap    -0.404654     2App   -0.240734  

    Virtual:                                                              

      10Ap    -0.032756     3App    0.064675    11Ap     0.096571  
      12Ap     0.183152    13Ap     0.195155    14Ap     0.287745  
      15Ap     0.437977    16Ap     0.472480    17Ap     0.479518  
       4App    0.481098     5App    0.493664     6App    0.558440  
      18Ap     0.579863    19Ap     0.598058    20Ap     0.670993  
      21Ap     0.681507     7App    0.700149    22Ap     0.773104  
       8App    0.783996    23Ap     0.873071    24Ap     0.884367  
       9App    0.940341    25Ap     0.982639    10App    1.005722  
      26Ap     1.043094    27Ap     1.099942    11App    1.154807  
      28Ap     1.244556    12App    1.342889    29Ap     1.423988  
      30Ap     1.508608    31Ap     1.555219    32Ap     1.604599  
      13App    1.611313    33Ap     1.699764    34Ap     1.930517  
      35Ap     1.972866    14App    2.155008    36Ap     2.284811  
      37Ap     2.349146    15App    2.695534    38Ap     2.706511  
      39Ap     2.727938    16App    2.732055    17App    2.734423  
      40Ap     2.808971    41Ap     2.907345    42Ap     2.966424  
      18App    3.048282    43Ap     3.075661    19App    3.084797  
      20App    3.109852    21App    3.206762    44Ap     3.238652  
      45Ap     3.321177    46Ap     3.325407    47Ap     3.516875  
      22App    3.611931    48Ap     3.685105    23App    3.754763  
      49Ap     3.891992    50Ap     4.046008    24App    4.067254  
      51Ap     4.147197    25App    4.243736    26App    4.287886  
      52Ap     4.431997    53Ap     4.792381    54Ap     4.802065  
      55Ap     5.018154    27App    5.019457    56Ap     5.173585  
      57Ap     5.222053    28App    5.502135    58Ap     5.555444  
      29App    5.994266    59Ap     6.008222    60Ap     6.379781  
      30App    6.750070    61Ap     6.753075    31App    7.122046  
      62Ap     7.195547    63Ap     7.571873  

    Final Occupation by Irrep:
             Ap   App 
    DOCC [     9,    2 ]

  @DF-RKS Final Energy:  -152.60947211078494

   => Energetics <=

    Nuclear Repulsion Energy =             58.4755340759385263
    One-Electron Energy =                -322.0839543584362445
    Two-Electron Energy =                 127.2840820306614376
    DFT Exchange-Correlation Energy =     -16.2851338589486438
    Empirical Dispersion Energy =           0.0000000000000000
    VV10 Nonlocal Energy =                  0.0000000000000000
    Total Energy =                       -152.6094721107849352

Computation Completed


Properties will be evaluated at   0.000000,   0.000000,   0.000000 [a0]

Properties computed using the SCF density matrix

  Nuclear Dipole Moment: [e a0]
     X:     0.0036      Y:     3.4064      Z:     0.0000

  Electronic Dipole Moment: [e a0]
     X:    -0.0055      Y:    -2.8491      Z:     0.0000

  Dipole Moment: [e a0]
     X:    -0.0020      Y:     0.5573      Z:     0.0000     Total:     0.5573

  Dipole Moment: [D]
     X:    -0.0050      Y:     1.4164      Z:     0.0000     Total:     1.4164


*** tstop() called on n087 at Sun Oct 31 15:22:27 2021
Module time:
	user time   =      10.34 seconds =       0.17 minutes
	system time =       0.21 seconds =       0.00 minutes
	total time  =         10 seconds =       0.17 minutes
Total time:
	user time   =      10.34 seconds =       0.17 minutes
	system time =       0.21 seconds =       0.00 minutes
	total time  =         10 seconds =       0.17 minutes
Grab this energy -152.60947211078494
    Psi4 stopped on: Sunday, 31 October 2021 03:22PM
    Psi4 wall time for execution: 0:00:10.58

*** Psi4 exiting successfully. Buy a developer a beer!
