
 Primary working directories    : /tmp/943168.286.gen6.q
 Secondary working directories  : /tmp/943168.286.gen6.q
 Wavefunction directory         : /home/vulcan/mel64643/wfu/
 Main file repository           : /tmp/943168.286.gen6.q/

 ARCHNAME  : Linux/x86_64
 FC        : /opt/intel/compilers_and_libraries_2016.1.150/linux/bin/intel64/ifort
 FCVERSION : 16.0.1
 BLASLIB   : -mkl
 id        : ccgc

 Nodes     nprocs
 n076         1
 ga_uses_ma=false, calling ma_init with nominal heap.
 GA-space will be limited to   8.0 MW (determined by -G option)

 Using customized tuning parameters: mindgm=10; mindgv=16; mindgc=4; mindgr=1; noblas=0; mincuda=1000; minvec=7
 default implementation of scratch files=df  

 ***,Optimization of h2o_2
 memory,1000,m
 gthresh,energy=1.0d-12,orbital=1.0d-10,oneint=1.0d-16,twoint=1.0d-16,optgrad=1.0d-6,compress=1.0d-13
 geomtyp=xyz
 
 bohr
 geometry = {
  C   -0.0014752434   -3.4224211143    0.0008814671
  H   -0.9777897408   -2.7238952316   -1.6730143680
  H   -0.9730141013   -2.7513367068    1.6887243570
  H    1.9360061005   -2.7229858141    0.0038385207
  H    0.0088498324   -5.4821383457   -0.0159464284
  C    0.0005436949    3.4210758186   -0.0025329668
  H   -0.0030343558    5.4858538632   -0.0137947647
  H    0.9722168306    2.7255919902   -1.6742493206
  H    0.9722097761    2.7405797964    1.6875763647
  H   -1.9345127932    2.7296757440   -0.0014828610
 }
 
 basis=AVDZ
 {rhf;maxit,200}
 {ccsd(t);maxit,200}

 Variables initialized (661), CPU time= 0.01 sec
 Commands  initialized (458), CPU time= 0.00 sec, 486 directives.
 Default parameters read. Elapsed time= 0.05 sec

 Checking input...
 Passed
1


                                         ***  PROGRAM SYSTEM MOLPRO  ***
                         Copyright, University College Cardiff Consultants Limited, 2008

                                    Version 2010.1 linked May 16 2016 07:17:05


 **********************************************************************************************************************************
 LABEL *   Optimization of h2o_2                                                         
 Linux-4.4.3/n076(x86_64) 64 bit mpp version                                             DATE: 23-Oct-23          TIME: 11:00:49  
 **********************************************************************************************************************************

 SHA1:             9e8077add272b0f3cad6f7df79ec5211205f459d
 **********************************************************************************************************************************

 THRESHOLDS:

 ZERO    =  1.00D-12  ONEINT  =  1.00D-16  TWOINT  =  1.00D-16  PREFAC  =  1.00D-14  LOCALI  =  1.00D-09  EORDER  =  1.00D-04
 ENERGY  =  1.00D-12  ETEST   =  0.00D+00  EDENS   =  0.00D+00  THRDEDEF=  1.00D-06  GRADIENT=  1.00D-02  STEP    =  1.00D-03
 ORBITAL =  1.00D-10  CIVEC   =  1.00D-05  COEFF   =  1.00D-04  PRINTCI =  5.00D-02  PUNCHCI =  9.90D+01  OPTGRAD =  1.00D-06
 OPTENERG=  1.00D-06  OPTSTEP =  3.00D-04  THRGRAD =  1.00D-10  COMPRESS=  1.00D-13  VARMIN  =  1.00D-07  VARMAX  =  1.00D-03
 THRDOUB =  0.00D+00  THRDIV  =  1.00D-05  THRRED  =  1.00D-07  THRPSP  =  1.00D+00  THRDC   =  1.00D-10  THRCS   =  1.00D-10
 THRNRM  =  1.00D-08  THREQ   =  0.00D+00  THRDE   =  1.00D+00  THRREF  =  1.00D-05  SPARFAC =  1.00D+00  THRDLP  =  1.00D-07
 THRDIA  =  1.00D-10  THRDLS  =  1.00D-07  THRGPS  =  0.00D+00  THRKEX  =  0.00D+00  THRDIS  =  2.00D-01  THRVAR  =  1.00D-10
 THRLOC  =  1.00D-06  THRGAP  =  1.00D-06  THRLOCT = -1.00D+00  THRGAPT = -1.00D+00  THRORB  =  1.00D-06  THRMLTP =  0.00D+00
 THRCPQCI=  1.00D-10  KEXTA   =  0.00D+00  THRCOARS=  0.00D+00  SYMTOL  =  1.00D-06  GRADTOL =  1.00D-06  THROVL  =  1.00D-08
 THRORTH =  1.00D-08  GRID    =  1.00D-06  GRIDMAX =  1.00D-03  DTMAX   =  0.00D+00

 SETTING GEOMTYP        =    XYZ
 ZUNIT=BOHR
 

 Variable memory set to 1000000000 words,  buffer space   230000 words

 SETTING BASIS          =    AVDZ


 Recomputing integrals since basis changed


 Using spherical harmonics

 Library entry C      S aug-cc-pVDZ          selected for orbital group  1
 Library entry C      P aug-cc-pVDZ          selected for orbital group  1
 Library entry C      D aug-cc-pVDZ          selected for orbital group  1
 Library entry H      S aug-cc-pVDZ          selected for orbital group  2
 Library entry H      P aug-cc-pVDZ          selected for orbital group  2

1PROGRAM * SEWARD (Integral evaluation for generally contracted gaussian basis sets)     Author: Roland Lindh, 1990

 Geometry written to block  1 of record 700


 Point group  C1  



 ATOMIC COORDINATES

 NR  ATOM    CHARGE       X              Y              Z

   1  C       6.00   -0.001475243   -3.422421114    0.000881467
   2  H       1.00   -0.977789741   -2.723895232   -1.673014368
   3  H       1.00   -0.973014101   -2.751336707    1.688724357
   4  H       1.00    1.936006100   -2.722985814    0.003838521
   5  H       1.00    0.008849832   -5.482138346   -0.015946428
   6  C       6.00    0.000543695    3.421075819   -0.002532967
   7  H       1.00   -0.003034356    5.485853863   -0.013794765
   8  H       1.00    0.972216831    2.725591990   -1.674249321
   9  H       1.00    0.972209776    2.740579796    1.687576365
  10  H       1.00   -1.934512793    2.729675744   -0.001482861

 Bond lengths in Bohr (Angstrom)

 1-2  2.059867878  1-3  2.059867873  1-4  2.059867093  1-5  2.059811850  6-7  2.064811857
     ( 1.090035134)     ( 1.090035132)     ( 1.090034719)     ( 1.090005486)     ( 1.092651375)

  6- 8  2.054867880   6- 9  2.064867880   6-10  2.054867095
       ( 1.087389250)       ( 1.092681022)       ( 1.087388834)

 Bond angles

  2-1-3  109.37992571   2-1-4  109.37980995   2-1-5  109.56240826   3-1-4  109.37980974

  3-1-5  109.56240830   4-1-5  109.56250035   7-6-8  109.56240825   7-6-9  109.56240830

  7- 6-10  109.56250040   8- 6- 9  109.37992582   8- 6-10  109.37980971   9- 6-10  109.37980982

 NUCLEAR CHARGE:                   20
 NUMBER OF PRIMITIVE AOS:         162
 NUMBER OF SYMMETRY AOS:          158
 NUMBER OF CONTRACTIONS:          118   ( 118A   )
 NUMBER OF CORE ORBITALS:           2   (   2A   )
 NUMBER OF VALENCE ORBITALS:       16   (  16A   )


 NUCLEAR REPULSION ENERGY   41.34136281


 Eigenvalues of metric

         1 0.370E-03 0.569E-03 0.573E-03 0.613E-03 0.726E-03 0.730E-03 0.780E-03 0.101E-02


 Contracted 2-electron integrals neglected if value below      1.0D-16
 AO integral compression algorithm  1   Integral accuracy      1.0D-16

     213.910 MB (compressed) written to integral file ( 93.4%)

     Node minimum: 213.910 MB, node maximum: 213.910 MB


 NUMBER OF SORTED TWO-ELECTRON INTEGRALS:   24650731.     BUFFER LENGTH:  32768
 NUMBER OF SEGMENTS:   2  SEGMENT LENGTH:   15997996      RECORD LENGTH: 524288

 Memory used in sort:      16.56 MW

 SORT1 READ    28594353. AND WROTE    24462867. INTEGRALS IN     71 RECORDS. CPU TIME:     0.24 SEC, REAL TIME:     0.38 SEC
 SORT2 READ    24462867. AND WROTE    24650731. INTEGRALS IN    816 RECORDS. CPU TIME:     0.21 SEC, REAL TIME:     0.30 SEC

 FILE SIZES:   FILE 1:   190.4 MBYTE,  FILE 4:   297.8 MBYTE,   TOTAL:    488.2 MBYTE

 OPERATOR DM      FOR CENTER  0  COORDINATES:    0.000000    0.000000    0.000000


 **********************************************************************************************************************************
 DATASETS  * FILE   NREC   LENGTH (MB)   RECORD NAMES
              1      19      190.59       500      610      700      900      950      970     1000      129      960     1100   
                                          VAR    BASINP    GEOM    SYMINP    ZMAT    AOBASIS   BASIS     P2S    ABASIS      S 
                                         1400     1410     1200     1210     1080     1600     1650     1300     1700   
                                           T        V       H0       H01     AOSYM     SMH    MOLCAS    ERIS     OPER   

 PROGRAMS   *        TOTAL       INT
 CPU TIMES  *         1.35      1.31
 REAL TIME  *         1.87 SEC
 DISK USED  *       702.94 MB      
 GA USED    *         0.00 MB       (max)       0.00 MB       (current)
 **********************************************************************************************************************************

1PROGRAM * RHF-SCF (CLOSED SHELL)       Authors: W. Meyer, H.-J. Werner


 NUMBER OF ELECTRONS:      10+   10-    SPACE SYMMETRY=1    SPIN SYMMETRY: Singlet 
 CONVERGENCE THRESHOLDS:    1.00E-10 (Density)    1.00E-13 (Energy)
 MAX. NUMBER OF ITERATIONS:      200
 INTERPOLATION TYPE:            DIIS
 INTERPOLATION STEPS:              2 (START)      1 (STEP)
 LEVEL SHIFTS:                  0.00 (CLOSED)  0.00 (OPEN) 



 Orbital guess generated from atomic densities. Full valence occupancy:   18

 Molecular orbital dump at record        2100.2

 ITERATION    DDIFF          GRAD             ENERGY        2-EL.EN.            DIPOLE MOMENTS         DIIS
    1      0.000D+00      0.000D+00       -80.36232055    134.793044    0.00117    0.00165    0.00211    0
    2      0.000D+00      0.368D-02       -80.39421264    132.487515   -0.00069   -0.00085   -0.00094    1
    3      0.809D-02      0.137D-02       -80.39818723    133.314969   -0.00059   -0.00093   -0.00090    2
    4      0.256D-02      0.371D-03       -80.39877415    133.184149   -0.00075   -0.00125   -0.00122    3
    5      0.868D-03      0.458D-04       -80.39878287    133.191035   -0.00078   -0.00130   -0.00128    4
    6      0.875D-04      0.295D-05       -80.39878292    133.190874   -0.00077   -0.00130   -0.00128    5
    7      0.107D-04      0.225D-06       -80.39878292    133.190855   -0.00078   -0.00130   -0.00128    5
    8      0.155D-05      0.358D-07       -80.39878292    133.190855   -0.00078   -0.00130   -0.00128    4
    9      0.289D-06      0.610D-08       -80.39878292    133.190856   -0.00078   -0.00130   -0.00128    4
   10      0.222D-07      0.129D-08       -80.39878292    133.190856   -0.00078   -0.00130   -0.00128    5
   11      0.322D-08      0.265D-09       -80.39878292    133.190856   -0.00078   -0.00130   -0.00128    5
   12      0.126D-08      0.848D-10       -80.39878292    133.190856   -0.00078   -0.00130   -0.00128    6
   13      0.272D-09      0.196D-10       -80.39878292    133.190856   -0.00078   -0.00130   -0.00128    6
   14      0.541D-10      0.439D-11       -80.39878292    133.190856   -0.00078   -0.00130   -0.00128    6
   15      0.173D-10      0.379D-12       -80.39878292    133.190856   -0.00078   -0.00130   -0.00128    6
   16      0.286D-11      0.100D-12       -80.39878292    133.190856   -0.00078   -0.00130   -0.00128    6
   17      0.144D-11      0.467D-13       -80.39878292    133.190856   -0.00078   -0.00130   -0.00128    6
   18      0.901D-12      0.385D-13       -80.39878292    133.190856   -0.00078   -0.00130   -0.00128    7
   19      0.469D-12      0.425D-13       -80.39878292    133.190856   -0.00078   -0.00130   -0.00128    0

 Final occupancy:  10

 !RHF STATE 1.1 Energy                -80.398782922954
 Nuclear energy                        41.34136281
 One-electron energy                 -188.33557362
 Two-electron energy                   66.59542788
 Virial quotient                       -1.00196182
 !RHF STATE 1.1 Dipole moment          -0.00077623    -0.00130393    -0.00127839
 Dipole moment /Debye                  -0.00197285    -0.00331403    -0.00324913

 Orbital energies:

         1.1          2.1          3.1          4.1          5.1          6.1          7.1          8.1          9.1         10.1
    -11.214670   -11.214646    -0.945596    -0.939623    -0.550640    -0.546989    -0.546393    -0.539491    -0.538920    -0.535392

        11.1         12.1
      0.035477     0.045887


 **********************************************************************************************************************************
 DATASETS  * FILE   NREC   LENGTH (MB)   RECORD NAMES
              1      19      190.59       500      610      700      900      950      970     1000      129      960     1100   
                                          VAR    BASINP    GEOM    SYMINP    ZMAT    AOBASIS   BASIS     P2S    ABASIS      S 
                                         1400     1410     1200     1210     1080     1600     1650     1300     1700   
                                           T        V       H0       H01     AOSYM     SMH    MOLCAS    ERIS     OPER   

              2       3        0.70       700     1000     2100   
                                         GEOM     BASIS     RHF  

 PROGRAMS   *        TOTAL       RHF       INT
 CPU TIMES  *         4.16      2.81      1.31
 REAL TIME  *         5.08 SEC
 DISK USED  *       702.94 MB      
 GA USED    *         0.00 MB       (max)       0.00 MB       (current)
 **********************************************************************************************************************************


1PROGRAM * CCSD (Closed-shell coupled cluster)     Authors: C. Hampel, H.-J. Werner, 1991, M. Deegan, P.J. Knowles, 1992


 Convergence thresholds:  THRVAR = 1.00D-08  THRDEN = 1.00D-12

 CCSD(T)     terms to be evaluated (factor= 1.000)


 Number of core orbitals:           2 (   2 )
 Number of closed-shell orbitals:   8 (   8 )
 Number of external orbitals:     108 ( 108 )

 Molecular orbitals read from record     2100.2  Type=RHF/CANONICAL (state 1.1)

 Number of N-1 electron functions:               8
 Number of N-2 electron functions:              36
 Number of singly external CSFs:               864
 Number of doubly external CSFs:            373680
 Total number of CSFs:                      374545

 Length of J-op  integral file:               0.00 MB
 Length of K-op  integral file:               1.00 MB
 Length of 3-ext integral record:             0.00 MB

 Memory could be reduced to 14.62 Mwords without degradation in triples

 Integral transformation finished. Total CPU:   0.55 sec, npass=  1  Memory used:   8.61 MW

 Reference energy:                    -80.39878292

 MP2 singlet pair energy:              -0.24106627
 MP2 triplet pair energy:              -0.09675928
 MP2 correlation energy:               -0.33782555
 MP2 total energy:                    -80.73660847

 SCS-MP2 correlation energy:           -0.34948530   (PS=  1.200000  PT=  0.333333)
 SCS-MP2 total energy:                -80.74826822

 ITER.      SQ.NORM     CORR.ENERGY   TOTAL ENERGY   ENERGY CHANGE        DEN1      VAR(S)    VAR(P)  DIIS     TIME
   1      1.14044004    -0.38147734   -80.78026027    -0.04365180    -0.03251897  0.70D-03  0.24D-02  1  1     1.26
   2      1.15349025    -0.38423304   -80.78301596    -0.00275570    -0.01269486  0.16D-04  0.11D-03  2  2     2.01
   3      1.15560281    -0.38436581   -80.78314873    -0.00013277    -0.00113039  0.25D-05  0.71D-05  3  3     2.76
   4      1.15604983    -0.38438397   -80.78316689    -0.00001816    -0.00017661  0.10D-06  0.45D-06  4  4     3.52
   5      1.15612082    -0.38438066   -80.78316359     0.00000331    -0.00003209  0.39D-08  0.31D-07  5  5     4.28
   6      1.15612471    -0.38437966   -80.78316258     0.00000101    -0.00000142  0.28D-09  0.20D-08  6  6     5.05
   7      1.15612510    -0.38437988   -80.78316280    -0.00000022    -0.00000002  0.24D-10  0.13D-09  6  1     5.81
   8      1.15612517    -0.38437989   -80.78316282    -0.00000002    -0.00000007  0.24D-11  0.96D-11  6  2     6.56
   9      1.15612511    -0.38437990   -80.78316282    -0.00000000     0.00000003  0.45D-12  0.75D-12  6  3     7.32
  10      1.15612507    -0.38437990   -80.78316282    -0.00000000     0.00000002  0.36D-13  0.66D-13  6  4     8.08
  11      1.15612504    -0.38437990   -80.78316282    -0.00000000     0.00000002  0.33D-14  0.72D-14  6  5     8.84
  12      1.15612503    -0.38437990   -80.78316282    -0.00000000     0.00000001  0.28D-15  0.86D-15  6  6     9.59
  13      1.15612503    -0.38437990   -80.78316282    -0.00000000     0.00000000  0.23D-16  0.10D-15  6  1    10.36
  14      1.15612503    -0.38437990   -80.78316282    -0.00000000     0.00000000  0.26D-17  0.11D-16  6  3    11.11
  15      1.15612503    -0.38437990   -80.78316282    -0.00000000     0.00000000  0.20D-18  0.61D-18  6  2    11.87
  16      1.15612503    -0.38437990   -80.78316282    -0.00000000     0.00000000  0.27D-19  0.47D-19  6  4    12.63
  17      1.15612503    -0.38437990   -80.78316282    -0.00000000     0.00000000  0.33D-20  0.59D-20  6  5    13.39
  18      1.15612503    -0.38437990   -80.78316282    -0.00000000     0.00000000  0.38D-21  0.50D-21  6  6    14.14

 Norm of t1 vector:      0.03916594      S-energy:     0.00000000      T1 diagnostic:  0.00692363
                                                                       D1 diagnostic:  0.01253834


 Total CPU time for triples:      8.71 sec


 RESULTS
 =======

  Reference energy                    -80.398782922954
  CCSD singlet pair energy             -0.290157774528
  CCSD triplet pair energy             -0.094222126471
  CCSD correlation energy              -0.384379900999

  Triples (T) contribution             -0.009219653221
  Total correlation energy             -0.393599554220

  CCSD total energy                   -80.783162823953
  CCSD[T] energy                      -80.792603413980
  CCSD-T energy                       -80.792265245247
 !CCSD(T) total energy                -80.792382477174

 Timing summary (sec):

 STEP                 CPU(USER)    SYS     CPU(TOT)    WALL
 Transformation          0.56      0.08      0.64      0.64
 CCSD iterations        13.58      0.65     14.23     14.28
 Triples                 8.71      0.18      8.89      8.89

 Program statistics:

 Available memory in ccsd:               999999644
 Min. memory needed in ccsd:               1156281
 Max. memory used in ccsd:                 1468601
 Max. memory used in cckext:               1135046 (18 integral passes)



 **********************************************************************************************************************************
 DATASETS  * FILE   NREC   LENGTH (MB)   RECORD NAMES
              1      20      237.56       500      610      700      900      950      970     1000      129      960     1100   
                                          VAR    BASINP    GEOM    SYMINP    ZMAT    AOBASIS   BASIS     P2S    ABASIS      S 
                                         1400     1410     1200     1210     1080     1600     1650     1300     1700     1380   
                                           T        V       H0       H01     AOSYM     SMH    MOLCAS    ERIS     OPER     JKOP   

              2       3        0.70       700     1000     2100   
                                         GEOM     BASIS     RHF  

 PROGRAMS   *        TOTAL   CCSD(T)       RHF       INT
 CPU TIMES  *        27.03     22.86      2.81      1.31
 REAL TIME  *        28.92 SEC
 DISK USED  *       702.94 MB      
 GA USED    *         0.00 MB       (max)       0.00 MB       (current)
 **********************************************************************************************************************************

        CCSD(T)         RHF-SCF 
    -80.79238248    -80.39878292
 **********************************************************************************************************************************
 Variable memory released
