
 Primary working directories    : /tmp/943186.221.gen4.q
 Secondary working directories  : /tmp/943186.221.gen4.q
 Wavefunction directory         : /home/vulcan/mel64643/wfu/
 Main file repository           : /tmp/943186.221.gen4.q/

 ARCHNAME  : Linux/x86_64
 FC        : /opt/intel/compilers_and_libraries_2016.1.150/linux/bin/intel64/ifort
 FCVERSION : 16.0.1
 BLASLIB   : -mkl
 id        : ccgc

 Nodes     nprocs
 n026         1
 ga_uses_ma=false, calling ma_init with nominal heap.
 GA-space will be limited to   8.0 MW (determined by -G option)

 Using customized tuning parameters: mindgm=10; mindgv=16; mindgc=4; mindgr=1; noblas=0; mincuda=1000; minvec=7
 default implementation of scratch files=df  

 ***,Optimization of h2o_2
 memory,1000,m
 gthresh,energy=1.0d-12,orbital=1.0d-10,oneint=1.0d-16,twoint=1.0d-16,optgrad=1.0d-6,compress=1.0d-13
 geomtyp=xyz
 
 bohr
 geometry = {
  C   -0.0015089900   -3.4217508067   -0.0011282445
  H   -0.9767484208   -2.7313706316   -1.6790254260
  H   -0.9670645512   -2.7324796392    1.6828145696
  H    1.9395289672   -2.7322616296   -0.0064920066
  H   -0.0017510327   -5.4815625385   -0.0018070401
  C    0.0014958208    3.4217462467    0.0011206401
  H   -0.0128006593    5.4764938784   -0.0065956457
  H    0.9792455534    2.7342123655   -1.6703411822
  H    0.9695189836    2.7467388226    1.6833150800
  H   -1.9299156710    2.7202339324   -0.0018607446
 }
 
 basis=VDZ
 {rhf;maxit,200}
 {ccsd(t);maxit,200}

 Variables initialized (661), CPU time= 0.00 sec
 Commands  initialized (458), CPU time= 0.00 sec, 486 directives.
 Default parameters read. Elapsed time= 0.06 sec

 Checking input...
 Passed
1


                                         ***  PROGRAM SYSTEM MOLPRO  ***
                         Copyright, University College Cardiff Consultants Limited, 2008

                                    Version 2010.1 linked May 16 2016 07:17:05


 **********************************************************************************************************************************
 LABEL *   Optimization of h2o_2                                                         
 Linux-4.4.3/n026(x86_64) 64 bit mpp version                                             DATE: 23-Oct-23          TIME: 12:35:49  
 **********************************************************************************************************************************

 SHA1:             9e8077add272b0f3cad6f7df79ec5211205f459d
 **********************************************************************************************************************************

 THRESHOLDS:

 ZERO    =  1.00D-12  ONEINT  =  1.00D-16  TWOINT  =  1.00D-16  PREFAC  =  1.00D-14  LOCALI  =  1.00D-09  EORDER  =  1.00D-04
 ENERGY  =  1.00D-12  ETEST   =  0.00D+00  EDENS   =  0.00D+00  THRDEDEF=  1.00D-06  GRADIENT=  1.00D-02  STEP    =  1.00D-03
 ORBITAL =  1.00D-10  CIVEC   =  1.00D-05  COEFF   =  1.00D-04  PRINTCI =  5.00D-02  PUNCHCI =  9.90D+01  OPTGRAD =  1.00D-06
 OPTENERG=  1.00D-06  OPTSTEP =  3.00D-04  THRGRAD =  1.00D-10  COMPRESS=  1.00D-13  VARMIN  =  1.00D-07  VARMAX  =  1.00D-03
 THRDOUB =  0.00D+00  THRDIV  =  1.00D-05  THRRED  =  1.00D-07  THRPSP  =  1.00D+00  THRDC   =  1.00D-10  THRCS   =  1.00D-10
 THRNRM  =  1.00D-08  THREQ   =  0.00D+00  THRDE   =  1.00D+00  THRREF  =  1.00D-05  SPARFAC =  1.00D+00  THRDLP  =  1.00D-07
 THRDIA  =  1.00D-10  THRDLS  =  1.00D-07  THRGPS  =  0.00D+00  THRKEX  =  0.00D+00  THRDIS  =  2.00D-01  THRVAR  =  1.00D-10
 THRLOC  =  1.00D-06  THRGAP  =  1.00D-06  THRLOCT = -1.00D+00  THRGAPT = -1.00D+00  THRORB  =  1.00D-06  THRMLTP =  0.00D+00
 THRCPQCI=  1.00D-10  KEXTA   =  0.00D+00  THRCOARS=  0.00D+00  SYMTOL  =  1.00D-06  GRADTOL =  1.00D-06  THROVL  =  1.00D-08
 THRORTH =  1.00D-08  GRID    =  1.00D-06  GRIDMAX =  1.00D-03  DTMAX   =  0.00D+00

 SETTING GEOMTYP        =    XYZ
 ZUNIT=BOHR
 

 Variable memory set to 1000000000 words,  buffer space   230000 words

 SETTING BASIS          =    VDZ


 Recomputing integrals since basis changed


 Using spherical harmonics

 Library entry C      S cc-pVDZ              selected for orbital group  1
 Library entry C      P cc-pVDZ              selected for orbital group  1
 Library entry C      D cc-pVDZ              selected for orbital group  1
 Library entry H      S cc-pVDZ              selected for orbital group  2
 Library entry H      P cc-pVDZ              selected for orbital group  2

1PROGRAM * SEWARD (Integral evaluation for generally contracted gaussian basis sets)     Author: Roland Lindh, 1990

 Geometry written to block  1 of record 700


 Point group  C1  



 ATOMIC COORDINATES

 NR  ATOM    CHARGE       X              Y              Z

   1  C       6.00   -0.001508990   -3.421750807   -0.001128244
   2  H       1.00   -0.976748421   -2.731370632   -1.679025426
   3  H       1.00   -0.967064551   -2.732479639    1.682814570
   4  H       1.00    1.939528967   -2.732261630   -0.006492007
   5  H       1.00   -0.001751033   -5.481562539   -0.001807040
   6  C       6.00    0.001495821    3.421746247    0.001120640
   7  H       1.00   -0.012800659    5.476493878   -0.006595646
   8  H       1.00    0.979245553    2.734212365   -1.670341182
   9  H       1.00    0.969518984    2.746738823    1.683315080
  10  H       1.00   -1.929915671    2.720233932   -0.001860745

 Bond lengths in Bohr (Angstrom)

 1-2  2.059867881  1-3  2.059867881  1-4  2.059867094  1-5  2.059811858  6-7  2.054811855
     ( 1.090035136)     ( 1.090035136)     ( 1.090034720)     ( 1.090005490)     ( 1.087359603)

  6- 8  2.054867879   6- 9  2.054867879   6-10  2.054867092
       ( 1.087389249)       ( 1.087389249)       ( 1.087388833)

 Bond angles

  2-1-3  109.37992579   2-1-4  109.37980975   2-1-5  109.56240831   3-1-4  109.37980975

  3-1-5  109.56240830   4-1-5  109.56250041   7-6-8  109.56240825   7-6-9  109.56240834

  7- 6-10  109.56250041   8- 6- 9  109.37992585   8- 6-10  109.37980977   9- 6-10  109.37980969

 NUCLEAR CHARGE:                   20
 NUMBER OF PRIMITIVE AOS:         110
 NUMBER OF SYMMETRY AOS:          108
 NUMBER OF CONTRACTIONS:           68   (  68A   )
 NUMBER OF CORE ORBITALS:           2   (   2A   )
 NUMBER OF VALENCE ORBITALS:       16   (  16A   )


 NUCLEAR REPULSION ENERGY   41.37513483


 Eigenvalues of metric

         1 0.113E-01 0.126E-01 0.347E-01 0.347E-01 0.354E-01 0.373E-01 0.382E-01 0.382E-01


 Contracted 2-electron integrals neglected if value below      1.0D-16
 AO integral compression algorithm  1   Integral accuracy      1.0D-16

     21.758 MB (compressed) written to integral file ( 87.5%)

     Node minimum: 21.758 MB, node maximum: 21.758 MB


 NUMBER OF SORTED TWO-ELECTRON INTEGRALS:    2753031.     BUFFER LENGTH:  32768
 NUMBER OF SEGMENTS:   1  SEGMENT LENGTH:    2753031      RECORD LENGTH: 524288

 Memory used in sort:       3.31 MW

 SORT1 READ     3104305. AND WROTE     2687800. INTEGRALS IN      8 RECORDS. CPU TIME:     0.03 SEC, REAL TIME:     0.05 SEC
 SORT2 READ     2687800. AND WROTE     2753031. INTEGRALS IN     83 RECORDS. CPU TIME:     0.05 SEC, REAL TIME:     0.06 SEC

 FILE SIZES:   FILE 1:    21.6 MBYTE,  FILE 4:    33.6 MBYTE,   TOTAL:     55.2 MBYTE

 OPERATOR DM      FOR CENTER  0  COORDINATES:    0.000000    0.000000    0.000000


 **********************************************************************************************************************************
 DATASETS  * FILE   NREC   LENGTH (MB)   RECORD NAMES
              1      19       21.65       500      610      700      900      950      970     1000      129      960     1100   
                                          VAR    BASINP    GEOM    SYMINP    ZMAT    AOBASIS   BASIS     P2S    ABASIS      S 
                                         1400     1410     1200     1210     1080     1600     1650     1300     1700   
                                           T        V       H0       H01     AOSYM     SMH    MOLCAS    ERIS     OPER   

 PROGRAMS   *        TOTAL       INT
 CPU TIMES  *         0.63      0.57
 REAL TIME  *         0.84 SEC
 DISK USED  *        77.71 MB      
 GA USED    *         0.00 MB       (max)       0.00 MB       (current)
 **********************************************************************************************************************************

1PROGRAM * RHF-SCF (CLOSED SHELL)       Authors: W. Meyer, H.-J. Werner


 NUMBER OF ELECTRONS:      10+   10-    SPACE SYMMETRY=1    SPIN SYMMETRY: Singlet 
 CONVERGENCE THRESHOLDS:    1.00E-10 (Density)    1.00E-13 (Energy)
 MAX. NUMBER OF ITERATIONS:      200
 INTERPOLATION TYPE:            DIIS
 INTERPOLATION STEPS:              2 (START)      1 (STEP)
 LEVEL SHIFTS:                  0.00 (CLOSED)  0.00 (OPEN) 



 Orbital guess generated from atomic densities. Full valence occupancy:   18

 Molecular orbital dump at record        2100.2

 ITERATION    DDIFF          GRAD             ENERGY        2-EL.EN.            DIPOLE MOMENTS         DIIS
    1      0.000D+00      0.000D+00       -80.35947755    134.894447    0.00004   -0.00012    0.00002    0
    2      0.000D+00      0.639D-02       -80.39226123    132.606705    0.00006   -0.00004    0.00004    1
    3      0.132D-01      0.234D-02       -80.39613421    133.409370    0.00002   -0.00003    0.00001    2
    4      0.461D-02      0.630D-03       -80.39666339    133.272993    0.00001   -0.00003    0.00000    3
    5      0.165D-02      0.664D-04       -80.39666791    133.279002    0.00000   -0.00002    0.00000    4
    6      0.233D-03      0.397D-05       -80.39666793    133.278862    0.00000   -0.00003    0.00000    5
    7      0.205D-04      0.467D-06       -80.39666793    133.278861    0.00000   -0.00003    0.00000    5
    8      0.118D-05      0.163D-06       -80.39666793    133.278860    0.00000   -0.00003    0.00000    5
    9      0.314D-06      0.197D-07       -80.39666793    133.278861    0.00000   -0.00003    0.00000    5
   10      0.595D-07      0.467D-08       -80.39666793    133.278862    0.00000   -0.00003    0.00000    5
   11      0.168D-07      0.654D-09       -80.39666793    133.278861    0.00000   -0.00003    0.00000    6
   12      0.187D-08      0.137D-09       -80.39666793    133.278861    0.00000   -0.00003    0.00000    6
   13      0.371D-09      0.417D-10       -80.39666793    133.278861    0.00000   -0.00003    0.00000    6
   14      0.932D-10      0.943D-11       -80.39666793    133.278861    0.00000   -0.00003    0.00000    0

 Final occupancy:  10

 !RHF STATE 1.1 Energy                -80.396667927753
 Nuclear energy                        41.37513483
 One-electron energy                 -188.41123349
 Two-electron energy                   66.63943074
 Virial quotient                       -1.00211275
 !RHF STATE 1.1 Dipole moment           0.00000108    -0.00002619     0.00000074
 Dipole moment /Debye                   0.00000274    -0.00006657     0.00000188

 Orbital energies:

         1.1          2.1          3.1          4.1          5.1          6.1          7.1          8.1          9.1         10.1
    -11.215313   -11.214082    -0.944859    -0.938904    -0.550028    -0.545718    -0.545676    -0.538392    -0.538349    -0.534865

        11.1         12.1
      0.172606     0.229425


 **********************************************************************************************************************************
 DATASETS  * FILE   NREC   LENGTH (MB)   RECORD NAMES
              1      19       21.65       500      610      700      900      950      970     1000      129      960     1100   
                                          VAR    BASINP    GEOM    SYMINP    ZMAT    AOBASIS   BASIS     P2S    ABASIS      S 
                                         1400     1410     1200     1210     1080     1600     1650     1300     1700   
                                           T        V       H0       H01     AOSYM     SMH    MOLCAS    ERIS     OPER   

              2       3        0.51       700     1000     2100   
                                         GEOM     BASIS     RHF  

 PROGRAMS   *        TOTAL       RHF       INT
 CPU TIMES  *         0.95      0.32      0.57
 REAL TIME  *         1.22 SEC
 DISK USED  *        77.71 MB      
 GA USED    *         0.00 MB       (max)       0.00 MB       (current)
 **********************************************************************************************************************************


1PROGRAM * CCSD (Closed-shell coupled cluster)     Authors: C. Hampel, H.-J. Werner, 1991, M. Deegan, P.J. Knowles, 1992


 Convergence thresholds:  THRVAR = 1.00D-08  THRDEN = 1.00D-12

 CCSD(T)     terms to be evaluated (factor= 1.000)


 Number of core orbitals:           2 (   2 )
 Number of closed-shell orbitals:   8 (   8 )
 Number of external orbitals:      58 (  58 )

 Molecular orbitals read from record     2100.2  Type=RHF/CANONICAL (state 1.1)

 Number of N-1 electron functions:               8
 Number of N-2 electron functions:              36
 Number of singly external CSFs:               464
 Number of doubly external CSFs:            107880
 Total number of CSFs:                      108345

 Length of J-op  integral file:               0.00 MB
 Length of K-op  integral file:               0.35 MB
 Length of 3-ext integral record:             0.00 MB

 Memory could be reduced to 2.66 Mwords without degradation in triples

 Integral transformation finished. Total CPU:   0.10 sec, npass=  1  Memory used:   1.86 MW

 Reference energy:                    -80.39666793

 MP2 singlet pair energy:              -0.23195066
 MP2 triplet pair energy:              -0.09155105
 MP2 correlation energy:               -0.32350171
 MP2 total energy:                    -80.72016964

 SCS-MP2 correlation energy:           -0.33530589   (PS=  1.200000  PT=  0.333333)
 SCS-MP2 total energy:                -80.73197382

 ITER.      SQ.NORM     CORR.ENERGY   TOTAL ENERGY   ENERGY CHANGE        DEN1      VAR(S)    VAR(P)  DIIS     TIME
   1      1.13401187    -0.36737374   -80.76404166    -0.04387202    -0.03296915  0.50D-03  0.24D-02  1  1     0.28
   2      1.14657434    -0.37016096   -80.76682889    -0.00278722    -0.01274010  0.15D-04  0.96D-04  2  2     0.48
   3      1.14835245    -0.37033028   -80.76699821    -0.00016933    -0.00094848  0.17D-05  0.55D-05  3  3     0.67
   4      1.14871728    -0.37035051   -80.76701844    -0.00002023    -0.00016488  0.25D-07  0.35D-06  4  4     0.86
   5      1.14876280    -0.37034803   -80.76701596     0.00000248    -0.00002377  0.18D-08  0.18D-07  5  5     1.05
   6      1.14876407    -0.37034797   -80.76701590     0.00000006    -0.00000009  0.19D-09  0.11D-08  6  6     1.25
   7      1.14876417    -0.37034823   -80.76701616    -0.00000026     0.00000013  0.13D-10  0.70D-10  6  1     1.44
   8      1.14876434    -0.37034823   -80.76701615     0.00000001    -0.00000013  0.14D-11  0.41D-11  6  2     1.63
   9      1.14876437    -0.37034821   -80.76701614     0.00000001    -0.00000003  0.15D-12  0.25D-12  6  3     1.82
  10      1.14876436    -0.37034821   -80.76701614     0.00000000     0.00000001  0.11D-13  0.23D-13  6  4     2.02
  11      1.14876435    -0.37034821   -80.76701614    -0.00000000     0.00000001  0.78D-15  0.19D-14  6  5     2.21
  12      1.14876435    -0.37034821   -80.76701614    -0.00000000     0.00000000  0.42D-16  0.22D-15  6  6     2.40
  13      1.14876435    -0.37034821   -80.76701614    -0.00000000     0.00000000  0.33D-17  0.27D-16  6  1     2.59
  14      1.14876435    -0.37034821   -80.76701614     0.00000000     0.00000000  0.58D-18  0.36D-17  6  2     2.78
  15      1.14876435    -0.37034821   -80.76701614     0.00000000     0.00000000  0.70D-19  0.36D-18  6  3     2.98
  16      1.14876435    -0.37034821   -80.76701614    -0.00000000     0.00000000  0.15D-20  0.20D-19  6  5     3.17
  17      1.14876435    -0.37034821   -80.76701614    -0.00000000     0.00000000  0.18D-21  0.55D-21  6  4     3.37
  18      1.14876435    -0.37034821   -80.76701614     0.00000000    -0.00000000  0.43D-22  0.50D-22  6  6     3.56

 Norm of t1 vector:      0.03057293      S-energy:    -0.00000000      T1 diagnostic:  0.00540458
                                                                       D1 diagnostic:  0.00878050


 Total CPU time for triples:      1.31 sec


 RESULTS
 =======

  Reference energy                    -80.396667927753
  CCSD singlet pair energy             -0.281643436191
  CCSD triplet pair energy             -0.088704775369
  CCSD correlation energy              -0.370348211560

  Triples (T) contribution             -0.007521207274
  Total correlation energy             -0.377869418834

  CCSD total energy                   -80.767016139312
  CCSD[T] energy                      -80.774712438616
  CCSD-T energy                       -80.774443420727
 !CCSD(T) total energy                -80.774537346587

 Timing summary (sec):

 STEP                 CPU(USER)    SYS     CPU(TOT)    WALL
 Transformation          0.10      0.01      0.11      0.12
 CCSD iterations         3.46      0.15      3.61      3.62
 Triples                 1.31      0.03      1.34      1.36

 Program statistics:

 Available memory in ccsd:               999999644
 Min. memory needed in ccsd:                356281
 Max. memory used in ccsd:                  442401
 Max. memory used in cckext:                403930 (18 integral passes)



 **********************************************************************************************************************************
 DATASETS  * FILE   NREC   LENGTH (MB)   RECORD NAMES
              1      20       30.11       500      610      700      900      950      970     1000      129      960     1100   
                                          VAR    BASINP    GEOM    SYMINP    ZMAT    AOBASIS   BASIS     P2S    ABASIS      S 
                                         1400     1410     1200     1210     1080     1600     1650     1300     1700     1380   
                                           T        V       H0       H01     AOSYM     SMH    MOLCAS    ERIS     OPER     JKOP   

              2       3        0.51       700     1000     2100   
                                         GEOM     BASIS     RHF  

 PROGRAMS   *        TOTAL   CCSD(T)       RHF       INT
 CPU TIMES  *         5.83      4.88      0.32      0.57
 REAL TIME  *         6.35 SEC
 DISK USED  *        77.71 MB      
 GA USED    *         0.00 MB       (max)       0.00 MB       (current)
 **********************************************************************************************************************************

        CCSD(T)         RHF-SCF 
    -80.77453735    -80.39666793
 **********************************************************************************************************************************
 Variable memory released
