
    -----------------------------------------------------------------------
          Psi4: An Open-Source Ab Initio Electronic Structure Package
                               Psi4 1.4a2.dev629 

                         Git: Rev {master} 2938fc2 dirty


    D. G. A. Smith, L. A. Burns, A. C. Simmonett, R. M. Parrish,
    M. C. Schieber, R. Galvelis, P. Kraus, H. Kruse, R. Di Remigio,
    A. Alenaizan, A. M. James, S. Lehtola, J. P. Misiewicz, M. Scheurer,
    R. A. Shaw, J. B. Schriber, Y. Xie, Z. L. Glick, D. A. Sirianni,
    J. S. O'Brien, J. M. Waldrop, A. Kumar, E. G. Hohenstein,
    B. P. Pritchard, B. R. Brooks, H. F. Schaefer III, A. Yu. Sokolov,
    K. Patkowski, A. E. DePrince III, U. Bozkaya, R. A. King,
    F. A. Evangelista, J. M. Turney, T. D. Crawford, C. D. Sherrill,
    J. Chem. Phys. 152(18) 184108 (2020). https://doi.org/10.1063/5.0006002

                            Additional Code Authors
    E. T. Seidl, C. L. Janssen, E. F. Valeev, M. L. Leininger,
    J. F. Gonthier, R. M. Richard, H. R. McAlexander, M. Saitow, X. Wang,
    P. Verma, and M. H. Lechner

             Previous Authors, Complete List of Code Contributors,
                       and Citations for Specific Modules
    https://github.com/psi4/psi4/blob/master/codemeta.json
    https://github.com/psi4/psi4/graphs/contributors
    http://psicode.org/psi4manual/master/introduction.html#citing-psifour

    -----------------------------------------------------------------------


    Psi4 started on: Wednesday, 05 January 2022 03:23PM

    Process ID: 16790
    Host:       n054
    PSIDATADIR: /opt/psi/4/master/share/psi4
    Memory:     500.0 MiB
    Threads:    4
    
  ==> Input File <==

--------------------------------------------------------------------------
import os
memory 14 GB 
 
molecule {
 C   -3.2439379452   -0.7096686467    0.0000627022
 C   -1.1529950901    1.2525562952   -0.0001746945
 H   -3.1191033554   -1.9064888240    1.6719921061
 H   -5.0807964135    0.2312299218   -0.0024520164
 H   -3.1153814236   -1.9109417689   -1.6713181735
 H   -1.2259652326    2.4484429688    1.6774449330
 H   -1.2244657927    2.4426367429   -1.6700430761
 Cl    1.9055685919   -0.2238159646   -0.0053895221
units bohr
}

basis {

assign 6-31g_2dfp_

[ 6-31g_2dfp_ ]

spherical

!----------------------------------------------------------------------
! Basis Set Exchange
! Version v0.8.13
! https://www.basissetexchange.org
!----------------------------------------------------------------------
!   Basis set: 6-31G(2df,p)
! Description: 6-31G(2df,p)
!        Role: orbital
!     Version: 0  (Data from the original Basis Set Exchange)
!----------------------------------------------------------------------


****
H     0
S    3   1.00
     18.7311370              0.03349460
      2.8253937              0.23472695
      0.6401217              0.81375733
S    1   1.00
      0.1612778              1.00000000
P    1   1.00
      1.5000000              1.0000000
P    1   1.00
      0.3750000              1.0000000
****
B     0
S    6   1.00
   2068.8823000              0.0018663
    310.6495700              0.0142515
     70.6830330              0.0695516
     19.8610800              0.2325729
      6.2993048              0.4670787
      2.1270270              0.3634314
SP   3   1.00
      4.7279710             -0.1303938              0.0745976
      1.1903377             -0.1307889              0.3078467
      0.3594117              1.1309444              0.7434568
SP   1   1.00
      0.1267512              1.0000000              1.0000000
D    1   1.00
      0.8020000              1.0000000
D    1   1.00
      0.2005000              1.0000000
F    1   1.00
      0.5000000              1.0000000
****
C     0
S    6   1.00
   3047.5249000              0.0018347
    457.3695100              0.0140373
    103.9486900              0.0688426
     29.2101550              0.2321844
      9.2866630              0.4679413
      3.1639270              0.3623120
SP   3   1.00
      7.8682724             -0.1193324              0.0689991
      1.8812885             -0.1608542              0.3164240
      0.5442493              1.1434564              0.7443083
SP   1   1.00
      0.1687144              1.0000000              1.0000000
D    1   1.00
      1.2520000              1.0000000
D    1   1.00
      0.3130000              1.0000000
F    1   1.00
      0.8000000              1.0000000
****
N     0
S    6   1.00
   4173.5110000              0.0018348
    627.4579000              0.0139950
    142.9021000              0.0685870
     40.2343300              0.2322410
     12.8202100              0.4690700
      4.3904370              0.3604550
SP   3   1.00
     11.6263580             -0.1149610              0.0675800
      2.7162800             -0.1691180              0.3239070
      0.7722180              1.1458520              0.7408950
SP   1   1.00
      0.2120313              1.0000000              1.0000000
D    1   1.00
      1.8260000              1.0000000
D    1   1.00
      0.4565000              1.0000000
F    1   1.00
      1.0000000              1.0000000
****
O     0
S    6   1.00
   5484.6717000              0.0018311
    825.2349500              0.0139501
    188.0469600              0.0684451
     52.9645000              0.2327143
     16.8975700              0.4701930
      5.7996353              0.3585209
SP   3   1.00
     15.5396160             -0.1107775              0.0708743
      3.5999336             -0.1480263              0.3397528
      1.0137618              1.1307670              0.7271586
SP   1   1.00
      0.2700058              1.0000000              1.0000000
D    1   1.00
      2.5840000              1.0000000
D    1   1.00
      0.6460000              1.0000000
F    1   1.00
      1.4000000              1.0000000
****
F     0
S    6   1.00
   7001.7130900              0.0018196169
   1051.3660900              0.0139160796
    239.2856900              0.0684053245
     67.3974453              0.233185760
     21.5199573              0.471267439
      7.40310130             0.356618546
SP   3   1.00
     20.8479528             -0.108506975            0.0716287243
      4.80830834            -0.146451658            0.3459121030
      1.34406986             1.128688580            0.7224699570
SP   1   1.00
      0.358151393            1.0000000              1.0000000
D    1   1.00
      3.5000000              1.0000000
D    1   1.00
      0.8750000              1.0000000
F    1   1.00
      1.8500000              1.0000000
****
Al     0
S    6   1.00
  13983.1000000              0.00194267
   2098.7500000              0.0148599
    477.7050000              0.0728494
    134.3600000              0.2468300
     42.8709000              0.4872580
     14.5189000              0.3234960
SP   6   1.00
    239.6680000             -0.00292619             0.00460285
     57.4419000             -0.0374080              0.0331990
     18.2859000             -0.1144870              0.1362820
      6.5991400              0.1156350              0.3304760
      2.4904900              0.6125950              0.4491460
      0.9445400              0.3937990              0.2657040
SP   3   1.00
      1.2779000             -0.2276060             -0.0175130
      0.3975900              0.00144583             0.2445330
      0.1600950              1.0927900              0.8049340
SP   1   1.00
      0.0556577              1.0000000              1.0000000
D    1   1.00
      0.6500000              1.0000000
D    1   1.00
      0.1625000              1.0000000
F    1   1.00
      0.2500000              1.0000000
****
Si     0
S    6   1.00
  16115.9000000              0.00195948
   2425.5800000              0.01492880
    553.8670000              0.07284780
    156.3400000              0.24613000
     50.0683000              0.48591400
     17.0178000              0.32500200
SP   6   1.00
    292.7180000             -0.00278094             0.00443826
     69.8731000             -0.03571460             0.03266790
     22.3363000             -0.11498500             0.13472100
      8.1503900              0.09356340             0.32867800
      3.1345800              0.60301700             0.44964000
      1.2254300              0.41895900             0.26137200
SP   3   1.00
      1.7273800             -0.24463000            -0.01779510
      0.5729220              0.00431572             0.25353900
      0.2221920              1.09818000             0.80066900
SP   1   1.00
      0.0778369              1.00000000             1.00000000
D    1   1.00
      0.9000000              1.0000000
D    1   1.00
      0.2250000              1.0000000
F    1   1.00
      0.3200000              1.0000000
****
P     0
S    6   1.00
  19413.3000000              0.0018516
   2909.4200000              0.0142062
    661.3640000              0.0699995
    185.7590000              0.2400790
     59.1943000              0.4847620
     20.0310000              0.3352000
SP   6   1.00
    339.4780000             -0.00278217             0.00456462
     81.0101000             -0.0360499              0.03369360
     25.8780000             -0.1166310              0.13975500
      9.4522100              0.0968328              0.33936200
      3.6656600              0.6144180              0.45092100
      1.4674600              0.4037980              0.23858600
SP   3   1.00
      2.1562300             -0.2529230             -0.01776530
      0.7489970              0.0328517              0.27405800
      0.2831450              1.0812500              0.78542100
SP   1   1.00
      0.0998317              1.0000000              1.00000000
D    1   1.00
      1.1000000              1.0000000
D    1   1.00
      0.2750000              1.0000000
F    1   1.00
      0.4500000              1.0000000
****
S     0
S    6   1.00
  21917.1000000              0.0018690
   3301.4900000              0.0142300
    754.1460000              0.0696960
    212.7110000              0.2384870
     67.9896000              0.4833070
     23.0515000              0.3380740
SP   6   1.00
    423.7350000             -0.0023767              0.0040610
    100.7100000             -0.0316930              0.0306810
     32.1599000             -0.1133170              0.1304520
     11.8079000              0.0560900              0.3272050
      4.6311000              0.5922550              0.4528510
      1.8702500              0.4550060              0.2560420
SP   3   1.00
      2.6158400             -0.2503740             -0.0145110
      0.9221670              0.0669570              0.3102630
      0.3412870              1.0545100              0.7544830
SP   1   1.00
      0.1171670              1.0000000              1.0000000
D    1   1.00
      1.3000000              1.0000000
D    1   1.00
      0.3250000              1.0000000
F    1   1.00
      0.5500000              1.0000000
****
Cl     0
S    6   1.00
  25180.1000000              0.0018330
   3780.3500000              0.0140340
    860.4740000              0.0690970
    242.1450000              0.2374520
     77.3349000              0.4830340
     26.2470000              0.3398560
SP   6   1.00
    491.7650000             -0.0022974              0.0039894
    116.9840000             -0.0307140              0.0303180
     37.4153000             -0.1125280              0.1298800
     13.7834000              0.0450160              0.3279510
      5.4521500              0.5893530              0.4535270
      2.2258800              0.4652060              0.2521540
SP   3   1.00
      3.1864900             -0.2518300             -0.0142990
      1.1442700              0.0615890              0.3235720
      0.4203770              1.0601800              0.7435070
SP   1   1.00
      0.1426570              1.0000000              1.0000000
D    1   1.00
      1.5000000              1.0000000
D    1   1.00
      0.3750000              1.0000000
F    1   1.00
      0.7000000              1.0000000
****
}


set {
reference rhf                          
freeze_core true
e_convergence 10                       
d_convergence 10                      
dft_spherical_points 1202
dft_radial_points 99
}

e = energy('b3lyp')

print_out('Grab this energy {0}'.format(e))
--------------------------------------------------------------------------

  Memory set to  13.039 GiB by Python driver.

Scratch directory: /tmp/

*** tstart() called on n054
*** at Wed Jan  5 15:23:48 2022

   => Loading Basis Set <=

    Name: ANONYMOUS1BF3412C
    Role: ORBITAL
    Keyword: BASIS
    atoms 1-2 entry C          line    48 inputblock 6-31g_2dfp_ 
    atoms 3-7 entry H          line    15 inputblock 6-31g_2dfp_ 
    atoms 8   entry CL         line   244 inputblock 6-31g_2dfp_ 


         ---------------------------------------------------------
                                   SCF
               by Justin Turney, Rob Parrish, Andy Simmonett
                          and Daniel G. A. Smith
                              RKS Reference
                        4 Threads,  13351 MiB Core
         ---------------------------------------------------------

  ==> Geometry <==

    Molecular point group: c1
    Full point group: C1

    Geometry (in Bohr), charge = 0, multiplicity = 1:

       Center              X                  Y                   Z               Mass       
    ------------   -----------------  -----------------  -----------------  -----------------
         C           -3.243921097026    -0.709717922576     0.002939555037    12.000000000000
         C           -1.152978241926     1.252507019324     0.002702158337    12.000000000000
         H           -3.119086507226    -1.906538099876     1.674868958937     1.007825032230
         H           -5.080779565326     0.231180645924     0.000424836437     1.007825032230
         H           -3.115364575426    -1.910991044776    -1.668441320663     1.007825032230
         H           -1.225948384426     2.448393692924     1.680321785837     1.007825032230
         H           -1.224448944526     2.442587467024    -1.667166223263     1.007825032230
         CL           1.905585440074    -0.223865240476    -0.002512669263    34.968852682000

  Running in c1 symmetry.

  Rotational constants: A =      1.04962  B =      0.18291  C =      0.16542 [cm^-1]
  Rotational constants: A =  31466.94502  B =   5483.57751  C =   4959.27064 [MHz]
  Nuclear repulsion =  102.800858312898995

  Charge       = 0
  Multiplicity = 1
  Electrons    = 34
  Nalpha       = 17
  Nbeta        = 17

  ==> Algorithm <==

  SCF Algorithm Type is DF.
  DIIS enabled.
  MOM disabled.
  Fractional occupation disabled.
  Guess Type is SAD.
  Energy threshold   = 1.00e-10
  Density threshold  = 1.00e-10
  Integral threshold = 0.00e+00

  ==> Primary Basis <==

  Basis Set: ANONYMOUS1BF3412C
    Blend: 6-31G_2DFP_
    Number of shells: 46
    Number of basis function: 122
    Number of Cartesian functions: 137
    Spherical Harmonics?: true
    Max angular momentum: 3

  ==> DFT Potential <==

   => Composite Functional: B3LYP <= 

    B3LYP Hyb-GGA Exchange-Correlation Functional

    P. J. Stephens, F. J. Devlin, C. F. Chabalowski, and M. J. Frisch, J. Phys. Chem. 98, 11623 (1994)

    Deriv               =              1
    GGA                 =           TRUE
    Meta                =          FALSE

    Exchange Hybrid     =           TRUE
    MP2 Hybrid          =          FALSE

   => Exchange Functionals <=

    0.0800   Slater exchange
    0.7200         Becke 88

   => Exact (HF) Exchange <=

    0.2000               HF 

   => Correlation Functionals <=

    0.1900   Vosko, Wilk & Nusair (VWN5_RPA)
    0.8100   Lee, Yang & Parr

   => Molecular Quadrature <=

    Radial Scheme          =       TREUTLER
    Pruning Scheme         =           NONE
    Nuclear Scheme         =       TREUTLER

    BS radius alpha        =              1
    Pruning alpha          =              1
    Radial Points          =             99
    Spherical Points       =           1202
    Total Points           =         892109
    Total Blocks           =           6035
    Max Points             =            256
    Max Functions          =            121
    Weights Tolerance      =       1.00E-15

   => Loading Basis Set <=

    Name: (ANONYMOUS1BF3412C AUX)
    Role: JKFIT
    Keyword: DF_BASIS_SCF
    atoms 1-2 entry C          line   198 file /opt/psi/4/master/share/psi4/basis/def2-universal-jkfit.gbs 
    atoms 3-7 entry H          line    18 file /opt/psi/4/master/share/psi4/basis/def2-universal-jkfit.gbs 
    atoms 8   entry CL         line   986 file /opt/psi/4/master/share/psi4/basis/def2-universal-jkfit.gbs 

  ==> Integral Setup <==

  DFHelper Memory: AOs need 0.045 GiB; user supplied 7.106 GiB. Using in-core AOs.

  ==> MemDFJK: Density-Fitted J/K Matrices <==

    J tasked:                   Yes
    K tasked:                   Yes
    wK tasked:                   No
    OpenMP threads:               4
    Memory [MiB]:              7276
    Algorithm:                 Core
    Schwarz Cutoff:           1E-12
    Mask sparsity (%):       0.6584
    Fitting Condition:        1E-10

   => Auxiliary Basis Set <=

  Basis Set: (ANONYMOUS1BF3412C AUX)
    Blend: DEF2-UNIVERSAL-JKFIT
    Number of shells: 118
    Number of basis function: 368
    Number of Cartesian functions: 433
    Spherical Harmonics?: true
    Max angular momentum: 4

  Cached 100.0% of DFT collocation blocks in 2.672 [GiB].

  Minimum eigenvalue in the overlap matrix is 2.1805672094E-03.
  Reciprocal condition number of the overlap matrix is 3.8224448819E-04.
    Using symmetric orthogonalization.

  ==> Pre-Iterations <==

  SCF Guess: Superposition of Atomic Densities via on-the-fly atomic UHF (no occupation information).

   -------------------------
    Irrep   Nso     Nmo    
   -------------------------
     A        122     122 
   -------------------------
    Total     122     122
   -------------------------

  ==> Iterations <==

                           Total Energy        Delta E     RMS |[F,P]|

   @DF-RKS iter SAD:  -539.00639308133907   -5.39006e+02   0.00000e+00 
   @DF-RKS iter   1:  -539.24336345879112   -2.36970e-01   4.87440e-03 DIIS
   @DF-RKS iter   2:  -539.15669421886719    8.66692e-02   5.76682e-03 DIIS
   @DF-RKS iter   3:  -539.43052757608632   -2.73833e-01   6.94223e-04 DIIS
   @DF-RKS iter   4:  -539.43404465451624   -3.51708e-03   2.22950e-04 DIIS
   @DF-RKS iter   5:  -539.43440611763674   -3.61463e-04   5.94737e-05 DIIS
   @DF-RKS iter   6:  -539.43443168936631   -2.55717e-05   9.22234e-06 DIIS
   @DF-RKS iter   7:  -539.43443235695463   -6.67588e-07   2.15458e-06 DIIS
   @DF-RKS iter   8:  -539.43443239161297   -3.46583e-08   5.81518e-07 DIIS
   @DF-RKS iter   9:  -539.43443239422970   -2.61673e-09   5.65806e-08 DIIS
   @DF-RKS iter  10:  -539.43443239425403   -2.43290e-11   1.72598e-08 DIIS
   @DF-RKS iter  11:  -539.43443239425528   -1.25056e-12   3.01025e-09 DIIS
   @DF-RKS iter  12:  -539.43443239425596   -6.82121e-13   3.86798e-10 DIIS
   @DF-RKS iter  13:  -539.43443239425540    5.68434e-13   3.50353e-11 DIIS
  Energy and wave function converged.


  ==> Post-Iterations <==

    Orbital Energies [Eh]
    ---------------------

    Doubly Occupied:                                                      

       1A   -101.513974     2A    -10.240898     3A    -10.186823  
       4A     -9.442894     5A     -7.205539     6A     -7.196950  
       7A     -7.196904     8A     -0.853097     9A     -0.741328  
      10A     -0.619945    11A     -0.475920    12A     -0.451315  
      13A     -0.407973    14A     -0.376666    15A     -0.371066  
      16A     -0.292900    17A     -0.291833  

    Virtual:                                                              

      18A      0.033852    19A      0.085585    20A      0.127634  
      21A      0.129074    22A      0.151323    23A      0.162283  
      24A      0.197984    25A      0.350266    26A      0.378484  
      27A      0.385308    28A      0.397887    29A      0.398298  
      30A      0.415731    31A      0.432212    32A      0.436432  
      33A      0.460933    34A      0.480334    35A      0.497304  
      36A      0.542331    37A      0.546830    38A      0.553263  
      39A      0.596010    40A      0.606794    41A      0.610281  
      42A      0.635276    43A      0.652425    44A      0.759692  
      45A      0.765739    46A      0.814087    47A      0.845802  
      48A      0.872081    49A      0.998218    50A      1.060519  
      51A      1.072046    52A      1.102137    53A      1.137703  
      54A      1.155381    55A      1.241496    56A      1.250372  
      57A      1.255203    58A      1.318279    59A      1.327953  
      60A      1.374857    61A      1.396313    62A      1.429197  
      63A      1.444992    64A      1.451386    65A      1.468372  
      66A      1.548561    67A      1.767232    68A      1.774068  
      69A      1.806532    70A      1.988342    71A      2.008567  
      72A      2.090304    73A      2.097212    74A      2.151030  
      75A      2.169003    76A      2.174491    77A      2.195693  
      78A      2.253462    79A      2.410313    80A      2.425811  
      81A      2.544186    82A      2.585412    83A      2.695311  
      84A      2.771145    85A      2.825679    86A      2.895491  
      87A      2.898675    88A      2.930794    89A      3.010753  
      90A      3.044982    91A      3.146764    92A      3.154935  
      93A      3.264697    94A      3.342669    95A      3.345922  
      96A      3.444771    97A      3.470807    98A      3.510108  
      99A      3.540835   100A      3.570617   101A      3.665016  
     102A      3.711919   103A      3.743915   104A      3.916696  
     105A      3.931916   106A      4.054771   107A      4.093376  
     108A      4.160138   109A      4.170101   110A      4.234367  
     111A      4.243876   112A      4.386706   113A      4.432159  
     114A      4.484753   115A      4.498899   116A      4.535008  
     117A      4.577555   118A      4.929750   119A      5.052388  
     120A      5.190915   121A      5.256679   122A      5.302045  

    Final Occupation by Irrep:
              A 
    DOCC [    17 ]

  @DF-RKS Final Energy:  -539.43443239425540

   => Energetics <=

    Nuclear Repulsion Energy =            102.8008583128989955
    One-Electron Energy =                -945.1557091580075394
    Two-Electron Energy =                 335.9886851017177491
    DFT Exchange-Correlation Energy =     -33.0682666508646150
    Empirical Dispersion Energy =           0.0000000000000000
    VV10 Nonlocal Energy =                  0.0000000000000000
    Total Energy =                       -539.4344323942553956

Computation Completed


Properties will be evaluated at   0.000000,   0.000000,   0.000000 [a0]

Properties computed using the SCF density matrix

  Nuclear Dipole Moment: [e a0]
     X:    -7.7521      Y:     0.7557      Z:     0.0111

  Electronic Dipole Moment: [e a0]
     X:     6.9851      Y:    -0.4711      Z:    -0.0106

  Dipole Moment: [e a0]
     X:    -0.7670      Y:     0.2845      Z:     0.0006     Total:     0.8180

  Dipole Moment: [D]
     X:    -1.9494      Y:     0.7232      Z:     0.0015     Total:     2.0793


*** tstop() called on n054 at Wed Jan  5 15:24:01 2022
Module time:
	user time   =      49.37 seconds =       0.82 minutes
	system time =       0.83 seconds =       0.01 minutes
	total time  =         13 seconds =       0.22 minutes
Total time:
	user time   =      49.37 seconds =       0.82 minutes
	system time =       0.83 seconds =       0.01 minutes
	total time  =         13 seconds =       0.22 minutes
Grab this energy -539.4344323942554
    Psi4 stopped on: Wednesday, 05 January 2022 03:24PM
    Psi4 wall time for execution: 0:00:13.01

*** Psi4 exiting successfully. Buy a developer a beer!
