
    -----------------------------------------------------------------------
          Psi4: An Open-Source Ab Initio Electronic Structure Package
                               Psi4 1.4a2.dev629 

                         Git: Rev {master} 2938fc2 dirty


    D. G. A. Smith, L. A. Burns, A. C. Simmonett, R. M. Parrish,
    M. C. Schieber, R. Galvelis, P. Kraus, H. Kruse, R. Di Remigio,
    A. Alenaizan, A. M. James, S. Lehtola, J. P. Misiewicz, M. Scheurer,
    R. A. Shaw, J. B. Schriber, Y. Xie, Z. L. Glick, D. A. Sirianni,
    J. S. O'Brien, J. M. Waldrop, A. Kumar, E. G. Hohenstein,
    B. P. Pritchard, B. R. Brooks, H. F. Schaefer III, A. Yu. Sokolov,
    K. Patkowski, A. E. DePrince III, U. Bozkaya, R. A. King,
    F. A. Evangelista, J. M. Turney, T. D. Crawford, C. D. Sherrill,
    J. Chem. Phys. 152(18) 184108 (2020). https://doi.org/10.1063/5.0006002

                            Additional Code Authors
    E. T. Seidl, C. L. Janssen, E. F. Valeev, M. L. Leininger,
    J. F. Gonthier, R. M. Richard, H. R. McAlexander, M. Saitow, X. Wang,
    P. Verma, and M. H. Lechner

             Previous Authors, Complete List of Code Contributors,
                       and Citations for Specific Modules
    https://github.com/psi4/psi4/blob/master/codemeta.json
    https://github.com/psi4/psi4/graphs/contributors
    http://psicode.org/psi4manual/master/introduction.html#citing-psifour

    -----------------------------------------------------------------------


    Psi4 started on: Wednesday, 05 January 2022 03:37PM

    Process ID: 182262
    Host:       n070
    PSIDATADIR: /opt/psi/4/master/share/psi4
    Memory:     500.0 MiB
    Threads:    4
    
  ==> Input File <==

--------------------------------------------------------------------------
import os
memory 14 GB 
 
molecule {
 C   -3.2397883706   -0.7087475754   -0.0004951536
 C   -1.1572563994    1.2533674014   -0.0005643284
 H   -3.1072611228   -1.9014465309    1.6727155464
 H   -5.0786480099    0.2295715170   -0.0009719811
 H   -3.1166042506   -1.9087519223   -1.6709840120
 H   -1.2325251975    2.4425991751    1.6737791538
 H   -1.2220088846    2.4498262312   -1.6722350680
 Cl    1.8970155741   -0.2324675717   -0.0011218983
units bohr
}

basis {

assign 6-31g_2dfp_

[ 6-31g_2dfp_ ]

spherical

!----------------------------------------------------------------------
! Basis Set Exchange
! Version v0.8.13
! https://www.basissetexchange.org
!----------------------------------------------------------------------
!   Basis set: 6-31G(2df,p)
! Description: 6-31G(2df,p)
!        Role: orbital
!     Version: 0  (Data from the original Basis Set Exchange)
!----------------------------------------------------------------------


****
H     0
S    3   1.00
     18.7311370              0.03349460
      2.8253937              0.23472695
      0.6401217              0.81375733
S    1   1.00
      0.1612778              1.00000000
P    1   1.00
      1.5000000              1.0000000
P    1   1.00
      0.3750000              1.0000000
****
B     0
S    6   1.00
   2068.8823000              0.0018663
    310.6495700              0.0142515
     70.6830330              0.0695516
     19.8610800              0.2325729
      6.2993048              0.4670787
      2.1270270              0.3634314
SP   3   1.00
      4.7279710             -0.1303938              0.0745976
      1.1903377             -0.1307889              0.3078467
      0.3594117              1.1309444              0.7434568
SP   1   1.00
      0.1267512              1.0000000              1.0000000
D    1   1.00
      0.8020000              1.0000000
D    1   1.00
      0.2005000              1.0000000
F    1   1.00
      0.5000000              1.0000000
****
C     0
S    6   1.00
   3047.5249000              0.0018347
    457.3695100              0.0140373
    103.9486900              0.0688426
     29.2101550              0.2321844
      9.2866630              0.4679413
      3.1639270              0.3623120
SP   3   1.00
      7.8682724             -0.1193324              0.0689991
      1.8812885             -0.1608542              0.3164240
      0.5442493              1.1434564              0.7443083
SP   1   1.00
      0.1687144              1.0000000              1.0000000
D    1   1.00
      1.2520000              1.0000000
D    1   1.00
      0.3130000              1.0000000
F    1   1.00
      0.8000000              1.0000000
****
N     0
S    6   1.00
   4173.5110000              0.0018348
    627.4579000              0.0139950
    142.9021000              0.0685870
     40.2343300              0.2322410
     12.8202100              0.4690700
      4.3904370              0.3604550
SP   3   1.00
     11.6263580             -0.1149610              0.0675800
      2.7162800             -0.1691180              0.3239070
      0.7722180              1.1458520              0.7408950
SP   1   1.00
      0.2120313              1.0000000              1.0000000
D    1   1.00
      1.8260000              1.0000000
D    1   1.00
      0.4565000              1.0000000
F    1   1.00
      1.0000000              1.0000000
****
O     0
S    6   1.00
   5484.6717000              0.0018311
    825.2349500              0.0139501
    188.0469600              0.0684451
     52.9645000              0.2327143
     16.8975700              0.4701930
      5.7996353              0.3585209
SP   3   1.00
     15.5396160             -0.1107775              0.0708743
      3.5999336             -0.1480263              0.3397528
      1.0137618              1.1307670              0.7271586
SP   1   1.00
      0.2700058              1.0000000              1.0000000
D    1   1.00
      2.5840000              1.0000000
D    1   1.00
      0.6460000              1.0000000
F    1   1.00
      1.4000000              1.0000000
****
F     0
S    6   1.00
   7001.7130900              0.0018196169
   1051.3660900              0.0139160796
    239.2856900              0.0684053245
     67.3974453              0.233185760
     21.5199573              0.471267439
      7.40310130             0.356618546
SP   3   1.00
     20.8479528             -0.108506975            0.0716287243
      4.80830834            -0.146451658            0.3459121030
      1.34406986             1.128688580            0.7224699570
SP   1   1.00
      0.358151393            1.0000000              1.0000000
D    1   1.00
      3.5000000              1.0000000
D    1   1.00
      0.8750000              1.0000000
F    1   1.00
      1.8500000              1.0000000
****
Al     0
S    6   1.00
  13983.1000000              0.00194267
   2098.7500000              0.0148599
    477.7050000              0.0728494
    134.3600000              0.2468300
     42.8709000              0.4872580
     14.5189000              0.3234960
SP   6   1.00
    239.6680000             -0.00292619             0.00460285
     57.4419000             -0.0374080              0.0331990
     18.2859000             -0.1144870              0.1362820
      6.5991400              0.1156350              0.3304760
      2.4904900              0.6125950              0.4491460
      0.9445400              0.3937990              0.2657040
SP   3   1.00
      1.2779000             -0.2276060             -0.0175130
      0.3975900              0.00144583             0.2445330
      0.1600950              1.0927900              0.8049340
SP   1   1.00
      0.0556577              1.0000000              1.0000000
D    1   1.00
      0.6500000              1.0000000
D    1   1.00
      0.1625000              1.0000000
F    1   1.00
      0.2500000              1.0000000
****
Si     0
S    6   1.00
  16115.9000000              0.00195948
   2425.5800000              0.01492880
    553.8670000              0.07284780
    156.3400000              0.24613000
     50.0683000              0.48591400
     17.0178000              0.32500200
SP   6   1.00
    292.7180000             -0.00278094             0.00443826
     69.8731000             -0.03571460             0.03266790
     22.3363000             -0.11498500             0.13472100
      8.1503900              0.09356340             0.32867800
      3.1345800              0.60301700             0.44964000
      1.2254300              0.41895900             0.26137200
SP   3   1.00
      1.7273800             -0.24463000            -0.01779510
      0.5729220              0.00431572             0.25353900
      0.2221920              1.09818000             0.80066900
SP   1   1.00
      0.0778369              1.00000000             1.00000000
D    1   1.00
      0.9000000              1.0000000
D    1   1.00
      0.2250000              1.0000000
F    1   1.00
      0.3200000              1.0000000
****
P     0
S    6   1.00
  19413.3000000              0.0018516
   2909.4200000              0.0142062
    661.3640000              0.0699995
    185.7590000              0.2400790
     59.1943000              0.4847620
     20.0310000              0.3352000
SP   6   1.00
    339.4780000             -0.00278217             0.00456462
     81.0101000             -0.0360499              0.03369360
     25.8780000             -0.1166310              0.13975500
      9.4522100              0.0968328              0.33936200
      3.6656600              0.6144180              0.45092100
      1.4674600              0.4037980              0.23858600
SP   3   1.00
      2.1562300             -0.2529230             -0.01776530
      0.7489970              0.0328517              0.27405800
      0.2831450              1.0812500              0.78542100
SP   1   1.00
      0.0998317              1.0000000              1.00000000
D    1   1.00
      1.1000000              1.0000000
D    1   1.00
      0.2750000              1.0000000
F    1   1.00
      0.4500000              1.0000000
****
S     0
S    6   1.00
  21917.1000000              0.0018690
   3301.4900000              0.0142300
    754.1460000              0.0696960
    212.7110000              0.2384870
     67.9896000              0.4833070
     23.0515000              0.3380740
SP   6   1.00
    423.7350000             -0.0023767              0.0040610
    100.7100000             -0.0316930              0.0306810
     32.1599000             -0.1133170              0.1304520
     11.8079000              0.0560900              0.3272050
      4.6311000              0.5922550              0.4528510
      1.8702500              0.4550060              0.2560420
SP   3   1.00
      2.6158400             -0.2503740             -0.0145110
      0.9221670              0.0669570              0.3102630
      0.3412870              1.0545100              0.7544830
SP   1   1.00
      0.1171670              1.0000000              1.0000000
D    1   1.00
      1.3000000              1.0000000
D    1   1.00
      0.3250000              1.0000000
F    1   1.00
      0.5500000              1.0000000
****
Cl     0
S    6   1.00
  25180.1000000              0.0018330
   3780.3500000              0.0140340
    860.4740000              0.0690970
    242.1450000              0.2374520
     77.3349000              0.4830340
     26.2470000              0.3398560
SP   6   1.00
    491.7650000             -0.0022974              0.0039894
    116.9840000             -0.0307140              0.0303180
     37.4153000             -0.1125280              0.1298800
     13.7834000              0.0450160              0.3279510
      5.4521500              0.5893530              0.4535270
      2.2258800              0.4652060              0.2521540
SP   3   1.00
      3.1864900             -0.2518300             -0.0142990
      1.1442700              0.0615890              0.3235720
      0.4203770              1.0601800              0.7435070
SP   1   1.00
      0.1426570              1.0000000              1.0000000
D    1   1.00
      1.5000000              1.0000000
D    1   1.00
      0.3750000              1.0000000
F    1   1.00
      0.7000000              1.0000000
****
}


set {
reference rhf                          
freeze_core true
e_convergence 10                       
d_convergence 10                      
dft_spherical_points 1202
dft_radial_points 99
}

e = energy('b3lyp')

print_out('Grab this energy {0}'.format(e))
--------------------------------------------------------------------------

  Memory set to  13.039 GiB by Python driver.

Scratch directory: /tmp/

*** tstart() called on n070
*** at Wed Jan  5 15:37:50 2022

   => Loading Basis Set <=

    Name: ANONYMOUS2A8AD4FF
    Role: ORBITAL
    Keyword: BASIS
    atoms 1-2 entry C          line    48 inputblock 6-31g_2dfp_ 
    atoms 3-7 entry H          line    15 inputblock 6-31g_2dfp_ 
    atoms 8   entry CL         line   244 inputblock 6-31g_2dfp_ 


         ---------------------------------------------------------
                                   SCF
               by Justin Turney, Rob Parrish, Andy Simmonett
                          and Daniel G. A. Smith
                              RKS Reference
                        4 Threads,  13351 MiB Core
         ---------------------------------------------------------

  ==> Geometry <==

    Molecular point group: c1
    Full point group: C1

    Geometry (in Bohr), charge = 0, multiplicity = 1:

       Center              X                  Y                   Z               Mass       
    ------------   -----------------  -----------------  -----------------  -----------------
         C           -3.235214317351    -0.704503994680     0.000280118747    12.000000000000
         C           -1.152682346151     1.257610982120     0.000210943947    12.000000000000
         H           -3.102687069551    -1.897202950180     1.673490818747     1.007825032230
         H           -5.074073956651     0.233815097720    -0.000196708753     1.007825032230
         H           -3.112030197351    -1.904508341580    -1.670208739653     1.007825032230
         H           -1.227951144251     2.446842755820     1.674554426147     1.007825032230
         H           -1.217434831351     2.454069811920    -1.671459795653     1.007825032230
         CL           1.901589627349    -0.228223990980    -0.000346625953    34.968852682000

  Running in c1 symmetry.

  Rotational constants: A =      1.04745  B =      0.18371  C =      0.16602 [cm^-1]
  Rotational constants: A =  31401.83164  B =   5507.41961  C =   4977.03209 [MHz]
  Nuclear repulsion =  102.913422431870615

  Charge       = 0
  Multiplicity = 1
  Electrons    = 34
  Nalpha       = 17
  Nbeta        = 17

  ==> Algorithm <==

  SCF Algorithm Type is DF.
  DIIS enabled.
  MOM disabled.
  Fractional occupation disabled.
  Guess Type is SAD.
  Energy threshold   = 1.00e-10
  Density threshold  = 1.00e-10
  Integral threshold = 0.00e+00

  ==> Primary Basis <==

  Basis Set: ANONYMOUS2A8AD4FF
    Blend: 6-31G_2DFP_
    Number of shells: 46
    Number of basis function: 122
    Number of Cartesian functions: 137
    Spherical Harmonics?: true
    Max angular momentum: 3

  ==> DFT Potential <==

   => Composite Functional: B3LYP <= 

    B3LYP Hyb-GGA Exchange-Correlation Functional

    P. J. Stephens, F. J. Devlin, C. F. Chabalowski, and M. J. Frisch, J. Phys. Chem. 98, 11623 (1994)

    Deriv               =              1
    GGA                 =           TRUE
    Meta                =          FALSE

    Exchange Hybrid     =           TRUE
    MP2 Hybrid          =          FALSE

   => Exchange Functionals <=

    0.0800   Slater exchange
    0.7200         Becke 88

   => Exact (HF) Exchange <=

    0.2000               HF 

   => Correlation Functionals <=

    0.1900   Vosko, Wilk & Nusair (VWN5_RPA)
    0.8100   Lee, Yang & Parr

   => Molecular Quadrature <=

    Radial Scheme          =       TREUTLER
    Pruning Scheme         =           NONE
    Nuclear Scheme         =       TREUTLER

    BS radius alpha        =              1
    Pruning alpha          =              1
    Radial Points          =             99
    Spherical Points       =           1202
    Total Points           =         892076
    Total Blocks           =           6041
    Max Points             =            256
    Max Functions          =            121
    Weights Tolerance      =       1.00E-15

   => Loading Basis Set <=

    Name: (ANONYMOUS2A8AD4FF AUX)
    Role: JKFIT
    Keyword: DF_BASIS_SCF
    atoms 1-2 entry C          line   198 file /opt/psi/4/master/share/psi4/basis/def2-universal-jkfit.gbs 
    atoms 3-7 entry H          line    18 file /opt/psi/4/master/share/psi4/basis/def2-universal-jkfit.gbs 
    atoms 8   entry CL         line   986 file /opt/psi/4/master/share/psi4/basis/def2-universal-jkfit.gbs 

  ==> Integral Setup <==

  DFHelper Memory: AOs need 0.045 GiB; user supplied 7.105 GiB. Using in-core AOs.

  ==> MemDFJK: Density-Fitted J/K Matrices <==

    J tasked:                   Yes
    K tasked:                   Yes
    wK tasked:                   No
    OpenMP threads:               4
    Memory [MiB]:              7275
    Algorithm:                 Core
    Schwarz Cutoff:           1E-12
    Mask sparsity (%):       0.6584
    Fitting Condition:        1E-10

   => Auxiliary Basis Set <=

  Basis Set: (ANONYMOUS2A8AD4FF AUX)
    Blend: DEF2-UNIVERSAL-JKFIT
    Number of shells: 118
    Number of basis function: 368
    Number of Cartesian functions: 433
    Spherical Harmonics?: true
    Max angular momentum: 4

  Cached 100.0% of DFT collocation blocks in 2.674 [GiB].

  Minimum eigenvalue in the overlap matrix is 2.1722051768E-03.
  Reciprocal condition number of the overlap matrix is 3.8026911771E-04.
    Using symmetric orthogonalization.

  ==> Pre-Iterations <==

  SCF Guess: Superposition of Atomic Densities via on-the-fly atomic UHF (no occupation information).

   -------------------------
    Irrep   Nso     Nmo    
   -------------------------
     A        122     122 
   -------------------------
    Total     122     122
   -------------------------

  ==> Iterations <==

                           Total Energy        Delta E     RMS |[F,P]|

   @DF-RKS iter SAD:  -539.01081364885385   -5.39011e+02   0.00000e+00 
   @DF-RKS iter   1:  -539.24258187332202   -2.31768e-01   4.88545e-03 DIIS
   @DF-RKS iter   2:  -539.15519876069004    8.73831e-02   5.78362e-03 DIIS
   @DF-RKS iter   3:  -539.43048586287318   -2.75287e-01   6.95691e-04 DIIS
   @DF-RKS iter   4:  -539.43401551306340   -3.52965e-03   2.23461e-04 DIIS
   @DF-RKS iter   5:  -539.43437878494512   -3.63272e-04   5.94079e-05 DIIS
   @DF-RKS iter   6:  -539.43440428424071   -2.54993e-05   9.17328e-06 DIIS
   @DF-RKS iter   7:  -539.43440494361448   -6.59374e-07   2.14440e-06 DIIS
   @DF-RKS iter   8:  -539.43440497793358   -3.43191e-08   5.80508e-07 DIIS
   @DF-RKS iter   9:  -539.43440498054167   -2.60809e-09   5.68101e-08 DIIS
   @DF-RKS iter  10:  -539.43440498056646   -2.47837e-11   1.73133e-08 DIIS
   @DF-RKS iter  11:  -539.43440498056952   -3.06954e-12   3.00275e-09 DIIS
   @DF-RKS iter  12:  -539.43440498056896    5.68434e-13   3.86439e-10 DIIS
   @DF-RKS iter  13:  -539.43440498056839    5.68434e-13   3.49454e-11 DIIS
  Energy and wave function converged.


  ==> Post-Iterations <==

    Orbital Energies [Eh]
    ---------------------

    Doubly Occupied:                                                      

       1A   -101.513817     2A    -10.240650     3A    -10.186455  
       4A     -9.442754     5A     -7.205394     6A     -7.196808  
       7A     -7.196767     8A     -0.853370     9A     -0.741639  
      10A     -0.619963    11A     -0.476395    12A     -0.451639  
      13A     -0.408275    14A     -0.376656    15A     -0.370745  
      16A     -0.292855    17A     -0.291846  

    Virtual:                                                              

      18A      0.033849    19A      0.085724    20A      0.127687  
      21A      0.129109    22A      0.151196    23A      0.162654  
      24A      0.198826    25A      0.350751    26A      0.378275  
      27A      0.385098    28A      0.397925    29A      0.398419  
      30A      0.415442    31A      0.432241    32A      0.436385  
      33A      0.460821    34A      0.480671    35A      0.497475  
      36A      0.542787    37A      0.547605    38A      0.554258  
      39A      0.596321    40A      0.607487    41A      0.610287  
      42A      0.635321    43A      0.652642    44A      0.759475  
      45A      0.766558    46A      0.814636    47A      0.846343  
      48A      0.872505    49A      0.998873    50A      1.062058  
      51A      1.072661    52A      1.103091    53A      1.138604  
      54A      1.155699    55A      1.241575    56A      1.250934  
      57A      1.255371    58A      1.320244    59A      1.327655  
      60A      1.373644    61A      1.396770    62A      1.428917  
      63A      1.444676    64A      1.451966    65A      1.469574  
      66A      1.549902    67A      1.767585    68A      1.774610  
      69A      1.807511    70A      1.989636    71A      2.009957  
      72A      2.090488    73A      2.097446    74A      2.151757  
      75A      2.169497    76A      2.174719    77A      2.196121  
      78A      2.253899    79A      2.410395    80A      2.427287  
      81A      2.545109    82A      2.585438    83A      2.695471  
      84A      2.772038    85A      2.826663    86A      2.895635  
      87A      2.898638    88A      2.930466    89A      3.012020  
      90A      3.045451    91A      3.148350    92A      3.155325  
      93A      3.265101    94A      3.344068    95A      3.347085  
      96A      3.445462    97A      3.471072    98A      3.509549  
      99A      3.542222   100A      3.568956   101A      3.665462  
     102A      3.713186   103A      3.745281   104A      3.917611  
     105A      3.934762   106A      4.056346   107A      4.096313  
     108A      4.160658   109A      4.170448   110A      4.235147  
     111A      4.246293   112A      4.388463   113A      4.434222  
     114A      4.487761   115A      4.501337   116A      4.537999  
     117A      4.582496   118A      4.931374   119A      5.053490  
     120A      5.192343   121A      5.258718   122A      5.304807  

    Final Occupation by Irrep:
              A 
    DOCC [    17 ]

  @DF-RKS Final Energy:  -539.43440498056839

   => Energetics <=

    Nuclear Repulsion Energy =            102.9134224318706146
    One-Electron Energy =                -945.3796099742322667
    Two-Electron Energy =                 336.1017680633510167
    DFT Exchange-Correlation Energy =     -33.0699855015576674
    Empirical Dispersion Energy =           0.0000000000000000
    VV10 Nonlocal Energy =                  0.0000000000000000
    Total Energy =                       -539.4344049805683881

Computation Completed


Properties will be evaluated at   0.000000,   0.000000,   0.000000 [a0]

Properties computed using the SCF density matrix

  Nuclear Dipole Moment: [e a0]
     X:    -7.7345      Y:     0.7719      Z:     0.0032

  Electronic Dipole Moment: [e a0]
     X:     6.9680      Y:    -0.4852      Z:    -0.0027

  Dipole Moment: [e a0]
     X:    -0.7665      Y:     0.2867      Z:     0.0006     Total:     0.8184

  Dipole Moment: [D]
     X:    -1.9484      Y:     0.7287      Z:     0.0014     Total:     2.0802


*** tstop() called on n070 at Wed Jan  5 15:38:04 2022
Module time:
	user time   =      54.05 seconds =       0.90 minutes
	system time =       1.36 seconds =       0.02 minutes
	total time  =         14 seconds =       0.23 minutes
Total time:
	user time   =      54.05 seconds =       0.90 minutes
	system time =       1.36 seconds =       0.02 minutes
	total time  =         14 seconds =       0.23 minutes
Grab this energy -539.4344049805684
    Psi4 stopped on: Wednesday, 05 January 2022 03:38PM
    Psi4 wall time for execution: 0:00:14.54

*** Psi4 exiting successfully. Buy a developer a beer!
