
    -----------------------------------------------------------------------
          Psi4: An Open-Source Ab Initio Electronic Structure Package
                               Psi4 1.4a2.dev629 

                         Git: Rev {master} 2938fc2 dirty


    D. G. A. Smith, L. A. Burns, A. C. Simmonett, R. M. Parrish,
    M. C. Schieber, R. Galvelis, P. Kraus, H. Kruse, R. Di Remigio,
    A. Alenaizan, A. M. James, S. Lehtola, J. P. Misiewicz, M. Scheurer,
    R. A. Shaw, J. B. Schriber, Y. Xie, Z. L. Glick, D. A. Sirianni,
    J. S. O'Brien, J. M. Waldrop, A. Kumar, E. G. Hohenstein,
    B. P. Pritchard, B. R. Brooks, H. F. Schaefer III, A. Yu. Sokolov,
    K. Patkowski, A. E. DePrince III, U. Bozkaya, R. A. King,
    F. A. Evangelista, J. M. Turney, T. D. Crawford, C. D. Sherrill,
    J. Chem. Phys. 152(18) 184108 (2020). https://doi.org/10.1063/5.0006002

                            Additional Code Authors
    E. T. Seidl, C. L. Janssen, E. F. Valeev, M. L. Leininger,
    J. F. Gonthier, R. M. Richard, H. R. McAlexander, M. Saitow, X. Wang,
    P. Verma, and M. H. Lechner

             Previous Authors, Complete List of Code Contributors,
                       and Citations for Specific Modules
    https://github.com/psi4/psi4/blob/master/codemeta.json
    https://github.com/psi4/psi4/graphs/contributors
    http://psicode.org/psi4manual/master/introduction.html#citing-psifour

    -----------------------------------------------------------------------


    Psi4 started on: Wednesday, 05 January 2022 03:32PM

    Process ID: 21341
    Host:       n044
    PSIDATADIR: /opt/psi/4/master/share/psi4
    Memory:     500.0 MiB
    Threads:    4
    
  ==> Input File <==

--------------------------------------------------------------------------
import os
memory 14 GB 
 
molecule {
 C   -3.2428325406   -0.7107993383    0.0004481925
 C   -1.1542500852    1.2536422936   -0.0007159388
 H   -3.1211920731   -1.9139818780    1.6696991479
 H   -5.0808350056    0.2313592840    0.0043052749
 H   -3.1139213140   -1.9029205277   -1.6739035940
 H   -1.2225825686    2.4520766206    1.6732452148
 H   -1.2271112033    2.4384681055   -1.6745290645
 Cl    1.9056481291   -0.2238938353    0.0015730257
units bohr
}

basis {

assign 6-31g_2dfp_

[ 6-31g_2dfp_ ]

spherical

!----------------------------------------------------------------------
! Basis Set Exchange
! Version v0.8.13
! https://www.basissetexchange.org
!----------------------------------------------------------------------
!   Basis set: 6-31G(2df,p)
! Description: 6-31G(2df,p)
!        Role: orbital
!     Version: 0  (Data from the original Basis Set Exchange)
!----------------------------------------------------------------------


****
H     0
S    3   1.00
     18.7311370              0.03349460
      2.8253937              0.23472695
      0.6401217              0.81375733
S    1   1.00
      0.1612778              1.00000000
P    1   1.00
      1.5000000              1.0000000
P    1   1.00
      0.3750000              1.0000000
****
B     0
S    6   1.00
   2068.8823000              0.0018663
    310.6495700              0.0142515
     70.6830330              0.0695516
     19.8610800              0.2325729
      6.2993048              0.4670787
      2.1270270              0.3634314
SP   3   1.00
      4.7279710             -0.1303938              0.0745976
      1.1903377             -0.1307889              0.3078467
      0.3594117              1.1309444              0.7434568
SP   1   1.00
      0.1267512              1.0000000              1.0000000
D    1   1.00
      0.8020000              1.0000000
D    1   1.00
      0.2005000              1.0000000
F    1   1.00
      0.5000000              1.0000000
****
C     0
S    6   1.00
   3047.5249000              0.0018347
    457.3695100              0.0140373
    103.9486900              0.0688426
     29.2101550              0.2321844
      9.2866630              0.4679413
      3.1639270              0.3623120
SP   3   1.00
      7.8682724             -0.1193324              0.0689991
      1.8812885             -0.1608542              0.3164240
      0.5442493              1.1434564              0.7443083
SP   1   1.00
      0.1687144              1.0000000              1.0000000
D    1   1.00
      1.2520000              1.0000000
D    1   1.00
      0.3130000              1.0000000
F    1   1.00
      0.8000000              1.0000000
****
N     0
S    6   1.00
   4173.5110000              0.0018348
    627.4579000              0.0139950
    142.9021000              0.0685870
     40.2343300              0.2322410
     12.8202100              0.4690700
      4.3904370              0.3604550
SP   3   1.00
     11.6263580             -0.1149610              0.0675800
      2.7162800             -0.1691180              0.3239070
      0.7722180              1.1458520              0.7408950
SP   1   1.00
      0.2120313              1.0000000              1.0000000
D    1   1.00
      1.8260000              1.0000000
D    1   1.00
      0.4565000              1.0000000
F    1   1.00
      1.0000000              1.0000000
****
O     0
S    6   1.00
   5484.6717000              0.0018311
    825.2349500              0.0139501
    188.0469600              0.0684451
     52.9645000              0.2327143
     16.8975700              0.4701930
      5.7996353              0.3585209
SP   3   1.00
     15.5396160             -0.1107775              0.0708743
      3.5999336             -0.1480263              0.3397528
      1.0137618              1.1307670              0.7271586
SP   1   1.00
      0.2700058              1.0000000              1.0000000
D    1   1.00
      2.5840000              1.0000000
D    1   1.00
      0.6460000              1.0000000
F    1   1.00
      1.4000000              1.0000000
****
F     0
S    6   1.00
   7001.7130900              0.0018196169
   1051.3660900              0.0139160796
    239.2856900              0.0684053245
     67.3974453              0.233185760
     21.5199573              0.471267439
      7.40310130             0.356618546
SP   3   1.00
     20.8479528             -0.108506975            0.0716287243
      4.80830834            -0.146451658            0.3459121030
      1.34406986             1.128688580            0.7224699570
SP   1   1.00
      0.358151393            1.0000000              1.0000000
D    1   1.00
      3.5000000              1.0000000
D    1   1.00
      0.8750000              1.0000000
F    1   1.00
      1.8500000              1.0000000
****
Al     0
S    6   1.00
  13983.1000000              0.00194267
   2098.7500000              0.0148599
    477.7050000              0.0728494
    134.3600000              0.2468300
     42.8709000              0.4872580
     14.5189000              0.3234960
SP   6   1.00
    239.6680000             -0.00292619             0.00460285
     57.4419000             -0.0374080              0.0331990
     18.2859000             -0.1144870              0.1362820
      6.5991400              0.1156350              0.3304760
      2.4904900              0.6125950              0.4491460
      0.9445400              0.3937990              0.2657040
SP   3   1.00
      1.2779000             -0.2276060             -0.0175130
      0.3975900              0.00144583             0.2445330
      0.1600950              1.0927900              0.8049340
SP   1   1.00
      0.0556577              1.0000000              1.0000000
D    1   1.00
      0.6500000              1.0000000
D    1   1.00
      0.1625000              1.0000000
F    1   1.00
      0.2500000              1.0000000
****
Si     0
S    6   1.00
  16115.9000000              0.00195948
   2425.5800000              0.01492880
    553.8670000              0.07284780
    156.3400000              0.24613000
     50.0683000              0.48591400
     17.0178000              0.32500200
SP   6   1.00
    292.7180000             -0.00278094             0.00443826
     69.8731000             -0.03571460             0.03266790
     22.3363000             -0.11498500             0.13472100
      8.1503900              0.09356340             0.32867800
      3.1345800              0.60301700             0.44964000
      1.2254300              0.41895900             0.26137200
SP   3   1.00
      1.7273800             -0.24463000            -0.01779510
      0.5729220              0.00431572             0.25353900
      0.2221920              1.09818000             0.80066900
SP   1   1.00
      0.0778369              1.00000000             1.00000000
D    1   1.00
      0.9000000              1.0000000
D    1   1.00
      0.2250000              1.0000000
F    1   1.00
      0.3200000              1.0000000
****
P     0
S    6   1.00
  19413.3000000              0.0018516
   2909.4200000              0.0142062
    661.3640000              0.0699995
    185.7590000              0.2400790
     59.1943000              0.4847620
     20.0310000              0.3352000
SP   6   1.00
    339.4780000             -0.00278217             0.00456462
     81.0101000             -0.0360499              0.03369360
     25.8780000             -0.1166310              0.13975500
      9.4522100              0.0968328              0.33936200
      3.6656600              0.6144180              0.45092100
      1.4674600              0.4037980              0.23858600
SP   3   1.00
      2.1562300             -0.2529230             -0.01776530
      0.7489970              0.0328517              0.27405800
      0.2831450              1.0812500              0.78542100
SP   1   1.00
      0.0998317              1.0000000              1.00000000
D    1   1.00
      1.1000000              1.0000000
D    1   1.00
      0.2750000              1.0000000
F    1   1.00
      0.4500000              1.0000000
****
S     0
S    6   1.00
  21917.1000000              0.0018690
   3301.4900000              0.0142300
    754.1460000              0.0696960
    212.7110000              0.2384870
     67.9896000              0.4833070
     23.0515000              0.3380740
SP   6   1.00
    423.7350000             -0.0023767              0.0040610
    100.7100000             -0.0316930              0.0306810
     32.1599000             -0.1133170              0.1304520
     11.8079000              0.0560900              0.3272050
      4.6311000              0.5922550              0.4528510
      1.8702500              0.4550060              0.2560420
SP   3   1.00
      2.6158400             -0.2503740             -0.0145110
      0.9221670              0.0669570              0.3102630
      0.3412870              1.0545100              0.7544830
SP   1   1.00
      0.1171670              1.0000000              1.0000000
D    1   1.00
      1.3000000              1.0000000
D    1   1.00
      0.3250000              1.0000000
F    1   1.00
      0.5500000              1.0000000
****
Cl     0
S    6   1.00
  25180.1000000              0.0018330
   3780.3500000              0.0140340
    860.4740000              0.0690970
    242.1450000              0.2374520
     77.3349000              0.4830340
     26.2470000              0.3398560
SP   6   1.00
    491.7650000             -0.0022974              0.0039894
    116.9840000             -0.0307140              0.0303180
     37.4153000             -0.1125280              0.1298800
     13.7834000              0.0450160              0.3279510
      5.4521500              0.5893530              0.4535270
      2.2258800              0.4652060              0.2521540
SP   3   1.00
      3.1864900             -0.2518300             -0.0142990
      1.1442700              0.0615890              0.3235720
      0.4203770              1.0601800              0.7435070
SP   1   1.00
      0.1426570              1.0000000              1.0000000
D    1   1.00
      1.5000000              1.0000000
D    1   1.00
      0.3750000              1.0000000
F    1   1.00
      0.7000000              1.0000000
****
}


set {
reference rhf                          
freeze_core true
e_convergence 10                       
d_convergence 10                      
dft_spherical_points 1202
dft_radial_points 99
}

e = energy('b3lyp')

print_out('Grab this energy {0}'.format(e))
--------------------------------------------------------------------------

  Memory set to  13.039 GiB by Python driver.

Scratch directory: /tmp/

*** tstart() called on n044
*** at Wed Jan  5 15:32:03 2022

   => Loading Basis Set <=

    Name: ANONYMOUS52FE0FCA
    Role: ORBITAL
    Keyword: BASIS
    atoms 1-2 entry C          line    48 inputblock 6-31g_2dfp_ 
    atoms 3-7 entry H          line    15 inputblock 6-31g_2dfp_ 
    atoms 8   entry CL         line   244 inputblock 6-31g_2dfp_ 


         ---------------------------------------------------------
                                   SCF
               by Justin Turney, Rob Parrish, Andy Simmonett
                          and Daniel G. A. Smith
                              RKS Reference
                        4 Threads,  13351 MiB Core
         ---------------------------------------------------------

  ==> Geometry <==

    Molecular point group: c1
    Full point group: C1

    Geometry (in Bohr), charge = 0, multiplicity = 1:

       Center              X                  Y                   Z               Mass       
    ------------   -----------------  -----------------  -----------------  -----------------
         C           -3.242832203492    -0.710799622711    -0.000342360053    12.000000000000
         C           -1.154249748092     1.253642009189    -0.001506491353    12.000000000000
         H           -3.121191735992    -1.913982162411     1.668908595347     1.007825032230
         H           -5.080834668492     0.231358999589     0.003514722347     1.007825032230
         H           -3.113920976892    -1.902920812111    -1.674694146553     1.007825032230
         H           -1.222582231492     2.452076336189     1.672454662247     1.007825032230
         H           -1.227110866192     2.438467821089    -1.675319617053     1.007825032230
         CL           1.905648466208    -0.223894119711     0.000782473147    34.968852682000

  Running in c1 symmetry.

  Rotational constants: A =      1.04870  B =      0.18293  C =      0.16542 [cm^-1]
  Rotational constants: A =  31439.20465  B =   5484.18555  C =   4959.13480 [MHz]
  Nuclear repulsion =  102.792120980282988

  Charge       = 0
  Multiplicity = 1
  Electrons    = 34
  Nalpha       = 17
  Nbeta        = 17

  ==> Algorithm <==

  SCF Algorithm Type is DF.
  DIIS enabled.
  MOM disabled.
  Fractional occupation disabled.
  Guess Type is SAD.
  Energy threshold   = 1.00e-10
  Density threshold  = 1.00e-10
  Integral threshold = 0.00e+00

  ==> Primary Basis <==

  Basis Set: ANONYMOUS52FE0FCA
    Blend: 6-31G_2DFP_
    Number of shells: 46
    Number of basis function: 122
    Number of Cartesian functions: 137
    Spherical Harmonics?: true
    Max angular momentum: 3

  ==> DFT Potential <==

   => Composite Functional: B3LYP <= 

    B3LYP Hyb-GGA Exchange-Correlation Functional

    P. J. Stephens, F. J. Devlin, C. F. Chabalowski, and M. J. Frisch, J. Phys. Chem. 98, 11623 (1994)

    Deriv               =              1
    GGA                 =           TRUE
    Meta                =          FALSE

    Exchange Hybrid     =           TRUE
    MP2 Hybrid          =          FALSE

   => Exchange Functionals <=

    0.0800   Slater exchange
    0.7200         Becke 88

   => Exact (HF) Exchange <=

    0.2000               HF 

   => Correlation Functionals <=

    0.1900   Vosko, Wilk & Nusair (VWN5_RPA)
    0.8100   Lee, Yang & Parr

   => Molecular Quadrature <=

    Radial Scheme          =       TREUTLER
    Pruning Scheme         =           NONE
    Nuclear Scheme         =       TREUTLER

    BS radius alpha        =              1
    Pruning alpha          =              1
    Radial Points          =             99
    Spherical Points       =           1202
    Total Points           =         892103
    Total Blocks           =           6047
    Max Points             =            256
    Max Functions          =            121
    Weights Tolerance      =       1.00E-15

   => Loading Basis Set <=

    Name: (ANONYMOUS52FE0FCA AUX)
    Role: JKFIT
    Keyword: DF_BASIS_SCF
    atoms 1-2 entry C          line   198 file /opt/psi/4/master/share/psi4/basis/def2-universal-jkfit.gbs 
    atoms 3-7 entry H          line    18 file /opt/psi/4/master/share/psi4/basis/def2-universal-jkfit.gbs 
    atoms 8   entry CL         line   986 file /opt/psi/4/master/share/psi4/basis/def2-universal-jkfit.gbs 

  ==> Integral Setup <==

  DFHelper Memory: AOs need 0.045 GiB; user supplied 7.106 GiB. Using in-core AOs.

  ==> MemDFJK: Density-Fitted J/K Matrices <==

    J tasked:                   Yes
    K tasked:                   Yes
    wK tasked:                   No
    OpenMP threads:               4
    Memory [MiB]:              7276
    Algorithm:                 Core
    Schwarz Cutoff:           1E-12
    Mask sparsity (%):       0.6584
    Fitting Condition:        1E-10

   => Auxiliary Basis Set <=

  Basis Set: (ANONYMOUS52FE0FCA AUX)
    Blend: DEF2-UNIVERSAL-JKFIT
    Number of shells: 118
    Number of basis function: 368
    Number of Cartesian functions: 433
    Spherical Harmonics?: true
    Max angular momentum: 4

  Cached 100.0% of DFT collocation blocks in 2.673 [GiB].

  Minimum eigenvalue in the overlap matrix is 2.1805715799E-03.
  Reciprocal condition number of the overlap matrix is 3.8224102438E-04.
    Using symmetric orthogonalization.

  ==> Pre-Iterations <==

  SCF Guess: Superposition of Atomic Densities via on-the-fly atomic UHF (no occupation information).

   -------------------------
    Irrep   Nso     Nmo    
   -------------------------
     A        122     122 
   -------------------------
    Total     122     122
   -------------------------

  ==> Iterations <==

                           Total Energy        Delta E     RMS |[F,P]|

   @DF-RKS iter SAD:  -539.00584200469405   -5.39006e+02   0.00000e+00 
   @DF-RKS iter   1:  -539.24341430833442   -2.37572e-01   4.87380e-03 DIIS
   @DF-RKS iter   2:  -539.15684587833823    8.65684e-02   5.76532e-03 DIIS
   @DF-RKS iter   3:  -539.43053211901770   -2.73686e-01   6.94536e-04 DIIS
   @DF-RKS iter   4:  -539.43405346699330   -3.52135e-03   2.23033e-04 DIIS
   @DF-RKS iter   5:  -539.43441534647468   -3.61879e-04   5.95193e-05 DIIS
   @DF-RKS iter   6:  -539.43444095859456   -2.56121e-05   9.21759e-06 DIIS
   @DF-RKS iter   7:  -539.43444162516414   -6.66570e-07   2.15416e-06 DIIS
   @DF-RKS iter   8:  -539.43444165980975   -3.46456e-08   5.82466e-07 DIIS
   @DF-RKS iter   9:  -539.43444166243478   -2.62503e-09   5.66417e-08 DIIS
   @DF-RKS iter  10:  -539.43444166245865   -2.38742e-11   1.72567e-08 DIIS
   @DF-RKS iter  11:  -539.43444166246127   -2.61480e-12   3.01398e-09 DIIS
   @DF-RKS iter  12:  -539.43444166246218   -9.09495e-13   3.87168e-10 DIIS
   @DF-RKS iter  13:  -539.43444166246172    4.54747e-13   3.49432e-11 DIIS
  Energy and wave function converged.


  ==> Post-Iterations <==

    Orbital Energies [Eh]
    ---------------------

    Doubly Occupied:                                                      

       1A   -101.513857     2A    -10.240917     3A    -10.186864  
       4A     -9.442777     5A     -7.205420     6A     -7.196833  
       7A     -7.196788     8A     -0.852935     9A     -0.741334  
      10A     -0.620046    11A     -0.476107    12A     -0.451131  
      13A     -0.408040    14A     -0.376891    15A     -0.370837  
      16A     -0.292834    17A     -0.291818  

    Virtual:                                                              

      18A      0.033681    19A      0.085514    20A      0.127776  
      21A      0.128986    22A      0.151104    23A      0.162468  
      24A      0.198038    25A      0.350508    26A      0.378568  
      27A      0.385206    28A      0.397842    29A      0.398375  
      30A      0.415725    31A      0.432245    32A      0.436461  
      33A      0.460986    34A      0.480342    35A      0.497108  
      36A      0.542223    37A      0.546862    38A      0.553346  
      39A      0.595888    40A      0.606983    41A      0.610377  
      42A      0.635340    43A      0.652428    44A      0.759676  
      45A      0.765715    46A      0.814002    47A      0.845592  
      48A      0.872035    49A      0.998367    50A      1.060708  
      51A      1.072180    52A      1.102033    53A      1.137708  
      54A      1.155105    55A      1.241298    56A      1.250585  
      57A      1.254777    58A      1.318754    59A      1.327957  
      60A      1.374622    61A      1.396518    62A      1.428471  
      63A      1.444571    64A      1.451533    65A      1.469041  
      66A      1.548935    67A      1.767025    68A      1.774833  
      69A      1.806297    70A      1.988794    71A      2.008710  
      72A      2.090419    73A      2.097314    74A      2.151143  
      75A      2.169242    76A      2.174179    77A      2.195454  
      78A      2.252896    79A      2.410123    80A      2.425999  
      81A      2.544099    82A      2.585151    83A      2.695594  
      84A      2.771190    85A      2.825620    86A      2.895706  
      87A      2.898798    88A      2.930549    89A      3.010227  
      90A      3.044858    91A      3.146780    92A      3.155134  
      93A      3.264599    94A      3.342843    95A      3.345499  
      96A      3.444687    97A      3.470779    98A      3.509850  
      99A      3.540462   100A      3.570655   101A      3.664930  
     102A      3.711244   103A      3.744066   104A      3.915535  
     105A      3.932671   106A      4.054934   107A      4.093436  
     108A      4.160066   109A      4.169853   110A      4.234698  
     111A      4.243965   112A      4.385884   113A      4.432591  
     114A      4.486744   115A      4.498469   116A      4.535316  
     117A      4.577824   118A      4.930016   119A      5.053204  
     120A      5.191536   121A      5.256539   122A      5.302118  

    Final Occupation by Irrep:
              A 
    DOCC [    17 ]

  @DF-RKS Final Energy:  -539.43444166246172

   => Energetics <=

    Nuclear Repulsion Energy =            102.7921209802829878
    One-Electron Energy =                -945.1394116698434118
    Two-Electron Energy =                 335.9811584781692204
    DFT Exchange-Correlation Energy =     -33.0683094510705615
    Empirical Dispersion Energy =           0.0000000000000000
    VV10 Nonlocal Energy =                  0.0000000000000000
    Total Energy =                       -539.4344416624617224

Computation Completed


Properties will be evaluated at   0.000000,   0.000000,   0.000000 [a0]

Properties computed using the SCF density matrix

  Nuclear Dipole Moment: [e a0]
     X:    -7.7521      Y:     0.7559      Z:    -0.0029

  Electronic Dipole Moment: [e a0]
     X:     6.9837      Y:    -0.4709      Z:     0.0016

  Dipole Moment: [e a0]
     X:    -0.7684      Y:     0.2849      Z:    -0.0013     Total:     0.8195

  Dipole Moment: [D]
     X:    -1.9531      Y:     0.7242      Z:    -0.0033     Total:     2.0831


*** tstop() called on n044 at Wed Jan  5 15:32:19 2022
Module time:
	user time   =      61.00 seconds =       1.02 minutes
	system time =       0.77 seconds =       0.01 minutes
	total time  =         16 seconds =       0.27 minutes
Total time:
	user time   =      61.00 seconds =       1.02 minutes
	system time =       0.77 seconds =       0.01 minutes
	total time  =         16 seconds =       0.27 minutes
Grab this energy -539.4344416624617
    Psi4 stopped on: Wednesday, 05 January 2022 03:32PM
    Psi4 wall time for execution: 0:00:15.97

*** Psi4 exiting successfully. Buy a developer a beer!
