
    -----------------------------------------------------------------------
          Psi4: An Open-Source Ab Initio Electronic Structure Package
                               Psi4 1.4a2.dev629 

                         Git: Rev {master} 2938fc2 dirty


    D. G. A. Smith, L. A. Burns, A. C. Simmonett, R. M. Parrish,
    M. C. Schieber, R. Galvelis, P. Kraus, H. Kruse, R. Di Remigio,
    A. Alenaizan, A. M. James, S. Lehtola, J. P. Misiewicz, M. Scheurer,
    R. A. Shaw, J. B. Schriber, Y. Xie, Z. L. Glick, D. A. Sirianni,
    J. S. O'Brien, J. M. Waldrop, A. Kumar, E. G. Hohenstein,
    B. P. Pritchard, B. R. Brooks, H. F. Schaefer III, A. Yu. Sokolov,
    K. Patkowski, A. E. DePrince III, U. Bozkaya, R. A. King,
    F. A. Evangelista, J. M. Turney, T. D. Crawford, C. D. Sherrill,
    J. Chem. Phys. 152(18) 184108 (2020). https://doi.org/10.1063/5.0006002

                            Additional Code Authors
    E. T. Seidl, C. L. Janssen, E. F. Valeev, M. L. Leininger,
    J. F. Gonthier, R. M. Richard, H. R. McAlexander, M. Saitow, X. Wang,
    P. Verma, and M. H. Lechner

             Previous Authors, Complete List of Code Contributors,
                       and Citations for Specific Modules
    https://github.com/psi4/psi4/blob/master/codemeta.json
    https://github.com/psi4/psi4/graphs/contributors
    http://psicode.org/psi4manual/master/introduction.html#citing-psifour

    -----------------------------------------------------------------------


    Psi4 started on: Wednesday, 05 January 2022 03:23PM

    Process ID: 28402
    Host:       n067
    PSIDATADIR: /opt/psi/4/master/share/psi4
    Memory:     500.0 MiB
    Threads:    4
    
  ==> Input File <==

--------------------------------------------------------------------------
import os
memory 14 GB 
 
molecule {
 C   -3.2439402180   -0.7096688837    0.0018612526
 C   -1.1529974266    1.2525556798    0.0004874511
 H   -3.1197310530   -1.9054990726    1.6689213745
 H   -5.0807994979    0.2312306599    0.0043782188
 H   -3.1147468808   -1.9119287136   -1.6743904267
 H   -1.2256144331    2.4445757732    1.6730987536
 H   -1.2248165410    2.4465035793   -1.6743894022
 Cl    1.9055693892   -0.2238182979    0.0001550369
units bohr
}

basis {

assign 6-31g_2dfp_

[ 6-31g_2dfp_ ]

spherical

!----------------------------------------------------------------------
! Basis Set Exchange
! Version v0.8.13
! https://www.basissetexchange.org
!----------------------------------------------------------------------
!   Basis set: 6-31G(2df,p)
! Description: 6-31G(2df,p)
!        Role: orbital
!     Version: 0  (Data from the original Basis Set Exchange)
!----------------------------------------------------------------------


****
H     0
S    3   1.00
     18.7311370              0.03349460
      2.8253937              0.23472695
      0.6401217              0.81375733
S    1   1.00
      0.1612778              1.00000000
P    1   1.00
      1.5000000              1.0000000
P    1   1.00
      0.3750000              1.0000000
****
B     0
S    6   1.00
   2068.8823000              0.0018663
    310.6495700              0.0142515
     70.6830330              0.0695516
     19.8610800              0.2325729
      6.2993048              0.4670787
      2.1270270              0.3634314
SP   3   1.00
      4.7279710             -0.1303938              0.0745976
      1.1903377             -0.1307889              0.3078467
      0.3594117              1.1309444              0.7434568
SP   1   1.00
      0.1267512              1.0000000              1.0000000
D    1   1.00
      0.8020000              1.0000000
D    1   1.00
      0.2005000              1.0000000
F    1   1.00
      0.5000000              1.0000000
****
C     0
S    6   1.00
   3047.5249000              0.0018347
    457.3695100              0.0140373
    103.9486900              0.0688426
     29.2101550              0.2321844
      9.2866630              0.4679413
      3.1639270              0.3623120
SP   3   1.00
      7.8682724             -0.1193324              0.0689991
      1.8812885             -0.1608542              0.3164240
      0.5442493              1.1434564              0.7443083
SP   1   1.00
      0.1687144              1.0000000              1.0000000
D    1   1.00
      1.2520000              1.0000000
D    1   1.00
      0.3130000              1.0000000
F    1   1.00
      0.8000000              1.0000000
****
N     0
S    6   1.00
   4173.5110000              0.0018348
    627.4579000              0.0139950
    142.9021000              0.0685870
     40.2343300              0.2322410
     12.8202100              0.4690700
      4.3904370              0.3604550
SP   3   1.00
     11.6263580             -0.1149610              0.0675800
      2.7162800             -0.1691180              0.3239070
      0.7722180              1.1458520              0.7408950
SP   1   1.00
      0.2120313              1.0000000              1.0000000
D    1   1.00
      1.8260000              1.0000000
D    1   1.00
      0.4565000              1.0000000
F    1   1.00
      1.0000000              1.0000000
****
O     0
S    6   1.00
   5484.6717000              0.0018311
    825.2349500              0.0139501
    188.0469600              0.0684451
     52.9645000              0.2327143
     16.8975700              0.4701930
      5.7996353              0.3585209
SP   3   1.00
     15.5396160             -0.1107775              0.0708743
      3.5999336             -0.1480263              0.3397528
      1.0137618              1.1307670              0.7271586
SP   1   1.00
      0.2700058              1.0000000              1.0000000
D    1   1.00
      2.5840000              1.0000000
D    1   1.00
      0.6460000              1.0000000
F    1   1.00
      1.4000000              1.0000000
****
F     0
S    6   1.00
   7001.7130900              0.0018196169
   1051.3660900              0.0139160796
    239.2856900              0.0684053245
     67.3974453              0.233185760
     21.5199573              0.471267439
      7.40310130             0.356618546
SP   3   1.00
     20.8479528             -0.108506975            0.0716287243
      4.80830834            -0.146451658            0.3459121030
      1.34406986             1.128688580            0.7224699570
SP   1   1.00
      0.358151393            1.0000000              1.0000000
D    1   1.00
      3.5000000              1.0000000
D    1   1.00
      0.8750000              1.0000000
F    1   1.00
      1.8500000              1.0000000
****
Al     0
S    6   1.00
  13983.1000000              0.00194267
   2098.7500000              0.0148599
    477.7050000              0.0728494
    134.3600000              0.2468300
     42.8709000              0.4872580
     14.5189000              0.3234960
SP   6   1.00
    239.6680000             -0.00292619             0.00460285
     57.4419000             -0.0374080              0.0331990
     18.2859000             -0.1144870              0.1362820
      6.5991400              0.1156350              0.3304760
      2.4904900              0.6125950              0.4491460
      0.9445400              0.3937990              0.2657040
SP   3   1.00
      1.2779000             -0.2276060             -0.0175130
      0.3975900              0.00144583             0.2445330
      0.1600950              1.0927900              0.8049340
SP   1   1.00
      0.0556577              1.0000000              1.0000000
D    1   1.00
      0.6500000              1.0000000
D    1   1.00
      0.1625000              1.0000000
F    1   1.00
      0.2500000              1.0000000
****
Si     0
S    6   1.00
  16115.9000000              0.00195948
   2425.5800000              0.01492880
    553.8670000              0.07284780
    156.3400000              0.24613000
     50.0683000              0.48591400
     17.0178000              0.32500200
SP   6   1.00
    292.7180000             -0.00278094             0.00443826
     69.8731000             -0.03571460             0.03266790
     22.3363000             -0.11498500             0.13472100
      8.1503900              0.09356340             0.32867800
      3.1345800              0.60301700             0.44964000
      1.2254300              0.41895900             0.26137200
SP   3   1.00
      1.7273800             -0.24463000            -0.01779510
      0.5729220              0.00431572             0.25353900
      0.2221920              1.09818000             0.80066900
SP   1   1.00
      0.0778369              1.00000000             1.00000000
D    1   1.00
      0.9000000              1.0000000
D    1   1.00
      0.2250000              1.0000000
F    1   1.00
      0.3200000              1.0000000
****
P     0
S    6   1.00
  19413.3000000              0.0018516
   2909.4200000              0.0142062
    661.3640000              0.0699995
    185.7590000              0.2400790
     59.1943000              0.4847620
     20.0310000              0.3352000
SP   6   1.00
    339.4780000             -0.00278217             0.00456462
     81.0101000             -0.0360499              0.03369360
     25.8780000             -0.1166310              0.13975500
      9.4522100              0.0968328              0.33936200
      3.6656600              0.6144180              0.45092100
      1.4674600              0.4037980              0.23858600
SP   3   1.00
      2.1562300             -0.2529230             -0.01776530
      0.7489970              0.0328517              0.27405800
      0.2831450              1.0812500              0.78542100
SP   1   1.00
      0.0998317              1.0000000              1.00000000
D    1   1.00
      1.1000000              1.0000000
D    1   1.00
      0.2750000              1.0000000
F    1   1.00
      0.4500000              1.0000000
****
S     0
S    6   1.00
  21917.1000000              0.0018690
   3301.4900000              0.0142300
    754.1460000              0.0696960
    212.7110000              0.2384870
     67.9896000              0.4833070
     23.0515000              0.3380740
SP   6   1.00
    423.7350000             -0.0023767              0.0040610
    100.7100000             -0.0316930              0.0306810
     32.1599000             -0.1133170              0.1304520
     11.8079000              0.0560900              0.3272050
      4.6311000              0.5922550              0.4528510
      1.8702500              0.4550060              0.2560420
SP   3   1.00
      2.6158400             -0.2503740             -0.0145110
      0.9221670              0.0669570              0.3102630
      0.3412870              1.0545100              0.7544830
SP   1   1.00
      0.1171670              1.0000000              1.0000000
D    1   1.00
      1.3000000              1.0000000
D    1   1.00
      0.3250000              1.0000000
F    1   1.00
      0.5500000              1.0000000
****
Cl     0
S    6   1.00
  25180.1000000              0.0018330
   3780.3500000              0.0140340
    860.4740000              0.0690970
    242.1450000              0.2374520
     77.3349000              0.4830340
     26.2470000              0.3398560
SP   6   1.00
    491.7650000             -0.0022974              0.0039894
    116.9840000             -0.0307140              0.0303180
     37.4153000             -0.1125280              0.1298800
     13.7834000              0.0450160              0.3279510
      5.4521500              0.5893530              0.4535270
      2.2258800              0.4652060              0.2521540
SP   3   1.00
      3.1864900             -0.2518300             -0.0142990
      1.1442700              0.0615890              0.3235720
      0.4203770              1.0601800              0.7435070
SP   1   1.00
      0.1426570              1.0000000              1.0000000
D    1   1.00
      1.5000000              1.0000000
D    1   1.00
      0.3750000              1.0000000
F    1   1.00
      0.7000000              1.0000000
****
}


set {
reference rhf                          
freeze_core true
e_convergence 10                       
d_convergence 10                      
dft_spherical_points 1202
dft_radial_points 99
}

e = energy('b3lyp')

print_out('Grab this energy {0}'.format(e))
--------------------------------------------------------------------------

  Memory set to  13.039 GiB by Python driver.

Scratch directory: /tmp/

*** tstart() called on n067
*** at Wed Jan  5 15:23:17 2022

   => Loading Basis Set <=

    Name: ANONYMOUS2B6F0CC3
    Role: ORBITAL
    Keyword: BASIS
    atoms 1-2 entry C          line    48 inputblock 6-31g_2dfp_ 
    atoms 3-7 entry H          line    15 inputblock 6-31g_2dfp_ 
    atoms 8   entry CL         line   244 inputblock 6-31g_2dfp_ 


         ---------------------------------------------------------
                                   SCF
               by Justin Turney, Rob Parrish, Andy Simmonett
                          and Daniel G. A. Smith
                              RKS Reference
                        4 Threads,  13351 MiB Core
         ---------------------------------------------------------

  ==> Geometry <==

    Molecular point group: c1
    Full point group: C1

    Geometry (in Bohr), charge = 0, multiplicity = 1:

       Center              X                  Y                   Z               Mass       
    ------------   -----------------  -----------------  -----------------  -----------------
         C           -3.243923001292    -0.709716775200     0.001373722908    12.000000000000
         C           -1.152980209892     1.252507788300    -0.000000078592    12.000000000000
         H           -3.119713836292    -1.905546964100     1.668433844808     1.007825032230
         H           -5.080782281192     0.231182768400     0.003890689108     1.007825032230
         H           -3.114729664092    -1.911976605100    -1.674877956392     1.007825032230
         H           -1.225597216392     2.444527881700     1.672611223908     1.007825032230
         H           -1.224799324292     2.446455687800    -1.674876931892     1.007825032230
         CL           1.905586605908    -0.223866189400    -0.000332492792    34.968852682000

  Running in c1 symmetry.

  Rotational constants: A =      1.04962  B =      0.18291  C =      0.16542 [cm^-1]
  Rotational constants: A =  31466.95996  B =   5483.57679  C =   4959.27366 [MHz]
  Nuclear repulsion =  102.800873898247573

  Charge       = 0
  Multiplicity = 1
  Electrons    = 34
  Nalpha       = 17
  Nbeta        = 17

  ==> Algorithm <==

  SCF Algorithm Type is DF.
  DIIS enabled.
  MOM disabled.
  Fractional occupation disabled.
  Guess Type is SAD.
  Energy threshold   = 1.00e-10
  Density threshold  = 1.00e-10
  Integral threshold = 0.00e+00

  ==> Primary Basis <==

  Basis Set: ANONYMOUS2B6F0CC3
    Blend: 6-31G_2DFP_
    Number of shells: 46
    Number of basis function: 122
    Number of Cartesian functions: 137
    Spherical Harmonics?: true
    Max angular momentum: 3

  ==> DFT Potential <==

   => Composite Functional: B3LYP <= 

    B3LYP Hyb-GGA Exchange-Correlation Functional

    P. J. Stephens, F. J. Devlin, C. F. Chabalowski, and M. J. Frisch, J. Phys. Chem. 98, 11623 (1994)

    Deriv               =              1
    GGA                 =           TRUE
    Meta                =          FALSE

    Exchange Hybrid     =           TRUE
    MP2 Hybrid          =          FALSE

   => Exchange Functionals <=

    0.0800   Slater exchange
    0.7200         Becke 88

   => Exact (HF) Exchange <=

    0.2000               HF 

   => Correlation Functionals <=

    0.1900   Vosko, Wilk & Nusair (VWN5_RPA)
    0.8100   Lee, Yang & Parr

   => Molecular Quadrature <=

    Radial Scheme          =       TREUTLER
    Pruning Scheme         =           NONE
    Nuclear Scheme         =       TREUTLER

    BS radius alpha        =              1
    Pruning alpha          =              1
    Radial Points          =             99
    Spherical Points       =           1202
    Total Points           =         892101
    Total Blocks           =           6051
    Max Points             =            256
    Max Functions          =            121
    Weights Tolerance      =       1.00E-15

   => Loading Basis Set <=

    Name: (ANONYMOUS2B6F0CC3 AUX)
    Role: JKFIT
    Keyword: DF_BASIS_SCF
    atoms 1-2 entry C          line   198 file /opt/psi/4/master/share/psi4/basis/def2-universal-jkfit.gbs 
    atoms 3-7 entry H          line    18 file /opt/psi/4/master/share/psi4/basis/def2-universal-jkfit.gbs 
    atoms 8   entry CL         line   986 file /opt/psi/4/master/share/psi4/basis/def2-universal-jkfit.gbs 

  ==> Integral Setup <==

  DFHelper Memory: AOs need 0.045 GiB; user supplied 7.106 GiB. Using in-core AOs.

  ==> MemDFJK: Density-Fitted J/K Matrices <==

    J tasked:                   Yes
    K tasked:                   Yes
    wK tasked:                   No
    OpenMP threads:               4
    Memory [MiB]:              7276
    Algorithm:                 Core
    Schwarz Cutoff:           1E-12
    Mask sparsity (%):       0.6584
    Fitting Condition:        1E-10

   => Auxiliary Basis Set <=

  Basis Set: (ANONYMOUS2B6F0CC3 AUX)
    Blend: DEF2-UNIVERSAL-JKFIT
    Number of shells: 118
    Number of basis function: 368
    Number of Cartesian functions: 433
    Spherical Harmonics?: true
    Max angular momentum: 4

  Cached 100.0% of DFT collocation blocks in 2.673 [GiB].

  Minimum eigenvalue in the overlap matrix is 2.1805675640E-03.
  Reciprocal condition number of the overlap matrix is 3.8224441354E-04.
    Using symmetric orthogonalization.

  ==> Pre-Iterations <==

  SCF Guess: Superposition of Atomic Densities via on-the-fly atomic UHF (no occupation information).

   -------------------------
    Irrep   Nso     Nmo    
   -------------------------
     A        122     122 
   -------------------------
    Total     122     122
   -------------------------

  ==> Iterations <==

                           Total Energy        Delta E     RMS |[F,P]|

   @DF-RKS iter SAD:  -539.00639970166139   -5.39006e+02   0.00000e+00 
   @DF-RKS iter   1:  -539.24335797780691   -2.36958e-01   4.87441e-03 DIIS
   @DF-RKS iter   2:  -539.15669024639169    8.66677e-02   5.76680e-03 DIIS
   @DF-RKS iter   3:  -539.43052354266774   -2.73833e-01   6.94216e-04 DIIS
   @DF-RKS iter   4:  -539.43404053151960   -3.51699e-03   2.22955e-04 DIIS
   @DF-RKS iter   5:  -539.43440201288024   -3.61481e-04   5.94751e-05 DIIS
   @DF-RKS iter   6:  -539.43442758580090   -2.55729e-05   9.22252e-06 DIIS
   @DF-RKS iter   7:  -539.43442825341174   -6.67611e-07   2.15464e-06 DIIS
   @DF-RKS iter   8:  -539.43442828807122   -3.46595e-08   5.81519e-07 DIIS
   @DF-RKS iter   9:  -539.43442829068761   -2.61639e-09   5.65823e-08 DIIS
   @DF-RKS iter  10:  -539.43442829071194   -2.43290e-11   1.72599e-08 DIIS
   @DF-RKS iter  11:  -539.43442829071421   -2.27374e-12   3.01044e-09 DIIS
   @DF-RKS iter  12:  -539.43442829071466   -4.54747e-13   3.86807e-10 DIIS
   @DF-RKS iter  13:  -539.43442829071455    1.13687e-13   3.50694e-11 DIIS
  Energy and wave function converged.


  ==> Post-Iterations <==

    Orbital Energies [Eh]
    ---------------------

    Doubly Occupied:                                                      

       1A   -101.513973     2A    -10.240898     3A    -10.186823  
       4A     -9.442894     5A     -7.205539     6A     -7.196950  
       7A     -7.196904     8A     -0.853096     9A     -0.741330  
      10A     -0.619945    11A     -0.475921    12A     -0.451315  
      13A     -0.407977    14A     -0.376660    15A     -0.371067  
      16A     -0.292899    17A     -0.291833  

    Virtual:                                                              

      18A      0.033852    19A      0.085584    20A      0.127762  
      21A      0.128941    22A      0.151319    23A      0.162288  
      24A      0.197986    25A      0.350265    26A      0.378487  
      27A      0.385304    28A      0.397886    29A      0.398296  
      30A      0.415735    31A      0.432212    32A      0.436433  
      33A      0.460933    34A      0.480333    35A      0.497304  
      36A      0.542331    37A      0.546831    38A      0.553269  
      39A      0.595989    40A      0.606779    41A      0.610309  
      42A      0.635265    43A      0.652448    44A      0.759706  
      45A      0.765718    46A      0.814087    47A      0.845801  
      48A      0.872083    49A      0.998219    50A      1.060504  
      51A      1.072057    52A      1.102133    53A      1.137699  
      54A      1.155382    55A      1.241503    56A      1.250379  
      57A      1.255210    58A      1.318275    59A      1.327948  
      60A      1.374858    61A      1.396291    62A      1.429175  
      63A      1.445000    64A      1.451430    65A      1.468348  
      66A      1.548581    67A      1.766835    68A      1.774433  
      69A      1.806543    70A      1.988408    71A      2.008518  
      72A      2.090304    73A      2.097212    74A      2.151033  
      75A      2.168999    76A      2.174493    77A      2.195691  
      78A      2.253461    79A      2.410313    80A      2.425813  
      81A      2.544188    82A      2.585411    83A      2.695309  
      84A      2.771141    85A      2.825681    86A      2.895351  
      87A      2.898816    88A      2.930797    89A      3.010760  
      90A      3.044978    91A      3.146691    92A      3.155002  
      93A      3.264710    94A      3.342497    95A      3.346108  
      96A      3.444768    97A      3.470797    98A      3.510102  
      99A      3.540838   100A      3.570613   101A      3.665020  
     102A      3.711964   103A      3.743878   104A      3.916690  
     105A      3.931921   106A      4.054681   107A      4.093381  
     108A      4.160011   109A      4.170295   110A      4.234406  
     111A      4.243876   112A      4.386752   113A      4.432071  
     114A      4.484514   115A      4.499184   116A      4.535017  
     117A      4.577533   118A      4.929754   119A      5.052476  
     120A      5.190696   121A      5.256527   122A      5.302334  

    Final Occupation by Irrep:
              A 
    DOCC [    17 ]

  @DF-RKS Final Energy:  -539.43442829071455

   => Energetics <=

    Nuclear Repulsion Energy =            102.8008738982475734
    One-Electron Energy =                -945.1557316894470659
    Two-Electron Energy =                 335.9886973127715919
    DFT Exchange-Correlation Energy =     -33.0682678122866776
    Empirical Dispersion Energy =           0.0000000000000000
    VV10 Nonlocal Energy =                  0.0000000000000000
    Total Energy =                       -539.4344282907145498

Computation Completed


Properties will be evaluated at   0.000000,   0.000000,   0.000000 [a0]

Properties computed using the SCF density matrix

  Nuclear Dipole Moment: [e a0]
     X:    -7.7521      Y:     0.7557      Z:    -0.0022

  Electronic Dipole Moment: [e a0]
     X:     6.9851      Y:    -0.4711      Z:     0.0038

  Dipole Moment: [e a0]
     X:    -0.7670      Y:     0.2845      Z:     0.0015     Total:     0.8181

  Dipole Moment: [D]
     X:    -1.9494      Y:     0.7232      Z:     0.0039     Total:     2.0793


*** tstop() called on n067 at Wed Jan  5 15:23:31 2022
Module time:
	user time   =      51.12 seconds =       0.85 minutes
	system time =       0.85 seconds =       0.01 minutes
	total time  =         14 seconds =       0.23 minutes
Total time:
	user time   =      51.12 seconds =       0.85 minutes
	system time =       0.85 seconds =       0.01 minutes
	total time  =         14 seconds =       0.23 minutes
Grab this energy -539.4344282907145
    Psi4 stopped on: Wednesday, 05 January 2022 03:23PM
    Psi4 wall time for execution: 0:00:13.47

*** Psi4 exiting successfully. Buy a developer a beer!
