
    -----------------------------------------------------------------------
          Psi4: An Open-Source Ab Initio Electronic Structure Package
                               Psi4 1.4a2.dev629 

                         Git: Rev {master} 2938fc2 dirty


    D. G. A. Smith, L. A. Burns, A. C. Simmonett, R. M. Parrish,
    M. C. Schieber, R. Galvelis, P. Kraus, H. Kruse, R. Di Remigio,
    A. Alenaizan, A. M. James, S. Lehtola, J. P. Misiewicz, M. Scheurer,
    R. A. Shaw, J. B. Schriber, Y. Xie, Z. L. Glick, D. A. Sirianni,
    J. S. O'Brien, J. M. Waldrop, A. Kumar, E. G. Hohenstein,
    B. P. Pritchard, B. R. Brooks, H. F. Schaefer III, A. Yu. Sokolov,
    K. Patkowski, A. E. DePrince III, U. Bozkaya, R. A. King,
    F. A. Evangelista, J. M. Turney, T. D. Crawford, C. D. Sherrill,
    J. Chem. Phys. 152(18) 184108 (2020). https://doi.org/10.1063/5.0006002

                            Additional Code Authors
    E. T. Seidl, C. L. Janssen, E. F. Valeev, M. L. Leininger,
    J. F. Gonthier, R. M. Richard, H. R. McAlexander, M. Saitow, X. Wang,
    P. Verma, and M. H. Lechner

             Previous Authors, Complete List of Code Contributors,
                       and Citations for Specific Modules
    https://github.com/psi4/psi4/blob/master/codemeta.json
    https://github.com/psi4/psi4/graphs/contributors
    http://psicode.org/psi4manual/master/introduction.html#citing-psifour

    -----------------------------------------------------------------------


    Psi4 started on: Wednesday, 05 January 2022 03:23PM

    Process ID: 30920
    Host:       n051
    PSIDATADIR: /opt/psi/4/master/share/psi4
    Memory:     500.0 MiB
    Threads:    4
    
  ==> Input File <==

--------------------------------------------------------------------------
import os
memory 14 GB 
 
molecule {
 C   -3.2451487944   -0.7083465120    0.0000181431
 C   -1.1535912480    1.2531489515    0.0000186972
 H   -3.1187013639   -1.9076263561    1.6755590995
 H   -5.0769649271    0.2280894797   -0.0000171690
 H   -3.1186552278   -1.9076577460   -1.6754978401
 H   -1.2258485081    2.4454772922    1.6724899409
 H   -1.2258741784    2.4455049267   -1.6724331933
 Cl    1.9077075866   -0.2246393117   -0.0000154196
units bohr
}

basis {

assign 6-31g_2dfp_

[ 6-31g_2dfp_ ]

spherical

!----------------------------------------------------------------------
! Basis Set Exchange
! Version v0.8.13
! https://www.basissetexchange.org
!----------------------------------------------------------------------
!   Basis set: 6-31G(2df,p)
! Description: 6-31G(2df,p)
!        Role: orbital
!     Version: 0  (Data from the original Basis Set Exchange)
!----------------------------------------------------------------------


****
H     0
S    3   1.00
     18.7311370              0.03349460
      2.8253937              0.23472695
      0.6401217              0.81375733
S    1   1.00
      0.1612778              1.00000000
P    1   1.00
      1.5000000              1.0000000
P    1   1.00
      0.3750000              1.0000000
****
B     0
S    6   1.00
   2068.8823000              0.0018663
    310.6495700              0.0142515
     70.6830330              0.0695516
     19.8610800              0.2325729
      6.2993048              0.4670787
      2.1270270              0.3634314
SP   3   1.00
      4.7279710             -0.1303938              0.0745976
      1.1903377             -0.1307889              0.3078467
      0.3594117              1.1309444              0.7434568
SP   1   1.00
      0.1267512              1.0000000              1.0000000
D    1   1.00
      0.8020000              1.0000000
D    1   1.00
      0.2005000              1.0000000
F    1   1.00
      0.5000000              1.0000000
****
C     0
S    6   1.00
   3047.5249000              0.0018347
    457.3695100              0.0140373
    103.9486900              0.0688426
     29.2101550              0.2321844
      9.2866630              0.4679413
      3.1639270              0.3623120
SP   3   1.00
      7.8682724             -0.1193324              0.0689991
      1.8812885             -0.1608542              0.3164240
      0.5442493              1.1434564              0.7443083
SP   1   1.00
      0.1687144              1.0000000              1.0000000
D    1   1.00
      1.2520000              1.0000000
D    1   1.00
      0.3130000              1.0000000
F    1   1.00
      0.8000000              1.0000000
****
N     0
S    6   1.00
   4173.5110000              0.0018348
    627.4579000              0.0139950
    142.9021000              0.0685870
     40.2343300              0.2322410
     12.8202100              0.4690700
      4.3904370              0.3604550
SP   3   1.00
     11.6263580             -0.1149610              0.0675800
      2.7162800             -0.1691180              0.3239070
      0.7722180              1.1458520              0.7408950
SP   1   1.00
      0.2120313              1.0000000              1.0000000
D    1   1.00
      1.8260000              1.0000000
D    1   1.00
      0.4565000              1.0000000
F    1   1.00
      1.0000000              1.0000000
****
O     0
S    6   1.00
   5484.6717000              0.0018311
    825.2349500              0.0139501
    188.0469600              0.0684451
     52.9645000              0.2327143
     16.8975700              0.4701930
      5.7996353              0.3585209
SP   3   1.00
     15.5396160             -0.1107775              0.0708743
      3.5999336             -0.1480263              0.3397528
      1.0137618              1.1307670              0.7271586
SP   1   1.00
      0.2700058              1.0000000              1.0000000
D    1   1.00
      2.5840000              1.0000000
D    1   1.00
      0.6460000              1.0000000
F    1   1.00
      1.4000000              1.0000000
****
F     0
S    6   1.00
   7001.7130900              0.0018196169
   1051.3660900              0.0139160796
    239.2856900              0.0684053245
     67.3974453              0.233185760
     21.5199573              0.471267439
      7.40310130             0.356618546
SP   3   1.00
     20.8479528             -0.108506975            0.0716287243
      4.80830834            -0.146451658            0.3459121030
      1.34406986             1.128688580            0.7224699570
SP   1   1.00
      0.358151393            1.0000000              1.0000000
D    1   1.00
      3.5000000              1.0000000
D    1   1.00
      0.8750000              1.0000000
F    1   1.00
      1.8500000              1.0000000
****
Al     0
S    6   1.00
  13983.1000000              0.00194267
   2098.7500000              0.0148599
    477.7050000              0.0728494
    134.3600000              0.2468300
     42.8709000              0.4872580
     14.5189000              0.3234960
SP   6   1.00
    239.6680000             -0.00292619             0.00460285
     57.4419000             -0.0374080              0.0331990
     18.2859000             -0.1144870              0.1362820
      6.5991400              0.1156350              0.3304760
      2.4904900              0.6125950              0.4491460
      0.9445400              0.3937990              0.2657040
SP   3   1.00
      1.2779000             -0.2276060             -0.0175130
      0.3975900              0.00144583             0.2445330
      0.1600950              1.0927900              0.8049340
SP   1   1.00
      0.0556577              1.0000000              1.0000000
D    1   1.00
      0.6500000              1.0000000
D    1   1.00
      0.1625000              1.0000000
F    1   1.00
      0.2500000              1.0000000
****
Si     0
S    6   1.00
  16115.9000000              0.00195948
   2425.5800000              0.01492880
    553.8670000              0.07284780
    156.3400000              0.24613000
     50.0683000              0.48591400
     17.0178000              0.32500200
SP   6   1.00
    292.7180000             -0.00278094             0.00443826
     69.8731000             -0.03571460             0.03266790
     22.3363000             -0.11498500             0.13472100
      8.1503900              0.09356340             0.32867800
      3.1345800              0.60301700             0.44964000
      1.2254300              0.41895900             0.26137200
SP   3   1.00
      1.7273800             -0.24463000            -0.01779510
      0.5729220              0.00431572             0.25353900
      0.2221920              1.09818000             0.80066900
SP   1   1.00
      0.0778369              1.00000000             1.00000000
D    1   1.00
      0.9000000              1.0000000
D    1   1.00
      0.2250000              1.0000000
F    1   1.00
      0.3200000              1.0000000
****
P     0
S    6   1.00
  19413.3000000              0.0018516
   2909.4200000              0.0142062
    661.3640000              0.0699995
    185.7590000              0.2400790
     59.1943000              0.4847620
     20.0310000              0.3352000
SP   6   1.00
    339.4780000             -0.00278217             0.00456462
     81.0101000             -0.0360499              0.03369360
     25.8780000             -0.1166310              0.13975500
      9.4522100              0.0968328              0.33936200
      3.6656600              0.6144180              0.45092100
      1.4674600              0.4037980              0.23858600
SP   3   1.00
      2.1562300             -0.2529230             -0.01776530
      0.7489970              0.0328517              0.27405800
      0.2831450              1.0812500              0.78542100
SP   1   1.00
      0.0998317              1.0000000              1.00000000
D    1   1.00
      1.1000000              1.0000000
D    1   1.00
      0.2750000              1.0000000
F    1   1.00
      0.4500000              1.0000000
****
S     0
S    6   1.00
  21917.1000000              0.0018690
   3301.4900000              0.0142300
    754.1460000              0.0696960
    212.7110000              0.2384870
     67.9896000              0.4833070
     23.0515000              0.3380740
SP   6   1.00
    423.7350000             -0.0023767              0.0040610
    100.7100000             -0.0316930              0.0306810
     32.1599000             -0.1133170              0.1304520
     11.8079000              0.0560900              0.3272050
      4.6311000              0.5922550              0.4528510
      1.8702500              0.4550060              0.2560420
SP   3   1.00
      2.6158400             -0.2503740             -0.0145110
      0.9221670              0.0669570              0.3102630
      0.3412870              1.0545100              0.7544830
SP   1   1.00
      0.1171670              1.0000000              1.0000000
D    1   1.00
      1.3000000              1.0000000
D    1   1.00
      0.3250000              1.0000000
F    1   1.00
      0.5500000              1.0000000
****
Cl     0
S    6   1.00
  25180.1000000              0.0018330
   3780.3500000              0.0140340
    860.4740000              0.0690970
    242.1450000              0.2374520
     77.3349000              0.4830340
     26.2470000              0.3398560
SP   6   1.00
    491.7650000             -0.0022974              0.0039894
    116.9840000             -0.0307140              0.0303180
     37.4153000             -0.1125280              0.1298800
     13.7834000              0.0450160              0.3279510
      5.4521500              0.5893530              0.4535270
      2.2258800              0.4652060              0.2521540
SP   3   1.00
      3.1864900             -0.2518300             -0.0142990
      1.1442700              0.0615890              0.3235720
      0.4203770              1.0601800              0.7435070
SP   1   1.00
      0.1426570              1.0000000              1.0000000
D    1   1.00
      1.5000000              1.0000000
D    1   1.00
      0.3750000              1.0000000
F    1   1.00
      0.7000000              1.0000000
****
}


set {
reference rhf                          
freeze_core true
e_convergence 10                       
d_convergence 10                      
dft_spherical_points 1202
dft_radial_points 99
}

e = energy('b3lyp')

print_out('Grab this energy {0}'.format(e))
--------------------------------------------------------------------------

  Memory set to  13.039 GiB by Python driver.

Scratch directory: /tmp/

*** tstart() called on n051
*** at Wed Jan  5 15:23:33 2022

   => Loading Basis Set <=

    Name: ANONYMOUS85F3CB71
    Role: ORBITAL
    Keyword: BASIS
    atoms 1-2 entry C          line    48 inputblock 6-31g_2dfp_ 
    atoms 3-7 entry H          line    15 inputblock 6-31g_2dfp_ 
    atoms 8   entry CL         line   244 inputblock 6-31g_2dfp_ 


         ---------------------------------------------------------
                                   SCF
               by Justin Turney, Rob Parrish, Andy Simmonett
                          and Daniel G. A. Smith
                              RKS Reference
                        4 Threads,  13351 MiB Core
         ---------------------------------------------------------

  ==> Geometry <==

    Molecular point group: c1
    Full point group: C1

    Geometry (in Bohr), charge = 0, multiplicity = 1:

       Center              X                  Y                   Z               Mass       
    ------------   -----------------  -----------------  -----------------  -----------------
         C           -3.245956523439    -0.708287770151     0.000018072719    12.000000000000
         C           -1.154398977039     1.253207693349     0.000018626819    12.000000000000
         H           -3.119509092939    -1.907567614251     1.675559029119     1.007825032230
         H           -5.077772656139     0.228148221549    -0.000017239381     1.007825032230
         H           -3.119462956839    -1.907599004151    -1.675497910481     1.007825032230
         H           -1.226656237139     2.445536034049     1.672489870519     1.007825032230
         H           -1.226681907439     2.445563668549    -1.672433263681     1.007825032230
         CL           1.906899857561    -0.224580569851    -0.000015489981    34.968852682000

  Running in c1 symmetry.

  Rotational constants: A =      1.04934  B =      0.18269  C =      0.16525 [cm^-1]
  Rotational constants: A =  31458.44485  B =   5477.00385  C =   4954.16001 [MHz]
  Nuclear repulsion =  102.760476916205121

  Charge       = 0
  Multiplicity = 1
  Electrons    = 34
  Nalpha       = 17
  Nbeta        = 17

  ==> Algorithm <==

  SCF Algorithm Type is DF.
  DIIS enabled.
  MOM disabled.
  Fractional occupation disabled.
  Guess Type is SAD.
  Energy threshold   = 1.00e-10
  Density threshold  = 1.00e-10
  Integral threshold = 0.00e+00

  ==> Primary Basis <==

  Basis Set: ANONYMOUS85F3CB71
    Blend: 6-31G_2DFP_
    Number of shells: 46
    Number of basis function: 122
    Number of Cartesian functions: 137
    Spherical Harmonics?: true
    Max angular momentum: 3

  ==> DFT Potential <==

   => Composite Functional: B3LYP <= 

    B3LYP Hyb-GGA Exchange-Correlation Functional

    P. J. Stephens, F. J. Devlin, C. F. Chabalowski, and M. J. Frisch, J. Phys. Chem. 98, 11623 (1994)

    Deriv               =              1
    GGA                 =           TRUE
    Meta                =          FALSE

    Exchange Hybrid     =           TRUE
    MP2 Hybrid          =          FALSE

   => Exchange Functionals <=

    0.0800   Slater exchange
    0.7200         Becke 88

   => Exact (HF) Exchange <=

    0.2000               HF 

   => Correlation Functionals <=

    0.1900   Vosko, Wilk & Nusair (VWN5_RPA)
    0.8100   Lee, Yang & Parr

   => Molecular Quadrature <=

    Radial Scheme          =       TREUTLER
    Pruning Scheme         =           NONE
    Nuclear Scheme         =       TREUTLER

    BS radius alpha        =              1
    Pruning alpha          =              1
    Radial Points          =             99
    Spherical Points       =           1202
    Total Points           =         892115
    Total Blocks           =           6030
    Max Points             =            256
    Max Functions          =            121
    Weights Tolerance      =       1.00E-15

   => Loading Basis Set <=

    Name: (ANONYMOUS85F3CB71 AUX)
    Role: JKFIT
    Keyword: DF_BASIS_SCF
    atoms 1-2 entry C          line   198 file /opt/psi/4/master/share/psi4/basis/def2-universal-jkfit.gbs 
    atoms 3-7 entry H          line    18 file /opt/psi/4/master/share/psi4/basis/def2-universal-jkfit.gbs 
    atoms 8   entry CL         line   986 file /opt/psi/4/master/share/psi4/basis/def2-universal-jkfit.gbs 

  ==> Integral Setup <==

  DFHelper Memory: AOs need 0.045 GiB; user supplied 7.106 GiB. Using in-core AOs.

  ==> MemDFJK: Density-Fitted J/K Matrices <==

    J tasked:                   Yes
    K tasked:                   Yes
    wK tasked:                   No
    OpenMP threads:               4
    Memory [MiB]:              7276
    Algorithm:                 Core
    Schwarz Cutoff:           1E-12
    Mask sparsity (%):       0.6584
    Fitting Condition:        1E-10

   => Auxiliary Basis Set <=

  Basis Set: (ANONYMOUS85F3CB71 AUX)
    Blend: DEF2-UNIVERSAL-JKFIT
    Number of shells: 118
    Number of basis function: 368
    Number of Cartesian functions: 433
    Spherical Harmonics?: true
    Max angular momentum: 4

  Cached 100.0% of DFT collocation blocks in 2.673 [GiB].

  Minimum eigenvalue in the overlap matrix is 2.1809421225E-03.
  Reciprocal condition number of the overlap matrix is 3.8229937810E-04.
    Using symmetric orthogonalization.

  ==> Pre-Iterations <==

  SCF Guess: Superposition of Atomic Densities via on-the-fly atomic UHF (no occupation information).

   -------------------------
    Irrep   Nso     Nmo    
   -------------------------
     A        122     122 
   -------------------------
    Total     122     122
   -------------------------

  ==> Iterations <==

                           Total Energy        Delta E     RMS |[F,P]|

   @DF-RKS iter SAD:  -539.00508666804296   -5.39005e+02   0.00000e+00 
   @DF-RKS iter   1:  -539.24341790610083   -2.38331e-01   4.87388e-03 DIIS
   @DF-RKS iter   2:  -539.15685586582833    8.65620e-02   5.76479e-03 DIIS
   @DF-RKS iter   3:  -539.43051476254220   -2.73659e-01   6.95368e-04 DIIS
   @DF-RKS iter   4:  -539.43404745793021   -3.53270e-03   2.23179e-04 DIIS
   @DF-RKS iter   5:  -539.43440981520098   -3.62357e-04   5.95402e-05 DIIS
   @DF-RKS iter   6:  -539.43443544226488   -2.56271e-05   9.23417e-06 DIIS
   @DF-RKS iter   7:  -539.43443611146267   -6.69198e-07   2.15860e-06 DIIS
   @DF-RKS iter   8:  -539.43443614627404   -3.48114e-08   5.82352e-07 DIIS
   @DF-RKS iter   9:  -539.43443614889759   -2.62355e-09   5.64964e-08 DIIS
   @DF-RKS iter  10:  -539.43443614892203   -2.44427e-11   1.72219e-08 DIIS
   @DF-RKS iter  11:  -539.43443614892431   -2.27374e-12   3.01860e-09 DIIS
   @DF-RKS iter  12:  -539.43443614892522   -9.09495e-13   3.87821e-10 DIIS
   @DF-RKS iter  13:  -539.43443614892442    7.95808e-13   3.50446e-11 DIIS
  Energy and wave function converged.


  ==> Post-Iterations <==

    Orbital Energies [Eh]
    ---------------------

    Doubly Occupied:                                                      

       1A   -101.513938     2A    -10.240887     3A    -10.186861  
       4A     -9.442842     5A     -7.205491     6A     -7.196898  
       7A     -7.196853     8A     -0.852754     9A     -0.741463  
      10A     -0.620068    11A     -0.475925    12A     -0.451490  
      13A     -0.407764    14A     -0.376544    15A     -0.371096  
      16A     -0.292927    17A     -0.291866  

    Virtual:                                                              

      18A      0.033359    19A      0.085723    20A      0.127808  
      21A      0.128850    22A      0.151735    23A      0.161997  
      24A      0.198024    25A      0.350270    26A      0.378501  
      27A      0.385111    28A      0.398148    29A      0.398223  
      30A      0.415726    31A      0.432243    32A      0.436597  
      33A      0.461099    34A      0.480353    35A      0.497555  
      36A      0.542367    37A      0.546633    38A      0.553556  
      39A      0.596115    40A      0.606509    41A      0.610079  
      42A      0.635403    43A      0.652376    44A      0.759322  
      45A      0.765603    46A      0.814343    47A      0.845291  
      48A      0.871944    49A      0.998707    50A      1.060325  
      51A      1.071746    52A      1.101580    53A      1.137586  
      54A      1.155612    55A      1.242363    56A      1.250198  
      57A      1.255073    58A      1.318034    59A      1.327530  
      60A      1.374807    61A      1.395546    62A      1.430172  
      63A      1.444395    64A      1.452279    65A      1.468852  
      66A      1.547883    67A      1.769540    68A      1.773819  
      69A      1.805094    70A      1.987852    71A      2.010022  
      72A      2.090379    73A      2.097267    74A      2.150907  
      75A      2.168826    76A      2.174105    77A      2.195547  
      78A      2.253099    79A      2.410242    80A      2.425494  
      81A      2.543578    82A      2.584858    83A      2.695725  
      84A      2.771309    85A      2.825377    86A      2.895617  
      87A      2.898956    88A      2.929922    89A      3.011552  
      90A      3.045065    91A      3.146928    92A      3.154411  
      93A      3.262652    94A      3.342368    95A      3.345890  
      96A      3.444600    97A      3.471109    98A      3.509957  
      99A      3.540047   100A      3.570314   101A      3.664492  
     102A      3.711850   103A      3.743429   104A      3.916721  
     105A      3.931987   106A      4.053585   107A      4.094199  
     108A      4.160471   109A      4.172051   110A      4.234495  
     111A      4.243204   112A      4.388909   113A      4.432431  
     114A      4.483087   115A      4.499762   116A      4.535119  
     117A      4.577571   118A      4.929816   119A      5.053608  
     120A      5.190955   121A      5.261252   122A      5.299142  

    Final Occupation by Irrep:
              A 
    DOCC [    17 ]

  @DF-RKS Final Energy:  -539.43443614892442

   => Energetics <=

    Nuclear Repulsion Energy =            102.7604769162051213
    One-Electron Energy =                -945.0756769169156541
    Two-Electron Energy =                 335.9490045531829310
    DFT Exchange-Correlation Energy =     -33.0682407013967747
    Empirical Dispersion Energy =           0.0000000000000000
    VV10 Nonlocal Energy =                  0.0000000000000000
    Total Energy =                       -539.4344361489244193

Computation Completed


Properties will be evaluated at   0.000000,   0.000000,   0.000000 [a0]

Properties computed using the SCF density matrix

  Nuclear Dipole Moment: [e a0]
     X:    -7.7549      Y:     0.7557      Z:     0.0001

  Electronic Dipole Moment: [e a0]
     X:     6.9852      Y:    -0.4696      Z:    -0.0001

  Dipole Moment: [e a0]
     X:    -0.7697      Y:     0.2862      Z:     0.0000     Total:     0.8212

  Dipole Moment: [D]
     X:    -1.9563      Y:     0.7274      Z:     0.0000     Total:     2.0872


*** tstop() called on n051 at Wed Jan  5 15:23:46 2022
Module time:
	user time   =      49.74 seconds =       0.83 minutes
	system time =       0.84 seconds =       0.01 minutes
	total time  =         13 seconds =       0.22 minutes
Total time:
	user time   =      49.74 seconds =       0.83 minutes
	system time =       0.84 seconds =       0.01 minutes
	total time  =         13 seconds =       0.22 minutes
Grab this energy -539.4344361489244
    Psi4 stopped on: Wednesday, 05 January 2022 03:23PM
    Psi4 wall time for execution: 0:00:13.10

*** Psi4 exiting successfully. Buy a developer a beer!
