
    -----------------------------------------------------------------------
          Psi4: An Open-Source Ab Initio Electronic Structure Package
                               Psi4 1.4a2.dev629 

                         Git: Rev {master} 2938fc2 dirty


    D. G. A. Smith, L. A. Burns, A. C. Simmonett, R. M. Parrish,
    M. C. Schieber, R. Galvelis, P. Kraus, H. Kruse, R. Di Remigio,
    A. Alenaizan, A. M. James, S. Lehtola, J. P. Misiewicz, M. Scheurer,
    R. A. Shaw, J. B. Schriber, Y. Xie, Z. L. Glick, D. A. Sirianni,
    J. S. O'Brien, J. M. Waldrop, A. Kumar, E. G. Hohenstein,
    B. P. Pritchard, B. R. Brooks, H. F. Schaefer III, A. Yu. Sokolov,
    K. Patkowski, A. E. DePrince III, U. Bozkaya, R. A. King,
    F. A. Evangelista, J. M. Turney, T. D. Crawford, C. D. Sherrill,
    J. Chem. Phys. 152(18) 184108 (2020). https://doi.org/10.1063/5.0006002

                            Additional Code Authors
    E. T. Seidl, C. L. Janssen, E. F. Valeev, M. L. Leininger,
    J. F. Gonthier, R. M. Richard, H. R. McAlexander, M. Saitow, X. Wang,
    P. Verma, and M. H. Lechner

             Previous Authors, Complete List of Code Contributors,
                       and Citations for Specific Modules
    https://github.com/psi4/psi4/blob/master/codemeta.json
    https://github.com/psi4/psi4/graphs/contributors
    http://psicode.org/psi4manual/master/introduction.html#citing-psifour

    -----------------------------------------------------------------------


    Psi4 started on: Wednesday, 05 January 2022 03:34PM

    Process ID: 29528
    Host:       n067
    PSIDATADIR: /opt/psi/4/master/share/psi4
    Memory:     500.0 MiB
    Threads:    4
    
  ==> Input File <==

--------------------------------------------------------------------------
import os
memory 14 GB 
 
molecule {
 C   -3.2430831651   -0.7104304110    0.0008923898
 C   -1.1534089363    1.2522048377   -0.0006032291
 H   -3.1219873100   -1.9103422759    1.6762962008
 H   -5.0803120528    0.2295839266    0.0006386188
 H   -3.1135358657   -1.9045065629   -1.6706585134
 H   -1.2267789868    2.4417107740    1.6765867182
 H   -1.2198772325    2.4469766113   -1.6795785021
 Cl    1.9019068880   -0.2212461753   -0.0034514243
units bohr
}

basis {

assign 6-31g_2dfp_

[ 6-31g_2dfp_ ]

spherical

!----------------------------------------------------------------------
! Basis Set Exchange
! Version v0.8.13
! https://www.basissetexchange.org
!----------------------------------------------------------------------
!   Basis set: 6-31G(2df,p)
! Description: 6-31G(2df,p)
!        Role: orbital
!     Version: 0  (Data from the original Basis Set Exchange)
!----------------------------------------------------------------------


****
H     0
S    3   1.00
     18.7311370              0.03349460
      2.8253937              0.23472695
      0.6401217              0.81375733
S    1   1.00
      0.1612778              1.00000000
P    1   1.00
      1.5000000              1.0000000
P    1   1.00
      0.3750000              1.0000000
****
B     0
S    6   1.00
   2068.8823000              0.0018663
    310.6495700              0.0142515
     70.6830330              0.0695516
     19.8610800              0.2325729
      6.2993048              0.4670787
      2.1270270              0.3634314
SP   3   1.00
      4.7279710             -0.1303938              0.0745976
      1.1903377             -0.1307889              0.3078467
      0.3594117              1.1309444              0.7434568
SP   1   1.00
      0.1267512              1.0000000              1.0000000
D    1   1.00
      0.8020000              1.0000000
D    1   1.00
      0.2005000              1.0000000
F    1   1.00
      0.5000000              1.0000000
****
C     0
S    6   1.00
   3047.5249000              0.0018347
    457.3695100              0.0140373
    103.9486900              0.0688426
     29.2101550              0.2321844
      9.2866630              0.4679413
      3.1639270              0.3623120
SP   3   1.00
      7.8682724             -0.1193324              0.0689991
      1.8812885             -0.1608542              0.3164240
      0.5442493              1.1434564              0.7443083
SP   1   1.00
      0.1687144              1.0000000              1.0000000
D    1   1.00
      1.2520000              1.0000000
D    1   1.00
      0.3130000              1.0000000
F    1   1.00
      0.8000000              1.0000000
****
N     0
S    6   1.00
   4173.5110000              0.0018348
    627.4579000              0.0139950
    142.9021000              0.0685870
     40.2343300              0.2322410
     12.8202100              0.4690700
      4.3904370              0.3604550
SP   3   1.00
     11.6263580             -0.1149610              0.0675800
      2.7162800             -0.1691180              0.3239070
      0.7722180              1.1458520              0.7408950
SP   1   1.00
      0.2120313              1.0000000              1.0000000
D    1   1.00
      1.8260000              1.0000000
D    1   1.00
      0.4565000              1.0000000
F    1   1.00
      1.0000000              1.0000000
****
O     0
S    6   1.00
   5484.6717000              0.0018311
    825.2349500              0.0139501
    188.0469600              0.0684451
     52.9645000              0.2327143
     16.8975700              0.4701930
      5.7996353              0.3585209
SP   3   1.00
     15.5396160             -0.1107775              0.0708743
      3.5999336             -0.1480263              0.3397528
      1.0137618              1.1307670              0.7271586
SP   1   1.00
      0.2700058              1.0000000              1.0000000
D    1   1.00
      2.5840000              1.0000000
D    1   1.00
      0.6460000              1.0000000
F    1   1.00
      1.4000000              1.0000000
****
F     0
S    6   1.00
   7001.7130900              0.0018196169
   1051.3660900              0.0139160796
    239.2856900              0.0684053245
     67.3974453              0.233185760
     21.5199573              0.471267439
      7.40310130             0.356618546
SP   3   1.00
     20.8479528             -0.108506975            0.0716287243
      4.80830834            -0.146451658            0.3459121030
      1.34406986             1.128688580            0.7224699570
SP   1   1.00
      0.358151393            1.0000000              1.0000000
D    1   1.00
      3.5000000              1.0000000
D    1   1.00
      0.8750000              1.0000000
F    1   1.00
      1.8500000              1.0000000
****
Al     0
S    6   1.00
  13983.1000000              0.00194267
   2098.7500000              0.0148599
    477.7050000              0.0728494
    134.3600000              0.2468300
     42.8709000              0.4872580
     14.5189000              0.3234960
SP   6   1.00
    239.6680000             -0.00292619             0.00460285
     57.4419000             -0.0374080              0.0331990
     18.2859000             -0.1144870              0.1362820
      6.5991400              0.1156350              0.3304760
      2.4904900              0.6125950              0.4491460
      0.9445400              0.3937990              0.2657040
SP   3   1.00
      1.2779000             -0.2276060             -0.0175130
      0.3975900              0.00144583             0.2445330
      0.1600950              1.0927900              0.8049340
SP   1   1.00
      0.0556577              1.0000000              1.0000000
D    1   1.00
      0.6500000              1.0000000
D    1   1.00
      0.1625000              1.0000000
F    1   1.00
      0.2500000              1.0000000
****
Si     0
S    6   1.00
  16115.9000000              0.00195948
   2425.5800000              0.01492880
    553.8670000              0.07284780
    156.3400000              0.24613000
     50.0683000              0.48591400
     17.0178000              0.32500200
SP   6   1.00
    292.7180000             -0.00278094             0.00443826
     69.8731000             -0.03571460             0.03266790
     22.3363000             -0.11498500             0.13472100
      8.1503900              0.09356340             0.32867800
      3.1345800              0.60301700             0.44964000
      1.2254300              0.41895900             0.26137200
SP   3   1.00
      1.7273800             -0.24463000            -0.01779510
      0.5729220              0.00431572             0.25353900
      0.2221920              1.09818000             0.80066900
SP   1   1.00
      0.0778369              1.00000000             1.00000000
D    1   1.00
      0.9000000              1.0000000
D    1   1.00
      0.2250000              1.0000000
F    1   1.00
      0.3200000              1.0000000
****
P     0
S    6   1.00
  19413.3000000              0.0018516
   2909.4200000              0.0142062
    661.3640000              0.0699995
    185.7590000              0.2400790
     59.1943000              0.4847620
     20.0310000              0.3352000
SP   6   1.00
    339.4780000             -0.00278217             0.00456462
     81.0101000             -0.0360499              0.03369360
     25.8780000             -0.1166310              0.13975500
      9.4522100              0.0968328              0.33936200
      3.6656600              0.6144180              0.45092100
      1.4674600              0.4037980              0.23858600
SP   3   1.00
      2.1562300             -0.2529230             -0.01776530
      0.7489970              0.0328517              0.27405800
      0.2831450              1.0812500              0.78542100
SP   1   1.00
      0.0998317              1.0000000              1.00000000
D    1   1.00
      1.1000000              1.0000000
D    1   1.00
      0.2750000              1.0000000
F    1   1.00
      0.4500000              1.0000000
****
S     0
S    6   1.00
  21917.1000000              0.0018690
   3301.4900000              0.0142300
    754.1460000              0.0696960
    212.7110000              0.2384870
     67.9896000              0.4833070
     23.0515000              0.3380740
SP   6   1.00
    423.7350000             -0.0023767              0.0040610
    100.7100000             -0.0316930              0.0306810
     32.1599000             -0.1133170              0.1304520
     11.8079000              0.0560900              0.3272050
      4.6311000              0.5922550              0.4528510
      1.8702500              0.4550060              0.2560420
SP   3   1.00
      2.6158400             -0.2503740             -0.0145110
      0.9221670              0.0669570              0.3102630
      0.3412870              1.0545100              0.7544830
SP   1   1.00
      0.1171670              1.0000000              1.0000000
D    1   1.00
      1.3000000              1.0000000
D    1   1.00
      0.3250000              1.0000000
F    1   1.00
      0.5500000              1.0000000
****
Cl     0
S    6   1.00
  25180.1000000              0.0018330
   3780.3500000              0.0140340
    860.4740000              0.0690970
    242.1450000              0.2374520
     77.3349000              0.4830340
     26.2470000              0.3398560
SP   6   1.00
    491.7650000             -0.0022974              0.0039894
    116.9840000             -0.0307140              0.0303180
     37.4153000             -0.1125280              0.1298800
     13.7834000              0.0450160              0.3279510
      5.4521500              0.5893530              0.4535270
      2.2258800              0.4652060              0.2521540
SP   3   1.00
      3.1864900             -0.2518300             -0.0142990
      1.1442700              0.0615890              0.3235720
      0.4203770              1.0601800              0.7435070
SP   1   1.00
      0.1426570              1.0000000              1.0000000
D    1   1.00
      1.5000000              1.0000000
D    1   1.00
      0.3750000              1.0000000
F    1   1.00
      0.7000000              1.0000000
****
}


set {
reference rhf                          
freeze_core true
e_convergence 10                       
d_convergence 10                      
dft_spherical_points 1202
dft_radial_points 99
}

e = energy('b3lyp')

print_out('Grab this energy {0}'.format(e))
--------------------------------------------------------------------------

  Memory set to  13.039 GiB by Python driver.

Scratch directory: /tmp/

*** tstart() called on n067
*** at Wed Jan  5 15:34:32 2022

   => Loading Basis Set <=

    Name: ANONYMOUSC68EB7A2
    Role: ORBITAL
    Keyword: BASIS
    atoms 1-2 entry C          line    48 inputblock 6-31g_2dfp_ 
    atoms 3-7 entry H          line    15 inputblock 6-31g_2dfp_ 
    atoms 8   entry CL         line   244 inputblock 6-31g_2dfp_ 


         ---------------------------------------------------------
                                   SCF
               by Justin Turney, Rob Parrish, Andy Simmonett
                          and Daniel G. A. Smith
                              RKS Reference
                        4 Threads,  13351 MiB Core
         ---------------------------------------------------------

  ==> Geometry <==

    Molecular point group: c1
    Full point group: C1

    Geometry (in Bohr), charge = 0, multiplicity = 1:

       Center              X                  Y                   Z               Mass       
    ------------   -----------------  -----------------  -----------------  -----------------
         C           -3.241199230840    -0.711651977568     0.002672046017    12.000000000000
         C           -1.151525002040     1.250983271132     0.001176427117    12.000000000000
         H           -3.120103375740    -1.911563842468     1.678075857017     1.007825032230
         H           -5.078428118540     0.228362360032     0.002418275017     1.007825032230
         H           -3.111651931440    -1.905728129468    -1.668878857183     1.007825032230
         H           -1.224895052540     2.440489207432     1.678366374417     1.007825032230
         H           -1.217993298240     2.445755044732    -1.677798845883     1.007825032230
         CL           1.903790822260    -0.222467741868    -0.001671768083    34.968852682000

  Running in c1 symmetry.

  Rotational constants: A =      1.04997  B =      0.18320  C =      0.16570 [cm^-1]
  Rotational constants: A =  31477.45237  B =   5492.06491  C =   4967.61074 [MHz]
  Nuclear repulsion =  102.857418173773297

  Charge       = 0
  Multiplicity = 1
  Electrons    = 34
  Nalpha       = 17
  Nbeta        = 17

  ==> Algorithm <==

  SCF Algorithm Type is DF.
  DIIS enabled.
  MOM disabled.
  Fractional occupation disabled.
  Guess Type is SAD.
  Energy threshold   = 1.00e-10
  Density threshold  = 1.00e-10
  Integral threshold = 0.00e+00

  ==> Primary Basis <==

  Basis Set: ANONYMOUSC68EB7A2
    Blend: 6-31G_2DFP_
    Number of shells: 46
    Number of basis function: 122
    Number of Cartesian functions: 137
    Spherical Harmonics?: true
    Max angular momentum: 3

  ==> DFT Potential <==

   => Composite Functional: B3LYP <= 

    B3LYP Hyb-GGA Exchange-Correlation Functional

    P. J. Stephens, F. J. Devlin, C. F. Chabalowski, and M. J. Frisch, J. Phys. Chem. 98, 11623 (1994)

    Deriv               =              1
    GGA                 =           TRUE
    Meta                =          FALSE

    Exchange Hybrid     =           TRUE
    MP2 Hybrid          =          FALSE

   => Exchange Functionals <=

    0.0800   Slater exchange
    0.7200         Becke 88

   => Exact (HF) Exchange <=

    0.2000               HF 

   => Correlation Functionals <=

    0.1900   Vosko, Wilk & Nusair (VWN5_RPA)
    0.8100   Lee, Yang & Parr

   => Molecular Quadrature <=

    Radial Scheme          =       TREUTLER
    Pruning Scheme         =           NONE
    Nuclear Scheme         =       TREUTLER

    BS radius alpha        =              1
    Pruning alpha          =              1
    Radial Points          =             99
    Spherical Points       =           1202
    Total Points           =         892084
    Total Blocks           =           6038
    Max Points             =            256
    Max Functions          =            121
    Weights Tolerance      =       1.00E-15

   => Loading Basis Set <=

    Name: (ANONYMOUSC68EB7A2 AUX)
    Role: JKFIT
    Keyword: DF_BASIS_SCF
    atoms 1-2 entry C          line   198 file /opt/psi/4/master/share/psi4/basis/def2-universal-jkfit.gbs 
    atoms 3-7 entry H          line    18 file /opt/psi/4/master/share/psi4/basis/def2-universal-jkfit.gbs 
    atoms 8   entry CL         line   986 file /opt/psi/4/master/share/psi4/basis/def2-universal-jkfit.gbs 

  ==> Integral Setup <==

  DFHelper Memory: AOs need 0.045 GiB; user supplied 7.106 GiB. Using in-core AOs.

  ==> MemDFJK: Density-Fitted J/K Matrices <==

    J tasked:                   Yes
    K tasked:                   Yes
    wK tasked:                   No
    OpenMP threads:               4
    Memory [MiB]:              7276
    Algorithm:                 Core
    Schwarz Cutoff:           1E-12
    Mask sparsity (%):       0.6584
    Fitting Condition:        1E-10

   => Auxiliary Basis Set <=

  Basis Set: (ANONYMOUSC68EB7A2 AUX)
    Blend: DEF2-UNIVERSAL-JKFIT
    Number of shells: 118
    Number of basis function: 368
    Number of Cartesian functions: 433
    Spherical Harmonics?: true
    Max angular momentum: 4

  Cached 100.0% of DFT collocation blocks in 2.673 [GiB].

  Minimum eigenvalue in the overlap matrix is 2.1780731037E-03.
  Reciprocal condition number of the overlap matrix is 3.8184061004E-04.
    Using symmetric orthogonalization.

  ==> Pre-Iterations <==

  SCF Guess: Superposition of Atomic Densities via on-the-fly atomic UHF (no occupation information).

   -------------------------
    Irrep   Nso     Nmo    
   -------------------------
     A        122     122 
   -------------------------
    Total     122     122
   -------------------------

  ==> Iterations <==

                           Total Energy        Delta E     RMS |[F,P]|

   @DF-RKS iter SAD:  -539.00828806164202   -5.39008e+02   0.00000e+00 
   @DF-RKS iter   1:  -539.24328083318619   -2.34993e-01   4.87507e-03 DIIS
   @DF-RKS iter   2:  -539.15635517766145    8.69257e-02   5.77034e-03 DIIS
   @DF-RKS iter   3:  -539.43052045401157   -2.74165e-01   6.93249e-04 DIIS
   @DF-RKS iter   4:  -539.43402425288969   -3.50380e-03   2.22540e-04 DIIS
   @DF-RKS iter   5:  -539.43438404534015   -3.59792e-04   5.93914e-05 DIIS
   @DF-RKS iter   6:  -539.43440955153426   -2.55062e-05   9.19425e-06 DIIS
   @DF-RKS iter   7:  -539.43441021501621   -6.63482e-07   2.15085e-06 DIIS
   @DF-RKS iter   8:  -539.43441024954120   -3.45250e-08   5.79101e-07 DIIS
   @DF-RKS iter   9:  -539.43441025213451   -2.59331e-09   5.65350e-08 DIIS
   @DF-RKS iter  10:  -539.43441025215895   -2.44427e-11   1.72968e-08 DIIS
   @DF-RKS iter  11:  -539.43441025216157   -2.61480e-12   2.98652e-09 DIIS
   @DF-RKS iter  12:  -539.43441025216134    2.27374e-13   3.85295e-10 DIIS
   @DF-RKS iter  13:  -539.43441025216180   -4.54747e-13   3.48382e-11 DIIS
  Energy and wave function converged.


  ==> Post-Iterations <==

    Orbital Energies [Eh]
    ---------------------

    Doubly Occupied:                                                      

       1A   -101.513915     2A    -10.241005     3A    -10.186782  
       4A     -9.442866     5A     -7.205505     6A     -7.196921  
       7A     -7.196875     8A     -0.853544     9A     -0.741212  
      10A     -0.619524    11A     -0.476081    12A     -0.451233  
      13A     -0.408072    14A     -0.376874    15A     -0.370866  
      16A     -0.292801    17A     -0.291715  

    Virtual:                                                              

      18A      0.034507    19A      0.085526    20A      0.127174  
      21A      0.128979    22A      0.151234    23A      0.162361  
      24A      0.198037    25A      0.350252    26A      0.378469  
      27A      0.385457    28A      0.397564    29A      0.398361  
      30A      0.415697    31A      0.431992    32A      0.436340  
      33A      0.460759    34A      0.480297    35A      0.497618  
      36A      0.542176    37A      0.546851    38A      0.553436  
      39A      0.595622    40A      0.606659    41A      0.610101  
      42A      0.635212    43A      0.652353    44A      0.759974  
      45A      0.766318    46A      0.813612    47A      0.846394  
      48A      0.871991    49A      0.998658    50A      1.060480  
      51A      1.072307    52A      1.102165    53A      1.137369  
      54A      1.155198    55A      1.241478    56A      1.250780  
      57A      1.254360    58A      1.318953    59A      1.327432  
      60A      1.374348    61A      1.396958    62A      1.427316  
      63A      1.444794    64A      1.451078    65A      1.469226  
      66A      1.549632    67A      1.766374    68A      1.773815  
      69A      1.804722    70A      1.987955    71A      2.009042  
      72A      2.090262    73A      2.097265    74A      2.151118  
      75A      2.169379    76A      2.175256    77A      2.195927  
      78A      2.252673    79A      2.410248    80A      2.426166  
      81A      2.545145    82A      2.586443    83A      2.694725  
      84A      2.771624    85A      2.825655    86A      2.895129  
      87A      2.898997    88A      2.929915    89A      3.011437  
      90A      3.044725    91A      3.146446    92A      3.155387  
      93A      3.265581    94A      3.344710    95A      3.346839  
      96A      3.445314    97A      3.471652    98A      3.510230  
      99A      3.539839   100A      3.571699   101A      3.665151  
     102A      3.713339   103A      3.745886   104A      3.915329  
     105A      3.933098   106A      4.055259   107A      4.093561  
     108A      4.157720   109A      4.170411   110A      4.232364  
     111A      4.242382   112A      4.385845   113A      4.430497  
     114A      4.485668   115A      4.498376   116A      4.534041  
     117A      4.577547   118A      4.929603   119A      5.051761  
     120A      5.186110   121A      5.257766   122A      5.299555  

    Final Occupation by Irrep:
              A 
    DOCC [    17 ]

  @DF-RKS Final Energy:  -539.43441025216180

   => Energetics <=

    Nuclear Repulsion Energy =            102.8574181737732971
    One-Electron Energy =                -945.2694036259958921
    Two-Electron Energy =                 336.0456699903139679
    DFT Exchange-Correlation Energy =     -33.0680947902532480
    Empirical Dispersion Energy =           0.0000000000000000
    VV10 Nonlocal Energy =                  0.0000000000000000
    Total Energy =                       -539.4344102521617970

Computation Completed


Properties will be evaluated at   0.000000,   0.000000,   0.000000 [a0]

Properties computed using the SCF density matrix

  Nuclear Dipole Moment: [e a0]
     X:    -7.7450      Y:     0.7514      Z:     0.0069

  Electronic Dipole Moment: [e a0]
     X:     6.9798      Y:    -0.4681      Z:    -0.0063

  Dipole Moment: [e a0]
     X:    -0.7652      Y:     0.2833      Z:     0.0006     Total:     0.8160

  Dipole Moment: [D]
     X:    -1.9450      Y:     0.7200      Z:     0.0015     Total:     2.0740


*** tstop() called on n067 at Wed Jan  5 15:34:45 2022
Module time:
	user time   =      49.33 seconds =       0.82 minutes
	system time =       0.81 seconds =       0.01 minutes
	total time  =         13 seconds =       0.22 minutes
Total time:
	user time   =      49.33 seconds =       0.82 minutes
	system time =       0.81 seconds =       0.01 minutes
	total time  =         13 seconds =       0.22 minutes
Grab this energy -539.4344102521618
    Psi4 stopped on: Wednesday, 05 January 2022 03:34PM
    Psi4 wall time for execution: 0:00:13.00

*** Psi4 exiting successfully. Buy a developer a beer!
