
    -----------------------------------------------------------------------
          Psi4: An Open-Source Ab Initio Electronic Structure Package
                               Psi4 1.4a2.dev629 

                         Git: Rev {master} 2938fc2 dirty


    D. G. A. Smith, L. A. Burns, A. C. Simmonett, R. M. Parrish,
    M. C. Schieber, R. Galvelis, P. Kraus, H. Kruse, R. Di Remigio,
    A. Alenaizan, A. M. James, S. Lehtola, J. P. Misiewicz, M. Scheurer,
    R. A. Shaw, J. B. Schriber, Y. Xie, Z. L. Glick, D. A. Sirianni,
    J. S. O'Brien, J. M. Waldrop, A. Kumar, E. G. Hohenstein,
    B. P. Pritchard, B. R. Brooks, H. F. Schaefer III, A. Yu. Sokolov,
    K. Patkowski, A. E. DePrince III, U. Bozkaya, R. A. King,
    F. A. Evangelista, J. M. Turney, T. D. Crawford, C. D. Sherrill,
    J. Chem. Phys. 152(18) 184108 (2020). https://doi.org/10.1063/5.0006002

                            Additional Code Authors
    E. T. Seidl, C. L. Janssen, E. F. Valeev, M. L. Leininger,
    J. F. Gonthier, R. M. Richard, H. R. McAlexander, M. Saitow, X. Wang,
    P. Verma, and M. H. Lechner

             Previous Authors, Complete List of Code Contributors,
                       and Citations for Specific Modules
    https://github.com/psi4/psi4/blob/master/codemeta.json
    https://github.com/psi4/psi4/graphs/contributors
    http://psicode.org/psi4manual/master/introduction.html#citing-psifour

    -----------------------------------------------------------------------


    Psi4 started on: Wednesday, 05 January 2022 03:25PM

    Process ID: 28681
    Host:       n067
    PSIDATADIR: /opt/psi/4/master/share/psi4
    Memory:     500.0 MiB
    Threads:    4
    
  ==> Input File <==

--------------------------------------------------------------------------
import os
memory 14 GB 
 
molecule {
 C   -3.2423210944   -0.7103030164   -0.0020109053
 C   -1.1537450575    1.2540652874    0.0014132538
 H   -3.1164822859   -1.9098648689    1.6757022506
 H   -5.0834412898    0.2339442693    0.0006818157
 H   -3.1162672317   -1.9103056876   -1.6750316470
 H   -1.2235241796    2.4441273602    1.6704198124
 H   -1.2234712454    2.4438540395   -1.6707948108
 Cl    1.9021757231   -0.2215666591   -0.0002575108
units bohr
}

basis {

assign 6-31g_2dfp_

[ 6-31g_2dfp_ ]

spherical

!----------------------------------------------------------------------
! Basis Set Exchange
! Version v0.8.13
! https://www.basissetexchange.org
!----------------------------------------------------------------------
!   Basis set: 6-31G(2df,p)
! Description: 6-31G(2df,p)
!        Role: orbital
!     Version: 0  (Data from the original Basis Set Exchange)
!----------------------------------------------------------------------


****
H     0
S    3   1.00
     18.7311370              0.03349460
      2.8253937              0.23472695
      0.6401217              0.81375733
S    1   1.00
      0.1612778              1.00000000
P    1   1.00
      1.5000000              1.0000000
P    1   1.00
      0.3750000              1.0000000
****
B     0
S    6   1.00
   2068.8823000              0.0018663
    310.6495700              0.0142515
     70.6830330              0.0695516
     19.8610800              0.2325729
      6.2993048              0.4670787
      2.1270270              0.3634314
SP   3   1.00
      4.7279710             -0.1303938              0.0745976
      1.1903377             -0.1307889              0.3078467
      0.3594117              1.1309444              0.7434568
SP   1   1.00
      0.1267512              1.0000000              1.0000000
D    1   1.00
      0.8020000              1.0000000
D    1   1.00
      0.2005000              1.0000000
F    1   1.00
      0.5000000              1.0000000
****
C     0
S    6   1.00
   3047.5249000              0.0018347
    457.3695100              0.0140373
    103.9486900              0.0688426
     29.2101550              0.2321844
      9.2866630              0.4679413
      3.1639270              0.3623120
SP   3   1.00
      7.8682724             -0.1193324              0.0689991
      1.8812885             -0.1608542              0.3164240
      0.5442493              1.1434564              0.7443083
SP   1   1.00
      0.1687144              1.0000000              1.0000000
D    1   1.00
      1.2520000              1.0000000
D    1   1.00
      0.3130000              1.0000000
F    1   1.00
      0.8000000              1.0000000
****
N     0
S    6   1.00
   4173.5110000              0.0018348
    627.4579000              0.0139950
    142.9021000              0.0685870
     40.2343300              0.2322410
     12.8202100              0.4690700
      4.3904370              0.3604550
SP   3   1.00
     11.6263580             -0.1149610              0.0675800
      2.7162800             -0.1691180              0.3239070
      0.7722180              1.1458520              0.7408950
SP   1   1.00
      0.2120313              1.0000000              1.0000000
D    1   1.00
      1.8260000              1.0000000
D    1   1.00
      0.4565000              1.0000000
F    1   1.00
      1.0000000              1.0000000
****
O     0
S    6   1.00
   5484.6717000              0.0018311
    825.2349500              0.0139501
    188.0469600              0.0684451
     52.9645000              0.2327143
     16.8975700              0.4701930
      5.7996353              0.3585209
SP   3   1.00
     15.5396160             -0.1107775              0.0708743
      3.5999336             -0.1480263              0.3397528
      1.0137618              1.1307670              0.7271586
SP   1   1.00
      0.2700058              1.0000000              1.0000000
D    1   1.00
      2.5840000              1.0000000
D    1   1.00
      0.6460000              1.0000000
F    1   1.00
      1.4000000              1.0000000
****
F     0
S    6   1.00
   7001.7130900              0.0018196169
   1051.3660900              0.0139160796
    239.2856900              0.0684053245
     67.3974453              0.233185760
     21.5199573              0.471267439
      7.40310130             0.356618546
SP   3   1.00
     20.8479528             -0.108506975            0.0716287243
      4.80830834            -0.146451658            0.3459121030
      1.34406986             1.128688580            0.7224699570
SP   1   1.00
      0.358151393            1.0000000              1.0000000
D    1   1.00
      3.5000000              1.0000000
D    1   1.00
      0.8750000              1.0000000
F    1   1.00
      1.8500000              1.0000000
****
Al     0
S    6   1.00
  13983.1000000              0.00194267
   2098.7500000              0.0148599
    477.7050000              0.0728494
    134.3600000              0.2468300
     42.8709000              0.4872580
     14.5189000              0.3234960
SP   6   1.00
    239.6680000             -0.00292619             0.00460285
     57.4419000             -0.0374080              0.0331990
     18.2859000             -0.1144870              0.1362820
      6.5991400              0.1156350              0.3304760
      2.4904900              0.6125950              0.4491460
      0.9445400              0.3937990              0.2657040
SP   3   1.00
      1.2779000             -0.2276060             -0.0175130
      0.3975900              0.00144583             0.2445330
      0.1600950              1.0927900              0.8049340
SP   1   1.00
      0.0556577              1.0000000              1.0000000
D    1   1.00
      0.6500000              1.0000000
D    1   1.00
      0.1625000              1.0000000
F    1   1.00
      0.2500000              1.0000000
****
Si     0
S    6   1.00
  16115.9000000              0.00195948
   2425.5800000              0.01492880
    553.8670000              0.07284780
    156.3400000              0.24613000
     50.0683000              0.48591400
     17.0178000              0.32500200
SP   6   1.00
    292.7180000             -0.00278094             0.00443826
     69.8731000             -0.03571460             0.03266790
     22.3363000             -0.11498500             0.13472100
      8.1503900              0.09356340             0.32867800
      3.1345800              0.60301700             0.44964000
      1.2254300              0.41895900             0.26137200
SP   3   1.00
      1.7273800             -0.24463000            -0.01779510
      0.5729220              0.00431572             0.25353900
      0.2221920              1.09818000             0.80066900
SP   1   1.00
      0.0778369              1.00000000             1.00000000
D    1   1.00
      0.9000000              1.0000000
D    1   1.00
      0.2250000              1.0000000
F    1   1.00
      0.3200000              1.0000000
****
P     0
S    6   1.00
  19413.3000000              0.0018516
   2909.4200000              0.0142062
    661.3640000              0.0699995
    185.7590000              0.2400790
     59.1943000              0.4847620
     20.0310000              0.3352000
SP   6   1.00
    339.4780000             -0.00278217             0.00456462
     81.0101000             -0.0360499              0.03369360
     25.8780000             -0.1166310              0.13975500
      9.4522100              0.0968328              0.33936200
      3.6656600              0.6144180              0.45092100
      1.4674600              0.4037980              0.23858600
SP   3   1.00
      2.1562300             -0.2529230             -0.01776530
      0.7489970              0.0328517              0.27405800
      0.2831450              1.0812500              0.78542100
SP   1   1.00
      0.0998317              1.0000000              1.00000000
D    1   1.00
      1.1000000              1.0000000
D    1   1.00
      0.2750000              1.0000000
F    1   1.00
      0.4500000              1.0000000
****
S     0
S    6   1.00
  21917.1000000              0.0018690
   3301.4900000              0.0142300
    754.1460000              0.0696960
    212.7110000              0.2384870
     67.9896000              0.4833070
     23.0515000              0.3380740
SP   6   1.00
    423.7350000             -0.0023767              0.0040610
    100.7100000             -0.0316930              0.0306810
     32.1599000             -0.1133170              0.1304520
     11.8079000              0.0560900              0.3272050
      4.6311000              0.5922550              0.4528510
      1.8702500              0.4550060              0.2560420
SP   3   1.00
      2.6158400             -0.2503740             -0.0145110
      0.9221670              0.0669570              0.3102630
      0.3412870              1.0545100              0.7544830
SP   1   1.00
      0.1171670              1.0000000              1.0000000
D    1   1.00
      1.3000000              1.0000000
D    1   1.00
      0.3250000              1.0000000
F    1   1.00
      0.5500000              1.0000000
****
Cl     0
S    6   1.00
  25180.1000000              0.0018330
   3780.3500000              0.0140340
    860.4740000              0.0690970
    242.1450000              0.2374520
     77.3349000              0.4830340
     26.2470000              0.3398560
SP   6   1.00
    491.7650000             -0.0022974              0.0039894
    116.9840000             -0.0307140              0.0303180
     37.4153000             -0.1125280              0.1298800
     13.7834000              0.0450160              0.3279510
      5.4521500              0.5893530              0.4535270
      2.2258800              0.4652060              0.2521540
SP   3   1.00
      3.1864900             -0.2518300             -0.0142990
      1.1442700              0.0615890              0.3235720
      0.4203770              1.0601800              0.7435070
SP   1   1.00
      0.1426570              1.0000000              1.0000000
D    1   1.00
      1.5000000              1.0000000
D    1   1.00
      0.3750000              1.0000000
F    1   1.00
      0.7000000              1.0000000
****
}


set {
reference rhf                          
freeze_core true
e_convergence 10                       
d_convergence 10                      
dft_spherical_points 1202
dft_radial_points 99
}

e = energy('b3lyp')

print_out('Grab this energy {0}'.format(e))
--------------------------------------------------------------------------

  Memory set to  13.039 GiB by Python driver.

Scratch directory: /tmp/

*** tstart() called on n067
*** at Wed Jan  5 15:25:17 2022

   => Loading Basis Set <=

    Name: ANONYMOUS47464FF4
    Role: ORBITAL
    Keyword: BASIS
    atoms 1-2 entry C          line    48 inputblock 6-31g_2dfp_ 
    atoms 3-7 entry H          line    15 inputblock 6-31g_2dfp_ 
    atoms 8   entry CL         line   244 inputblock 6-31g_2dfp_ 


         ---------------------------------------------------------
                                   SCF
               by Justin Turney, Rob Parrish, Andy Simmonett
                          and Daniel G. A. Smith
                              RKS Reference
                        4 Threads,  13351 MiB Core
         ---------------------------------------------------------

  ==> Geometry <==

    Molecular point group: c1
    Full point group: C1

    Geometry (in Bohr), charge = 0, multiplicity = 1:

       Center              X                  Y                   Z               Mass       
    ------------   -----------------  -----------------  -----------------  -----------------
         C           -3.240652946174    -0.711695917440    -0.001773566042    12.000000000000
         C           -1.152076909274     1.252672386360     0.001650593058    12.000000000000
         H           -3.114814137674    -1.911257769940     1.675939589858     1.007825032230
         H           -5.081773141574     0.232551368260     0.000919154958     1.007825032230
         H           -3.114599083474    -1.911698588640    -1.674794307742     1.007825032230
         H           -1.221856031374     2.442734459160     1.670657151658     1.007825032230
         H           -1.221803097174     2.442461138460    -1.670557471542     1.007825032230
         CL           1.903843871326    -0.222959560140    -0.000020171542    34.968852682000

  Running in c1 symmetry.

  Rotational constants: A =      1.04924  B =      0.18322  C =      0.16567 [cm^-1]
  Rotational constants: A =  31455.32824  B =   5492.68151  C =   4966.53533 [MHz]
  Nuclear repulsion =  102.850982029251952

  Charge       = 0
  Multiplicity = 1
  Electrons    = 34
  Nalpha       = 17
  Nbeta        = 17

  ==> Algorithm <==

  SCF Algorithm Type is DF.
  DIIS enabled.
  MOM disabled.
  Fractional occupation disabled.
  Guess Type is SAD.
  Energy threshold   = 1.00e-10
  Density threshold  = 1.00e-10
  Integral threshold = 0.00e+00

  ==> Primary Basis <==

  Basis Set: ANONYMOUS47464FF4
    Blend: 6-31G_2DFP_
    Number of shells: 46
    Number of basis function: 122
    Number of Cartesian functions: 137
    Spherical Harmonics?: true
    Max angular momentum: 3

  ==> DFT Potential <==

   => Composite Functional: B3LYP <= 

    B3LYP Hyb-GGA Exchange-Correlation Functional

    P. J. Stephens, F. J. Devlin, C. F. Chabalowski, and M. J. Frisch, J. Phys. Chem. 98, 11623 (1994)

    Deriv               =              1
    GGA                 =           TRUE
    Meta                =          FALSE

    Exchange Hybrid     =           TRUE
    MP2 Hybrid          =          FALSE

   => Exchange Functionals <=

    0.0800   Slater exchange
    0.7200         Becke 88

   => Exact (HF) Exchange <=

    0.2000               HF 

   => Correlation Functionals <=

    0.1900   Vosko, Wilk & Nusair (VWN5_RPA)
    0.8100   Lee, Yang & Parr

   => Molecular Quadrature <=

    Radial Scheme          =       TREUTLER
    Pruning Scheme         =           NONE
    Nuclear Scheme         =       TREUTLER

    BS radius alpha        =              1
    Pruning alpha          =              1
    Radial Points          =             99
    Spherical Points       =           1202
    Total Points           =         892109
    Total Blocks           =           6035
    Max Points             =            256
    Max Functions          =            121
    Weights Tolerance      =       1.00E-15

   => Loading Basis Set <=

    Name: (ANONYMOUS47464FF4 AUX)
    Role: JKFIT
    Keyword: DF_BASIS_SCF
    atoms 1-2 entry C          line   198 file /opt/psi/4/master/share/psi4/basis/def2-universal-jkfit.gbs 
    atoms 3-7 entry H          line    18 file /opt/psi/4/master/share/psi4/basis/def2-universal-jkfit.gbs 
    atoms 8   entry CL         line   986 file /opt/psi/4/master/share/psi4/basis/def2-universal-jkfit.gbs 

  ==> Integral Setup <==

  DFHelper Memory: AOs need 0.045 GiB; user supplied 7.106 GiB. Using in-core AOs.

  ==> MemDFJK: Density-Fitted J/K Matrices <==

    J tasked:                   Yes
    K tasked:                   Yes
    wK tasked:                   No
    OpenMP threads:               4
    Memory [MiB]:              7276
    Algorithm:                 Core
    Schwarz Cutoff:           1E-12
    Mask sparsity (%):       0.6584
    Fitting Condition:        1E-10

   => Auxiliary Basis Set <=

  Basis Set: (ANONYMOUS47464FF4 AUX)
    Blend: DEF2-UNIVERSAL-JKFIT
    Number of shells: 118
    Number of basis function: 368
    Number of Cartesian functions: 433
    Spherical Harmonics?: true
    Max angular momentum: 4

  Cached 100.0% of DFT collocation blocks in 2.673 [GiB].

  Minimum eigenvalue in the overlap matrix is 2.1799031542E-03.
  Reciprocal condition number of the overlap matrix is 3.8223197040E-04.
    Using symmetric orthogonalization.

  ==> Pre-Iterations <==

  SCF Guess: Superposition of Atomic Densities via on-the-fly atomic UHF (no occupation information).

   -------------------------
    Irrep   Nso     Nmo    
   -------------------------
     A        122     122 
   -------------------------
    Total     122     122
   -------------------------

  ==> Iterations <==

                           Total Energy        Delta E     RMS |[F,P]|

   @DF-RKS iter SAD:  -539.00770958673695   -5.39008e+02   0.00000e+00 
   @DF-RKS iter   1:  -539.24342689433763   -2.35717e-01   4.87242e-03 DIIS
   @DF-RKS iter   2:  -539.15614792864960    8.72790e-02   5.77161e-03 DIIS
   @DF-RKS iter   3:  -539.43054543759672   -2.74398e-01   6.90818e-04 DIIS
   @DF-RKS iter   4:  -539.43402817863887   -3.48274e-03   2.21856e-04 DIIS
   @DF-RKS iter   5:  -539.43438599276419   -3.57814e-04   5.97012e-05 DIIS
   @DF-RKS iter   6:  -539.43441173199017   -2.57392e-05   9.21176e-06 DIIS
   @DF-RKS iter   7:  -539.43441239716640   -6.65176e-07   2.15564e-06 DIIS
   @DF-RKS iter   8:  -539.43441243183395   -3.46676e-08   5.81038e-07 DIIS
   @DF-RKS iter   9:  -539.43441243444443   -2.61048e-09   5.66427e-08 DIIS
   @DF-RKS iter  10:  -539.43441243446887   -2.44427e-11   1.73290e-08 DIIS
   @DF-RKS iter  11:  -539.43441243447103   -2.16005e-12   2.99077e-09 DIIS
   @DF-RKS iter  12:  -539.43441243447148   -4.54747e-13   3.84783e-10 DIIS
   @DF-RKS iter  13:  -539.43441243447205   -5.68434e-13   3.48487e-11 DIIS
  Energy and wave function converged.


  ==> Post-Iterations <==

    Orbital Energies [Eh]
    ---------------------

    Doubly Occupied:                                                      

       1A   -101.513869     2A    -10.240385     3A    -10.187402  
       4A     -9.442815     5A     -7.205454     6A     -7.196871  
       7A     -7.196825     8A     -0.853495     9A     -0.741004  
      10A     -0.620034    11A     -0.476302    12A     -0.451102  
      13A     -0.408064    14A     -0.376737    15A     -0.370811  
      16A     -0.292818    17A     -0.291815  

    Virtual:                                                              

      18A      0.034328    19A      0.085593    20A      0.128024  
      21A      0.128912    22A      0.150742    23A      0.162172  
      24A      0.198012    25A      0.350433    26A      0.378530  
      27A      0.385187    28A      0.397838    29A      0.398437  
      30A      0.415749    31A      0.432062    32A      0.436354  
      33A      0.461041    34A      0.480369    35A      0.497220  
      36A      0.542404    37A      0.547042    38A      0.553118  
      39A      0.595482    40A      0.606815    41A      0.610457  
      42A      0.635666    43A      0.651882    44A      0.760297  
      45A      0.765972    46A      0.814018    47A      0.846571  
      48A      0.871304    49A      0.998515    50A      1.061081  
      51A      1.072162    52A      1.101834    53A      1.137410  
      54A      1.154871    55A      1.241442    56A      1.251271  
      57A      1.254971    58A      1.318742    59A      1.327815  
      60A      1.374530    61A      1.395896    62A      1.428742  
      63A      1.443796    64A      1.451990    65A      1.469431  
      66A      1.548247    67A      1.766326    68A      1.774367  
      69A      1.805134    70A      1.988228    71A      2.008672  
      72A      2.090323    73A      2.097289    74A      2.151611  
      75A      2.169580    76A      2.174805    77A      2.196157  
      78A      2.253480    79A      2.410699    80A      2.426418  
      81A      2.544764    82A      2.586421    83A      2.695066  
      84A      2.771414    85A      2.825386    86A      2.895537  
      87A      2.898861    88A      2.930160    89A      3.010057  
      90A      3.045772    91A      3.147571    92A      3.154580  
      93A      3.265604    94A      3.344935    95A      3.346025  
      96A      3.445605    97A      3.472138    98A      3.509332  
      99A      3.541765   100A      3.570165   101A      3.665187  
     102A      3.711901   103A      3.743706   104A      3.915296  
     105A      3.932799   106A      4.053111   107A      4.093750  
     108A      4.159927   109A      4.165984   110A      4.236366  
     111A      4.244675   112A      4.386702   113A      4.432296  
     114A      4.484334   115A      4.495938   116A      4.536292  
     117A      4.577748   118A      4.928684   119A      5.055371  
     120A      5.193644   121A      5.250879   122A      5.299255  

    Final Occupation by Irrep:
              A 
    DOCC [    17 ]

  @DF-RKS Final Energy:  -539.43441243447205

   => Energetics <=

    Nuclear Repulsion Energy =            102.8509820292519521
    One-Electron Energy =                -945.2563588421180611
    Two-Electron Energy =                 336.0392590429847246
    DFT Exchange-Correlation Energy =     -33.0682946645906881
    Empirical Dispersion Energy =           0.0000000000000000
    VV10 Nonlocal Energy =                  0.0000000000000000
    Total Energy =                       -539.4344124344720512

Computation Completed


Properties will be evaluated at   0.000000,   0.000000,   0.000000 [a0]

Properties computed using the SCF density matrix

  Nuclear Dipole Moment: [e a0]
     X:    -7.7459      Y:     0.7503      Z:     0.0011

  Electronic Dipole Moment: [e a0]
     X:     6.9806      Y:    -0.4649      Z:    -0.0010

  Dipole Moment: [e a0]
     X:    -0.7653      Y:     0.2854      Z:     0.0001     Total:     0.8168

  Dipole Moment: [D]
     X:    -1.9452      Y:     0.7254      Z:     0.0003     Total:     2.0761


*** tstop() called on n067 at Wed Jan  5 15:25:30 2022
Module time:
	user time   =      49.50 seconds =       0.82 minutes
	system time =       0.87 seconds =       0.01 minutes
	total time  =         13 seconds =       0.22 minutes
Total time:
	user time   =      49.50 seconds =       0.82 minutes
	system time =       0.87 seconds =       0.01 minutes
	total time  =         13 seconds =       0.22 minutes
Grab this energy -539.434412434472
    Psi4 stopped on: Wednesday, 05 January 2022 03:25PM
    Psi4 wall time for execution: 0:00:13.05

*** Psi4 exiting successfully. Buy a developer a beer!
