
 Primary working directories    : /tmp/1003441.237.gen4.q
 Secondary working directories  : /tmp/1003441.237.gen4.q
 Wavefunction directory         : /home/vulcan/jj04645/wfu/
 Main file repository           : /tmp/1003441.237.gen4.q/

 ARCHNAME  : Linux/x86_64
 FC        : /opt/intel/compilers_and_libraries_2016.1.150/linux/bin/intel64/ifort
 FCVERSION : 16.0.1
 BLASLIB   : -mkl
 id        : ccgc

 Nodes     nprocs
 n066         1
 ga_uses_ma=false, calling ma_init with nominal heap.
 GA-space will be limited to   8.0 MW (determined by -G option)

 Using customized tuning parameters: mindgm=10; mindgv=16; mindgc=4; mindgr=1; noblas=0; mincuda=1000; minvec=7
 default implementation of scratch files=df  

 ***,Optimization of acetyl acetylene
 memory,1000,m
 gthresh,energy=1.0d-12,orbital=1.0d-10,oneint=1.0d-16,twoint=1.0d-16,optgrad=1.0d-6,compress=1.0d-13
 geomtyp=xyz
 
 bohr
 geometry = {
  H    3.3606343110   -1.7647990952   -1.6700132221
  C    2.2737246387   -2.3131822388    0.0019039929
  H    1.9277088967   -4.3316783717   -0.0038430487
  C   -0.2133088604   -0.9163960316    0.0019039929
  H    3.3846042972   -1.7783963341    1.6624323132
  O   -2.2595173025   -1.9586694042    0.0019039929
  C   -0.0181598804    1.8502585903    0.0019039929
  C    0.2080892943    4.1316430410    0.0019039929
  H    0.3573497845    6.1367846814    0.0019039929
 }
 
 basis=VDZ
 {rhf;maxit,200}
 {ccsd(t);maxit,200}

 Variables initialized (661), CPU time= 0.00 sec
 Commands  initialized (458), CPU time= 0.01 sec, 486 directives.
 Default parameters read. Elapsed time= 0.04 sec

 Checking input...
 Passed
1


                                         ***  PROGRAM SYSTEM MOLPRO  ***
                         Copyright, University College Cardiff Consultants Limited, 2008

                                    Version 2010.1 linked May 16 2016 07:17:05


 **********************************************************************************************************************************
 LABEL *   Optimization of acetyl acetylene                                              
 Linux-4.4.3/n066(x86_64) 64 bit mpp version                                             DATE: 15-Feb-24          TIME: 13:41:37  
 **********************************************************************************************************************************

 SHA1:             9e8077add272b0f3cad6f7df79ec5211205f459d
 **********************************************************************************************************************************

 THRESHOLDS:

 ZERO    =  1.00D-12  ONEINT  =  1.00D-16  TWOINT  =  1.00D-16  PREFAC  =  1.00D-14  LOCALI  =  1.00D-09  EORDER  =  1.00D-04
 ENERGY  =  1.00D-12  ETEST   =  0.00D+00  EDENS   =  0.00D+00  THRDEDEF=  1.00D-06  GRADIENT=  1.00D-02  STEP    =  1.00D-03
 ORBITAL =  1.00D-10  CIVEC   =  1.00D-05  COEFF   =  1.00D-04  PRINTCI =  5.00D-02  PUNCHCI =  9.90D+01  OPTGRAD =  1.00D-06
 OPTENERG=  1.00D-06  OPTSTEP =  3.00D-04  THRGRAD =  1.00D-10  COMPRESS=  1.00D-13  VARMIN  =  1.00D-07  VARMAX  =  1.00D-03
 THRDOUB =  0.00D+00  THRDIV  =  1.00D-05  THRRED  =  1.00D-07  THRPSP  =  1.00D+00  THRDC   =  1.00D-10  THRCS   =  1.00D-10
 THRNRM  =  1.00D-08  THREQ   =  0.00D+00  THRDE   =  1.00D+00  THRREF  =  1.00D-05  SPARFAC =  1.00D+00  THRDLP  =  1.00D-07
 THRDIA  =  1.00D-10  THRDLS  =  1.00D-07  THRGPS  =  0.00D+00  THRKEX  =  0.00D+00  THRDIS  =  2.00D-01  THRVAR  =  1.00D-10
 THRLOC  =  1.00D-06  THRGAP  =  1.00D-06  THRLOCT = -1.00D+00  THRGAPT = -1.00D+00  THRORB  =  1.00D-06  THRMLTP =  0.00D+00
 THRCPQCI=  1.00D-10  KEXTA   =  0.00D+00  THRCOARS=  0.00D+00  SYMTOL  =  1.00D-06  GRADTOL =  1.00D-06  THROVL  =  1.00D-08
 THRORTH =  1.00D-08  GRID    =  1.00D-06  GRIDMAX =  1.00D-03  DTMAX   =  0.00D+00

 SETTING GEOMTYP        =    XYZ
 ZUNIT=BOHR
 

 Variable memory set to 1000000000 words,  buffer space   230000 words

 SETTING BASIS          =    VDZ


 Recomputing integrals since basis changed


 Using spherical harmonics

 Library entry H      S cc-pVDZ              selected for orbital group  1
 Library entry H      P cc-pVDZ              selected for orbital group  1
 Library entry C      S cc-pVDZ              selected for orbital group  2
 Library entry C      P cc-pVDZ              selected for orbital group  2
 Library entry C      D cc-pVDZ              selected for orbital group  2
 Library entry O      S cc-pVDZ              selected for orbital group  6
 Library entry O      P cc-pVDZ              selected for orbital group  6
 Library entry O      D cc-pVDZ              selected for orbital group  6

1PROGRAM * SEWARD (Integral evaluation for generally contracted gaussian basis sets)     Author: Roland Lindh, 1990

 Geometry written to block  1 of record 700


 Point group  C1  



 ATOMIC COORDINATES

 NR  ATOM    CHARGE       X              Y              Z

   1  H       1.00    3.360634311   -1.764799095   -1.670013222
   2  C       6.00    2.273724639   -2.313182239    0.001903993
   3  H       1.00    1.927708897   -4.331678372   -0.003843049
   4  C       6.00   -0.213308860   -0.916396032    0.001903993
   5  H       1.00    3.384604297   -1.778396334    1.662432313
   6  O       8.00   -2.259517302   -1.958669404    0.001903993
   7  C       6.00   -0.018159880    1.850258590    0.001903993
   8  C       6.00    0.208089294    4.131643041    0.001903993
   9  H       1.00    0.357349784    6.136784681    0.001903993

 Bond lengths in Bohr (Angstrom)

 1-2  2.068188551  2-3  2.047946914  2-4  2.852428322  2-5  2.068188551  4-6  2.296367299
     ( 1.094438245)     ( 1.083726832)     ( 1.509440059)     ( 1.094438245)     ( 1.215185238)

 4-7  2.773528605  7-8  2.292575779  8-9  2.010689357
     ( 1.467688126)     ( 1.213178852)     ( 1.064010982)

 Bond angles

  1-2-3  110.35667316   1-2-4  109.17022100   1-2-5  107.35023344   2-4-6  123.68739543

  2-4-7  115.28502355   3-2-4  109.59243750   3-2-5  110.35666915   4-2-5  109.98050361

  4-7-8  178.37112628   6-4-7  121.02758103   7-8-9  178.59357076

 NUCLEAR CHARGE:                   36
 NUMBER OF PRIMITIVE AOS:         163
 NUMBER OF SYMMETRY AOS:          158
 NUMBER OF CONTRACTIONS:           90   (  90A   )
 NUMBER OF CORE ORBITALS:           5   (   5A   )
 NUMBER OF VALENCE ORBITALS:       24   (  24A   )


 NUCLEAR REPULSION ENERGY  142.22990771


 Eigenvalues of metric

         1 0.304E-03 0.212E-02 0.377E-02 0.954E-02 0.161E-01 0.176E-01 0.220E-01 0.327E-01


 Contracted 2-electron integrals neglected if value below      1.0D-16
 AO integral compression algorithm  1   Integral accuracy      1.0D-16

     54.002 MB (compressed) written to integral file ( 70.8%)

     Node minimum: 54.002 MB, node maximum: 54.002 MB


 NUMBER OF SORTED TWO-ELECTRON INTEGRALS:    8386560.     BUFFER LENGTH:  32768
 NUMBER OF SEGMENTS:   1  SEGMENT LENGTH:    8386560      RECORD LENGTH: 524288

 Memory used in sort:       8.94 MW

 SORT1 READ     9559587. AND WROTE     6360944. INTEGRALS IN     19 RECORDS. CPU TIME:     0.08 SEC, REAL TIME:     0.11 SEC
 SORT2 READ     6360944. AND WROTE     8386560. INTEGRALS IN    206 RECORDS. CPU TIME:     0.10 SEC, REAL TIME:     0.13 SEC

 FILE SIZES:   FILE 1:    50.3 MBYTE,  FILE 4:    79.7 MBYTE,   TOTAL:    130.1 MBYTE

 OPERATOR DM      FOR CENTER  0  COORDINATES:    0.000000    0.000000    0.000000


 **********************************************************************************************************************************
 DATASETS  * FILE   NREC   LENGTH (MB)   RECORD NAMES
              1      19       50.43       500      610      700      900      950      970     1000      129      960     1100   
                                          VAR    BASINP    GEOM    SYMINP    ZMAT    AOBASIS   BASIS     P2S    ABASIS      S 
                                         1400     1410     1200     1210     1080     1600     1650     1300     1700   
                                           T        V       H0       H01     AOSYM     SMH    MOLCAS    ERIS     OPER   

 PROGRAMS   *        TOTAL       INT
 CPU TIMES  *         1.08      1.04
 REAL TIME  *         1.37 SEC
 DISK USED  *       184.80 MB      
 GA USED    *         0.00 MB       (max)       0.00 MB       (current)
 **********************************************************************************************************************************

1PROGRAM * RHF-SCF (CLOSED SHELL)       Authors: W. Meyer, H.-J. Werner


 NUMBER OF ELECTRONS:      18+   18-    SPACE SYMMETRY=1    SPIN SYMMETRY: Singlet 
 CONVERGENCE THRESHOLDS:    1.00E-10 (Density)    1.00E-13 (Energy)
 MAX. NUMBER OF ITERATIONS:      200
 INTERPOLATION TYPE:            DIIS
 INTERPOLATION STEPS:              2 (START)      1 (STEP)
 LEVEL SHIFTS:                  0.00 (CLOSED)  0.00 (OPEN) 



 Orbital guess generated from atomic densities. Full valence occupancy:   29

 Molecular orbital dump at record        2100.2

 ITERATION    DDIFF          GRAD             ENERGY        2-EL.EN.            DIPOLE MOMENTS         DIIS
    1      0.000D+00      0.000D+00      -228.51840555    442.467206    1.92420    1.01513   -0.00366    0
    2      0.000D+00      0.891D-02      -228.57141280    440.622969    0.82693    0.44476    0.00015    1
    3      0.212D-01      0.653D-02      -228.60351608    441.178095    1.22524    0.61411   -0.00057    2
    4      0.782D-02      0.106D-02      -228.60536911    441.309849    1.16749    0.62415   -0.00058    3
    5      0.237D-02      0.401D-03      -228.60563185    441.203383    1.16328    0.58198   -0.00046    4
    6      0.831D-03      0.148D-03      -228.60566877    441.235949    1.16435    0.59209   -0.00044    5
    7      0.319D-03      0.623D-04      -228.60567765    441.225848    1.16085    0.58454   -0.00045    6
    8      0.163D-03      0.257D-04      -228.60567924    441.228902    1.16059    0.58384   -0.00045    7
    9      0.769D-04      0.709D-05      -228.60567940    441.227647    1.16006    0.58335   -0.00045    8
   10      0.281D-04      0.161D-05      -228.60567941    441.228079    1.15996    0.58334   -0.00045    7
   11      0.547D-05      0.742D-06      -228.60567941    441.227848    1.15992    0.58334   -0.00045    8
   12      0.237D-05      0.401D-06      -228.60567942    441.227887    1.15991    0.58333   -0.00045    8
   13      0.188D-05      0.191D-06      -228.60567942    441.227876    1.15991    0.58332   -0.00045    9
   14      0.849D-06      0.652D-07      -228.60567942    441.227878    1.15991    0.58332   -0.00045    9
   15      0.276D-06      0.133D-07      -228.60567942    441.227879    1.15991    0.58332   -0.00045    8
   16      0.469D-07      0.426D-08      -228.60567942    441.227879    1.15991    0.58332   -0.00045    8
   17      0.904D-08      0.196D-08      -228.60567942    441.227879    1.15991    0.58332   -0.00045    9
   18      0.429D-08      0.606D-09      -228.60567942    441.227879    1.15991    0.58332   -0.00045    9
   19      0.148D-08      0.202D-09      -228.60567942    441.227879    1.15991    0.58332   -0.00045    9
   20      0.542D-09      0.406D-10      -228.60567942    441.227879    1.15991    0.58332   -0.00045    7
   21      0.117D-09      0.120D-10      -228.60567942    441.227879    1.15991    0.58332   -0.00045    7
   22      0.281D-10      0.651D-11      -228.60567942    441.227879    1.15991    0.58332   -0.00045    7
   23      0.176D-10      0.350D-11      -228.60567942    441.227879    1.15991    0.58332   -0.00045    8
   24      0.123D-10      0.139D-11      -228.60567942    441.227879    1.15991    0.58332   -0.00045    0

 Final occupancy:  18

 !RHF STATE 1.1 Energy               -228.605679415230
 Nuclear energy                       142.22990771
 One-electron energy                 -591.44952663
 Two-electron energy                  220.61393950
 Virial quotient                       -1.00147427
 !RHF STATE 1.1 Dipole moment           1.15991126     0.58331558    -0.00045428
 Dipole moment /Debye                   2.94800725     1.48254322    -0.00115458

 Orbital energies:

         1.1          2.1          3.1          4.1          5.1          6.1          7.1          8.1          9.1         10.1
    -20.568353   -11.368640   -11.272650   -11.261531   -11.252597    -1.403934    -1.070633    -1.015772    -0.860451    -0.733008

        11.1         12.1         13.1         14.1         15.1         16.1         17.1         18.1         19.1         20.1
     -0.684766    -0.637400    -0.613814    -0.572230    -0.517517    -0.445509    -0.417684    -0.414334     0.094161     0.180452


 **********************************************************************************************************************************
 DATASETS  * FILE   NREC   LENGTH (MB)   RECORD NAMES
              1      19       50.43       500      610      700      900      950      970     1000      129      960     1100   
                                          VAR    BASINP    GEOM    SYMINP    ZMAT    AOBASIS   BASIS     P2S    ABASIS      S 
                                         1400     1410     1200     1210     1080     1600     1650     1300     1700   
                                           T        V       H0       H01     AOSYM     SMH    MOLCAS    ERIS     OPER   

              2       3        0.57       700     1000     2100   
                                         GEOM     BASIS     RHF  

 PROGRAMS   *        TOTAL       RHF       INT
 CPU TIMES  *         2.69      1.61      1.04
 REAL TIME  *         3.16 SEC
 DISK USED  *       184.80 MB      
 GA USED    *         0.00 MB       (max)       0.00 MB       (current)
 **********************************************************************************************************************************


1PROGRAM * CCSD (Closed-shell coupled cluster)     Authors: C. Hampel, H.-J. Werner, 1991, M. Deegan, P.J. Knowles, 1992


 Convergence thresholds:  THRVAR = 1.00D-08  THRDEN = 1.00D-12

 CCSD(T)     terms to be evaluated (factor= 1.000)


 Number of core orbitals:           5 (   5 )
 Number of closed-shell orbitals:  13 (  13 )
 Number of external orbitals:      72 (  72 )

 Molecular orbitals read from record     2100.2  Type=RHF/CANONICAL (state 1.1)

 Number of N-1 electron functions:              13
 Number of N-2 electron functions:              91
 Number of singly external CSFs:               936
 Number of doubly external CSFs:            438516
 Total number of CSFs:                      439453

 Length of J-op  integral file:               0.00 MB
 Length of K-op  integral file:               0.59 MB
 Length of 3-ext integral record:             0.00 MB

 Memory could be reduced to 7.27 Mwords without degradation in triples

 Integral transformation finished. Total CPU:   0.39 sec, npass=  1  Memory used:   6.58 MW

 Reference energy:                   -228.60567942

 MP2 singlet pair energy:              -0.43052266
 MP2 triplet pair energy:              -0.26902873
 MP2 correlation energy:               -0.69955139
 MP2 total energy:                   -229.30523081

 SCS-MP2 correlation energy:           -0.68402284   (PS=  1.200000  PT=  0.333333)
 SCS-MP2 total energy:               -229.28970226

 ITER.      SQ.NORM     CORR.ENERGY   TOTAL ENERGY   ENERGY CHANGE        DEN1      VAR(S)    VAR(P)  DIIS     TIME
   1      1.25726308    -0.72722101  -229.33290043    -0.02766962    -0.00370737  0.60D-02  0.55D-02  1  1     1.33
   2      1.28001198    -0.72999362  -229.33567303    -0.00277260    -0.02080548  0.12D-03  0.98D-03  2  2     2.31
   3      1.29066956    -0.73076899  -229.33644840    -0.00077537    -0.00476060  0.11D-03  0.92D-04  3  3     3.30
   4      1.29495372    -0.73073385  -229.33641326     0.00003514    -0.00140781  0.80D-05  0.18D-04  4  4     4.28
   5      1.29681366    -0.73075490  -229.33643431    -0.00002105    -0.00044459  0.16D-05  0.20D-05  5  5     5.27
   6      1.29723843    -0.73075084  -229.33643025     0.00000406    -0.00006254  0.28D-06  0.27D-06  6  6     6.25
   7      1.29732599    -0.73074665  -229.33642607     0.00000418    -0.00000183  0.56D-07  0.30D-07  6  1     7.24
   8      1.29736404    -0.73074762  -229.33642704    -0.00000097    -0.00000946  0.11D-07  0.48D-08  6  2     8.23
   9      1.29736621    -0.73074772  -229.33642714    -0.00000010     0.00000298  0.17D-08  0.83D-09  6  3     9.22
  10      1.29736895    -0.73074744  -229.33642686     0.00000028    -0.00000057  0.33D-09  0.16D-09  6  4    10.21
  11      1.29736877    -0.73074770  -229.33642711    -0.00000025     0.00000057  0.42D-10  0.32D-10  6  5    11.20
  12      1.29736848    -0.73074765  -229.33642707     0.00000004     0.00000015  0.82D-11  0.62D-11  6  6    12.20
  13      1.29736813    -0.73074768  -229.33642710    -0.00000003     0.00000015  0.95D-12  0.16D-11  6  1    13.18
  14      1.29736790    -0.73074768  -229.33642710    -0.00000000     0.00000006  0.28D-12  0.24D-12  6  2    14.18
  15      1.29736779    -0.73074768  -229.33642710    -0.00000000     0.00000003  0.45D-13  0.51D-13  6  3    15.17
  16      1.29736774    -0.73074769  -229.33642710    -0.00000000     0.00000001  0.90D-14  0.10D-13  6  4    16.15
  17      1.29736772    -0.73074769  -229.33642710    -0.00000000     0.00000000  0.29D-14  0.13D-14  6  5    17.14
  18      1.29736772    -0.73074769  -229.33642710    -0.00000000    -0.00000000  0.55D-15  0.27D-15  6  6    18.13
  19      1.29736772    -0.73074769  -229.33642710    -0.00000000    -0.00000000  0.19D-15  0.61D-16  6  1    19.11
  20      1.29736772    -0.73074769  -229.33642710    -0.00000000    -0.00000000  0.80D-16  0.18D-16  6  4    20.10
  21      1.29736772    -0.73074769  -229.33642710    -0.00000000     0.00000000  0.28D-16  0.59D-17  6  2    21.08
  22      1.29736772    -0.73074769  -229.33642710    -0.00000000    -0.00000000  0.53D-17  0.15D-17  6  6    22.06
  23      1.29736772    -0.73074769  -229.33642710     0.00000000     0.00000000  0.14D-17  0.38D-18  6  3    23.06
  24      1.29736772    -0.73074769  -229.33642710    -0.00000000     0.00000000  0.42D-18  0.11D-18  6  5    24.04
  25      1.29736772    -0.73074769  -229.33642710     0.00000000     0.00000000  0.43D-19  0.23D-19  6  4    25.03
  26      1.29736772    -0.73074769  -229.33642710    -0.00000000     0.00000000  0.97D-20  0.42D-20  6  1    26.01
  27      1.29736772    -0.73074769  -229.33642710     0.00000000    -0.00000000  0.10D-20  0.61D-21  6  2    27.00

 Norm of t1 vector:      0.10832565      S-energy:     0.00000000      T1 diagnostic:  0.01502207
                                                                       D1 diagnostic:  0.05037008

 Doubles amplitudes (print threshold =  0.500E-01):

         I         J         SYM. A    SYM. B    A         B      T(IJ, AB)

        10        10         1         1         1         1     -0.05787398
        12        12         1         1         2         2     -0.06464623
        13        13         1         1         1         1     -0.07372909


 Total CPU time for triples:      9.08 sec


 RESULTS
 =======

  Reference energy                   -228.605679415230
  CCSD singlet pair energy             -0.496637367096
  CCSD triplet pair energy             -0.234110320630
  CCSD correlation energy              -0.730747687726

  Triples (T) contribution             -0.028476795720
  Total correlation energy             -0.759224483446

  CCSD total energy                  -229.336427102955
  CCSD[T] energy                     -229.366759892514
  CCSD-T energy                      -229.364200925693
 !CCSD(T) total energy               -229.364903898676

 Timing summary (sec):

 STEP                 CPU(USER)    SYS     CPU(TOT)    WALL
 Transformation          0.41      0.04      0.45      0.46
 CCSD iterations        26.60      0.78     27.38     27.44
 Triples                 9.08      0.24      9.32      9.32

 Program statistics:

 Available memory in ccsd:               999999224
 Min. memory needed in ccsd:               1253983
 Max. memory used in ccsd:                 1626745
 Max. memory used in cckext:               1605212 (27 integral passes)



 **********************************************************************************************************************************
 DATASETS  * FILE   NREC   LENGTH (MB)   RECORD NAMES
              1      20       79.18       500      610      700      900      950      970     1000      129      960     1100   
                                          VAR    BASINP    GEOM    SYMINP    ZMAT    AOBASIS   BASIS     P2S    ABASIS      S 
                                         1400     1410     1200     1210     1080     1600     1650     1300     1700     1380   
                                           T        V       H0       H01     AOSYM     SMH    MOLCAS    ERIS     OPER     JKOP   

              2       3        0.57       700     1000     2100   
                                         GEOM     BASIS     RHF  

 PROGRAMS   *        TOTAL   CCSD(T)       RHF       INT
 CPU TIMES  *        38.79     36.09      1.61      1.04
 REAL TIME  *        40.42 SEC
 DISK USED  *       211.92 MB      
 GA USED    *         0.00 MB       (max)       0.00 MB       (current)
 **********************************************************************************************************************************

        CCSD(T)         RHF-SCF 
   -229.36490390   -228.60567942
 **********************************************************************************************************************************
 Variable memory released
