
 Primary working directories    : /tmp/1049102.465.gen4.q
 Secondary working directories  : /tmp/1049102.465.gen4.q
 Wavefunction directory         : /home/vulcan/mel64643/wfu/
 Main file repository           : /tmp/1049102.465.gen4.q/

 ARCHNAME  : Linux/x86_64
 FC        : /opt/intel/compilers_and_libraries_2016.1.150/linux/bin/intel64/ifort
 FCVERSION : 16.0.1
 BLASLIB   : -mkl
 id        : ccgc

 Nodes     nprocs
 n067         1
 ga_uses_ma=false, calling ma_init with nominal heap.
 GA-space will be limited to   8.0 MW (determined by -G option)

 Using customized tuning parameters: mindgm=10; mindgv=16; mindgc=4; mindgr=1; noblas=0; mincuda=1000; minvec=7
 default implementation of scratch files=df  

 ***,Optimization of h2o_3
 memory,1000,m
 gthresh,energy=1.0d-12,orbital=1.0d-10,oneint=1.0d-16,twoint=1.0d-16,optgrad=1.0d-6,compress=1.0d-13
 geomtyp=xyz
 
 
 
 bohr
 geometry = {
  C    0.9155797154    1.4072251323   -2.2706704055
  C    0.7402251399    2.7110763340    0.0208198358
  C    0.9980641739    1.4100934774    2.3005141233
  C    1.4309661941   -1.2021916727    2.2930272115
  C    1.6070488313   -2.5055515514    0.0015791322
  C    1.3492687734   -1.2043449625   -2.2779110229
  H    0.6980173325    2.4150970221   -4.0402701068
  H    0.3980816381    4.7301319428    0.0265064268
  H    0.8486661235    2.4187617170    4.0769448585
  H    1.6368025062   -2.2111449700    4.0638284490
  H    1.9316708961   -4.5279771897   -0.0041006880
  H    1.4915773964   -2.2136384068   -4.0548548299
  N   -5.4427235572   -0.3583885153   -0.0705642638
  H   -5.5911505568   -1.5691568930   -1.5515447929
  H   -6.0690665394   -1.3173368589    1.4686735566
  H   -3.5620962004   -0.0744442034    0.1981001931
 }
 
 basis=aug-cc-pvdz, H=cc-pvdz
 {rhf;maxit,200}
 {ccsd(t)}

 Variables initialized (661), CPU time= 0.00 sec
 Commands  initialized (458), CPU time= 0.01 sec, 486 directives.
 Default parameters read. Elapsed time= 0.04 sec

 Checking input...
 Passed
1


                                         ***  PROGRAM SYSTEM MOLPRO  ***
                         Copyright, University College Cardiff Consultants Limited, 2008

                                    Version 2010.1 linked May 16 2016 07:17:05


 **********************************************************************************************************************************
 LABEL *   Optimization of h2o_3                                                         
 Linux-4.4.3/n067(x86_64) 64 bit mpp version                                             DATE: 19-Mar-24          TIME: 07:11:21  
 **********************************************************************************************************************************

 SHA1:             9e8077add272b0f3cad6f7df79ec5211205f459d
 **********************************************************************************************************************************

 THRESHOLDS:

 ZERO    =  1.00D-12  ONEINT  =  1.00D-16  TWOINT  =  1.00D-16  PREFAC  =  1.00D-14  LOCALI  =  1.00D-09  EORDER  =  1.00D-04
 ENERGY  =  1.00D-12  ETEST   =  0.00D+00  EDENS   =  0.00D+00  THRDEDEF=  1.00D-06  GRADIENT=  1.00D-02  STEP    =  1.00D-03
 ORBITAL =  1.00D-10  CIVEC   =  1.00D-05  COEFF   =  1.00D-04  PRINTCI =  5.00D-02  PUNCHCI =  9.90D+01  OPTGRAD =  1.00D-06
 OPTENERG=  1.00D-06  OPTSTEP =  3.00D-04  THRGRAD =  1.00D-10  COMPRESS=  1.00D-13  VARMIN  =  1.00D-07  VARMAX  =  1.00D-03
 THRDOUB =  0.00D+00  THRDIV  =  1.00D-05  THRRED  =  1.00D-07  THRPSP  =  1.00D+00  THRDC   =  1.00D-10  THRCS   =  1.00D-10
 THRNRM  =  1.00D-08  THREQ   =  0.00D+00  THRDE   =  1.00D+00  THRREF  =  1.00D-05  SPARFAC =  1.00D+00  THRDLP  =  1.00D-07
 THRDIA  =  1.00D-10  THRDLS  =  1.00D-07  THRGPS  =  0.00D+00  THRKEX  =  0.00D+00  THRDIS  =  2.00D-01  THRVAR  =  1.00D-10
 THRLOC  =  1.00D-06  THRGAP  =  1.00D-06  THRLOCT = -1.00D+00  THRGAPT = -1.00D+00  THRORB  =  1.00D-06  THRMLTP =  0.00D+00
 THRCPQCI=  1.00D-10  KEXTA   =  0.00D+00  THRCOARS=  0.00D+00  SYMTOL  =  1.00D-06  GRADTOL =  1.00D-06  THROVL  =  1.00D-08
 THRORTH =  1.00D-08  GRID    =  1.00D-06  GRIDMAX =  1.00D-03  DTMAX   =  0.00D+00

 SETTING GEOMTYP        =    XYZ
 ZUNIT=BOHR
 

 Variable memory set to 1000000000 words,  buffer space   230000 words

 SETTING BASIS          =    AUG-CC-PVDZ,H=CC-PVDZ


 Recomputing integrals since basis changed


 Using spherical harmonics

 Library entry C      S aug-cc-pVDZ          selected for orbital group  1
 Library entry C      P aug-cc-pVDZ          selected for orbital group  1
 Library entry C      D aug-cc-pVDZ          selected for orbital group  1
 Library entry H      S cc-pVDZ              selected for orbital group  2
 Library entry H      P cc-pVDZ              selected for orbital group  2
 Library entry N      S aug-cc-pVDZ          selected for orbital group  3
 Library entry N      P aug-cc-pVDZ          selected for orbital group  3
 Library entry N      D aug-cc-pVDZ          selected for orbital group  3

1PROGRAM * SEWARD (Integral evaluation for generally contracted gaussian basis sets)     Author: Roland Lindh, 1990

 Geometry written to block  1 of record 700


 Point group  C1  



 ATOMIC COORDINATES

 NR  ATOM    CHARGE       X              Y              Z

   1  C       6.00    0.915579715    1.407225132   -2.270670406
   2  C       6.00    0.740225140    2.711076334    0.020819836
   3  C       6.00    0.998064174    1.410093477    2.300514123
   4  C       6.00    1.430966194   -1.202191673    2.293027212
   5  C       6.00    1.607048831   -2.505551551    0.001579132
   6  C       6.00    1.349268773   -1.204344963   -2.277911023
   7  H       1.00    0.698017332    2.415097022   -4.040270107
   8  H       1.00    0.398081638    4.730131943    0.026506427
   9  H       1.00    0.848666124    2.418761717    4.076944859
  10  H       1.00    1.636802506   -2.211144970    4.063828449
  11  H       1.00    1.931670896   -4.527977190   -0.004100688
  12  H       1.00    1.491577396   -2.213638407   -4.054854830
  13  N       7.00   -5.442723557   -0.358388515   -0.070564264
  14  H       1.00   -5.591150557   -1.569156893   -1.551544793
  15  H       1.00   -6.069066539   -1.317336859    1.468673557
  16  H       1.00   -3.562096200   -0.074444203    0.198100193

 Bond lengths in Bohr (Angstrom)

 1-2  2.642291564  1-6  2.647345271  1-7  2.048077694  2-3  2.637431213  2-8  2.047847666
     ( 1.398240475)     ( 1.400914782)     ( 1.083796038)     ( 1.395668488)     ( 1.083674313)

  3- 4  2.647922567   3- 9  2.048276727   4- 5  2.642061008   4-10  2.048436566   5- 6  2.637359382
       ( 1.401220273)       ( 1.083901362)       ( 1.398118470)       ( 1.083985945)       ( 1.395630477)

  5-11  2.048320582   6-12  2.048524907  13-14  1.918669843  13-15  1.918629856  13-16  1.920823838
       ( 1.083924569)       ( 1.084032693)       ( 1.015316352)       ( 1.015295192)       ( 1.016456198)

 Bond angles

  1- 2- 3  119.98068030   1- 2- 8  120.00085553   1- 6- 5  120.02353331   1- 6-12  119.98594816

  2-1-6  120.00199503   2-1-7  119.96266691   2-3-4  120.01167713   2-3-9  119.97359668

  3- 2- 8  120.01815909   3- 4- 5  120.00135775   3- 4-10  119.99356165   4- 3- 9  120.01298807

  4- 5- 6  119.98072854   4- 5-11  120.00280919   5- 4-10  120.00462651   5- 6-12  119.99013195

  6- 1- 7  120.03276953   6- 5-11  120.01529522  14-13-15  106.17607583  14-13-16  106.08043223

 15-13-16  106.33745550

 NUCLEAR CHARGE:                   52
 NUMBER OF PRIMITIVE AOS:         322
 NUMBER OF SYMMETRY AOS:          308
 NUMBER OF CONTRACTIONS:          206   ( 206A   )
 NUMBER OF CORE ORBITALS:           7   (   7A   )
 NUMBER OF VALENCE ORBITALS:       37   (  37A   )


 NUCLEAR REPULSION ENERGY  273.71014092


 Eigenvalues of metric

         1 0.861E-05 0.184E-04 0.228E-04 0.532E-04 0.639E-04 0.647E-04 0.107E-03 0.107E-03


 Contracted 2-electron integrals neglected if value below      1.0D-16
 AO integral compression algorithm  1   Integral accuracy      1.0D-16

     1893.204 MB (compressed) written to integral file ( 94.6%)

     Node minimum: 1893.204 MB, node maximum: 1893.204 MB


 NUMBER OF SORTED TWO-ELECTRON INTEGRALS:  227303181.     BUFFER LENGTH:  32768
 NUMBER OF SEGMENTS:  15  SEGMENT LENGTH:   15999503      RECORD LENGTH: 524288

 Memory used in sort:      16.56 MW

 SORT1 READ   250229995. AND WROTE   226408706. INTEGRALS IN    654 RECORDS. CPU TIME:     2.45 SEC, REAL TIME:     5.41 SEC
 SORT2 READ   226408706. AND WROTE   227303181. INTEGRALS IN   7222 RECORDS. CPU TIME:     1.41 SEC, REAL TIME:     2.31 SEC

 FILE SIZES:   FILE 1:  1743.7 MBYTE,  FILE 4:  2743.1 MBYTE,   TOTAL:   4486.8 MBYTE

 OPERATOR DM      FOR CENTER  0  COORDINATES:    0.000000    0.000000    0.000000


 **********************************************************************************************************************************
 DATASETS  * FILE   NREC   LENGTH (MB)   RECORD NAMES
              1      19     1744.24       500      610      700      900      950      970     1000      129      960     1100   
                                          VAR    BASINP    GEOM    SYMINP    ZMAT    AOBASIS   BASIS     P2S    ABASIS      S 
                                         1400     1410     1200     1210     1080     1600     1650     1300     1700   
                                           T        V       H0       H01     AOSYM     SMH    MOLCAS    ERIS     OPER   

 PROGRAMS   *        TOTAL       INT
 CPU TIMES  *        14.71     14.67
 REAL TIME  *        19.64 SEC
 DISK USED  *         6.38 GB      
 GA USED    *         0.01 MB       (max)       0.00 MB       (current)
 **********************************************************************************************************************************

1PROGRAM * RHF-SCF (CLOSED SHELL)       Authors: W. Meyer, H.-J. Werner


 NUMBER OF ELECTRONS:      26+   26-    SPACE SYMMETRY=1    SPIN SYMMETRY: Singlet 
 CONVERGENCE THRESHOLDS:    1.00E-10 (Density)    1.00E-13 (Energy)
 MAX. NUMBER OF ITERATIONS:      200
 INTERPOLATION TYPE:            DIIS
 INTERPOLATION STEPS:              2 (START)      1 (STEP)
 LEVEL SHIFTS:                  0.00 (CLOSED)  0.00 (OPEN) 



 Orbital guess generated from atomic densities. Full valence occupancy:   44

 Molecular orbital dump at record        2100.2

 ITERATION    DDIFF          GRAD             ENERGY        2-EL.EN.            DIPOLE MOMENTS         DIIS
    1      0.000D+00      0.000D+00      -286.85321423    740.882634    0.51960   -0.76785    0.13590    0
    2      0.000D+00      0.322D-02      -286.92077354    735.092039    0.43523   -0.38423    0.06215    1
    3      0.826D-02      0.133D-02      -286.93010225    737.723894    0.45178   -0.52274    0.09215    2
    4      0.217D-02      0.381D-03      -286.93132028    737.204150    0.45038   -0.49598    0.08437    3
    5      0.783D-03      0.526D-04      -286.93134409    737.192909    0.45621   -0.50610    0.08834    4
    6      0.135D-03      0.177D-04      -286.93134653    737.207806    0.45506   -0.50059    0.08625    5
    7      0.511D-04      0.554D-05      -286.93134680    737.204728    0.45572   -0.50281    0.08701    6
    8      0.150D-04      0.129D-05      -286.93134682    737.203723    0.45587   -0.50245    0.08687    7
    9      0.417D-05      0.541D-06      -286.93134682    737.204181    0.45590   -0.50254    0.08690    7
   10      0.148D-05      0.142D-06      -286.93134682    737.204130    0.45591   -0.50255    0.08690    7
   11      0.513D-06      0.404D-07      -286.93134682    737.204115    0.45592   -0.50254    0.08690    7
   12      0.139D-06      0.170D-07      -286.93134682    737.204129    0.45592   -0.50255    0.08690    8
   13      0.588D-07      0.733D-08      -286.93134682    737.204124    0.45592   -0.50255    0.08690    8
   14      0.316D-07      0.351D-08      -286.93134682    737.204126    0.45592   -0.50255    0.08690    8
   15      0.192D-07      0.137D-08      -286.93134682    737.204126    0.45592   -0.50255    0.08690    8
   16      0.709D-08      0.461D-09      -286.93134682    737.204125    0.45592   -0.50255    0.08690    9
   17      0.216D-08      0.132D-09      -286.93134682    737.204126    0.45592   -0.50255    0.08690    9
   18      0.409D-09      0.444D-10      -286.93134682    737.204126    0.45592   -0.50255    0.08690    9
   19      0.173D-09      0.244D-10      -286.93134682    737.204126    0.45592   -0.50255    0.08690    9
   20      0.155D-09      0.930D-11      -286.93134682    737.204126    0.45592   -0.50255    0.08690    9
   21      0.186D-09      0.432D-11      -286.93134682    737.204126    0.45592   -0.50255    0.08690    9
   22      0.196D-09      0.167D-11      -286.93134682    737.204126    0.45592   -0.50255    0.08690    9
   23      0.151D-09      0.791D-12      -286.93134682    737.204126    0.45592   -0.50255    0.08690    9
   24      0.108D-09      0.646D-12      -286.93134682    737.204126    0.45592   -0.50255    0.08690    9
   25      0.704D-10      0.539D-12      -286.93134682    737.204126    0.45592   -0.50255    0.08690    9
   26      0.410D-10      0.567D-12      -286.93134682    737.204126    0.45592   -0.50255    0.08690    9
   27      0.346D-10      0.479D-12      -286.93134682    737.204126    0.45592   -0.50255    0.08690    9
   28      0.203D-10      0.462D-12      -286.93134682    737.204126    0.45592   -0.50255    0.08690    9
   29      0.198D-10      0.489D-12      -286.93134682    737.204126    0.45592   -0.50255    0.08690    9
   30      0.165D-10      0.441D-12      -286.93134682    737.204126    0.45592   -0.50255    0.08690    9
   31      0.163D-10      0.489D-12      -286.93134682    737.204126    0.45592   -0.50255    0.08690    9
   32      0.176D-10      0.539D-12      -286.93134682    737.204126    0.45592   -0.50255    0.08690    9
   33      0.981D-11      0.423D-12      -286.93134682    737.204126    0.45592   -0.50255    0.08690    9
   34      0.106D-10      0.415D-12      -286.93134682    737.204126    0.45592   -0.50255    0.08690    9
   35      0.217D-10      0.484D-12      -286.93134682    737.204126    0.45592   -0.50255    0.08690    9
   36      0.907D-11      0.515D-12      -286.93134682    737.204126    0.45592   -0.50255    0.08690    0

 Final occupancy:  26

 !RHF STATE 1.1 Energy               -286.931346824533
 Nuclear energy                       273.71014092
 One-electron energy                 -929.24355054
 Two-electron energy                  368.60206280
 Virial quotient                       -1.00146484
 !RHF STATE 1.1 Dipole moment           0.45591534    -0.50254565     0.08689598
 Dipole moment /Debye                   1.15874531    -1.27725998     0.22085309

 Orbital energies:

         1.1          2.1          3.1          4.1          5.1          6.1          7.1          8.1          9.1         10.1
    -15.535006   -11.250672   -11.250099   -11.249627   -11.248861   -11.248622   -11.247741    -1.157506    -1.125560    -1.022865

        11.1         12.1         13.1         14.1         15.1         16.1         17.1         18.1         19.1         20.1
     -1.021145    -0.831244    -0.829930    -0.714503    -0.650456    -0.623921    -0.611677    -0.609819    -0.594153    -0.592876

        21.1         22.1         23.1         24.1         25.1         26.1         27.1         28.1
     -0.504903    -0.500625    -0.499501    -0.413439    -0.343143    -0.341818     0.063883     0.066431


 **********************************************************************************************************************************
 DATASETS  * FILE   NREC   LENGTH (MB)   RECORD NAMES
              1      19     1744.24       500      610      700      900      950      970     1000      129      960     1100   
                                          VAR    BASINP    GEOM    SYMINP    ZMAT    AOBASIS   BASIS     P2S    ABASIS      S 
                                         1400     1410     1200     1210     1080     1600     1650     1300     1700   
                                           T        V       H0       H01     AOSYM     SMH    MOLCAS    ERIS     OPER   

              2       3        1.40       700     1000     2100   
                                         GEOM     BASIS     RHF  

 PROGRAMS   *        TOTAL       RHF       INT
 CPU TIMES  *        77.35     62.63     14.67
 REAL TIME  *        88.93 SEC
 DISK USED  *         6.38 GB      
 GA USED    *         0.01 MB       (max)       0.00 MB       (current)
 **********************************************************************************************************************************


1PROGRAM * CCSD (Closed-shell coupled cluster)     Authors: C. Hampel, H.-J. Werner, 1991, M. Deegan, P.J. Knowles, 1992


 Convergence thresholds:  THRVAR = 1.00D-08  THRDEN = 1.00D-12

 CCSD(T)     terms to be evaluated (factor= 1.000)


 Number of core orbitals:           7 (   7 )
 Number of closed-shell orbitals:  19 (  19 )
 Number of external orbitals:     180 ( 180 )

 Molecular orbitals read from record     2100.2  Type=RHF/CANONICAL (state 1.1)

 Number of N-1 electron functions:              19
 Number of N-2 electron functions:             190
 Number of singly external CSFs:              3420
 Number of doubly external CSFs:           5849910
 Total number of CSFs:                     5853331

 Length of J-op  integral file:               0.00 MB
 Length of K-op  integral file:               2.96 MB
 Length of 3-ext integral record:             0.00 MB

 Memory could be reduced to 140.12 Mwords without degradation in triples

 Integral transformation finished. Total CPU:  13.96 sec, npass=  1  Memory used: 101.90 MW

 Reference energy:                   -286.93134682

 MP2 singlet pair energy:              -0.62063211
 MP2 triplet pair energy:              -0.38983352
 MP2 correlation energy:               -1.01046562
 MP2 total energy:                   -287.94181245

 SCS-MP2 correlation energy:           -0.98732160   (PS=  1.200000  PT=  0.333333)
 SCS-MP2 total energy:               -287.91866843

 ITER.      SQ.NORM     CORR.ENERGY   TOTAL ENERGY   ENERGY CHANGE        DEN1      VAR(S)    VAR(P)  DIIS     TIME
   1      1.38488327    -1.05475779  -287.98610461    -0.04429216    -0.01721340  0.36D-02  0.80D-02  1  1    50.94
   2      1.41439641    -1.06062044  -287.99196727    -0.00586265    -0.02705307  0.63D-04  0.10D-02  2  2    88.39
   3      1.42352767    -1.06071617  -287.99206299    -0.00009573    -0.00464350  0.27D-04  0.84D-04  3  3   125.83
   4      1.42746505    -1.06088492  -287.99223175    -0.00016875    -0.00121413  0.22D-05  0.11D-04  4  4   163.28
   5      1.42867871    -1.06091587  -287.99226270    -0.00003095    -0.00027321  0.27D-06  0.13D-05  5  5   200.75
   6      1.42898132    -1.06090564  -287.99225246     0.00001024    -0.00004349  0.23D-07  0.79D-07  6  6   238.24
   7      1.42902208    -1.06090727  -287.99225409    -0.00000163    -0.00000103  0.35D-08  0.82D-08  6  2   275.73
   8      1.42903126    -1.06090712  -287.99225395     0.00000014    -0.00000117  0.75D-09  0.76D-09  6  1   313.23
   9      1.42903108    -1.06090726  -287.99225408    -0.00000014     0.00000123  0.21D-09  0.92D-10  6  4   350.69
  10      1.42903228    -1.06090727  -287.99225410    -0.00000001    -0.00000018  0.57D-10  0.15D-10  6  3   388.18
  11      1.42903222    -1.06090729  -287.99225411    -0.00000002     0.00000013  0.14D-10  0.37D-11  6  5   425.70
  12      1.42903218    -1.06090729  -287.99225412    -0.00000000     0.00000003  0.15D-11  0.10D-11  6  6   463.18
  13      1.42903200    -1.06090729  -287.99225412    -0.00000000     0.00000006  0.70D-13  0.20D-12  6  2   500.67
  14      1.42903190    -1.06090730  -287.99225412    -0.00000000     0.00000002  0.81D-14  0.40D-13  6  1   538.17
  15      1.42903184    -1.06090730  -287.99225412    -0.00000000     0.00000001  0.89D-15  0.53D-14  6  3   575.64
  16      1.42903182    -1.06090730  -287.99225412    -0.00000000     0.00000000  0.12D-15  0.37D-15  6  4   613.13
  17      1.42903182    -1.06090730  -287.99225412    -0.00000000     0.00000000  0.31D-16  0.44D-16  6  5   650.60
  18      1.42903181    -1.06090730  -287.99225412    -0.00000000     0.00000000  0.82D-17  0.70D-17  6  6   688.08
  19      1.42903181    -1.06090730  -287.99225412    -0.00000000     0.00000000  0.24D-17  0.77D-18  6  2   725.57
  20      1.42903181    -1.06090730  -287.99225412    -0.00000000     0.00000000  0.77D-18  0.19D-18  6  1   763.01
  21      1.42903181    -1.06090730  -287.99225412    -0.00000000     0.00000000  0.29D-18  0.78D-19  6  3   800.46
  22      1.42903181    -1.06090730  -287.99225412    -0.00000000     0.00000000  0.12D-18  0.37D-19  6  4   837.94
  23      1.42903181    -1.06090730  -287.99225412    -0.00000000     0.00000000  0.51D-19  0.21D-19  6  6   875.41

 Norm of t1 vector:      0.08385744      S-energy:    -0.00000000      T1 diagnostic:  0.00961911
                                                                       D1 diagnostic:  0.02616326


 Total CPU time for triples:    732.95 sec


 RESULTS
 =======

  Reference energy                   -286.931346824532
  CCSD singlet pair energy             -0.711156508427
  CCSD triplet pair energy             -0.349750787215
  CCSD correlation energy              -1.060907295643

  Triples (T) contribution             -0.045602870711
  Total correlation energy             -1.106510166355

  CCSD total energy                  -287.992254120175
  CCSD[T] energy                     -288.038727214113
  CCSD-T energy                      -288.037468444783
 !CCSD(T) total energy               -288.037856990886

 Timing summary (sec):

 STEP                 CPU(USER)    SYS     CPU(TOT)    WALL
 Transformation         14.38      0.83     15.21     15.22
 CCSD iterations       861.05     12.24    873.29    873.39
 Triples               732.95     11.35    744.30    744.29

 Program statistics:

 Available memory in ccsd:               999998456
 Min. memory needed in ccsd:              14392275
 Max. memory used in ccsd:                19775697
 Max. memory used in cckext:              16737545 (23 integral passes)



 **********************************************************************************************************************************
 DATASETS  * FILE   NREC   LENGTH (MB)   RECORD NAMES
              1      20     2287.84       500      610      700      900      950      970     1000      129      960     1100   
                                          VAR    BASINP    GEOM    SYMINP    ZMAT    AOBASIS   BASIS     P2S    ABASIS      S 
                                         1400     1410     1200     1210     1080     1600     1650     1300     1700     1380   
                                           T        V       H0       H01     AOSYM     SMH    MOLCAS    ERIS     OPER     JKOP   

              2       3        1.40       700     1000     2100   
                                         GEOM     BASIS     RHF  

 PROGRAMS   *        TOTAL   CCSD(T)       RHF       INT
 CPU TIMES  *      1685.75   1608.40     62.63     14.67
 REAL TIME  *      1721.94 SEC
 DISK USED  *         6.38 GB      
 GA USED    *         0.01 MB       (max)       0.00 MB       (current)
 **********************************************************************************************************************************

        CCSD(T)         RHF-SCF 
   -288.03785699   -286.93134682
 **********************************************************************************************************************************
 Variable memory released
