
 Primary working directories    : /tmp/1049502.1571.gen4.q
 Secondary working directories  : /tmp/1049502.1571.gen4.q
 Wavefunction directory         : /home/vulcan/jj04645/wfu/
 Main file repository           : /tmp/1049502.1571.gen4.q/

 ARCHNAME  : Linux/x86_64
 FC        : /opt/intel/compilers_and_libraries_2016.1.150/linux/bin/intel64/ifort
 FCVERSION : 16.0.1
 BLASLIB   : -mkl
 id        : ccgc

 Nodes     nprocs
 n026         1
 ga_uses_ma=false, calling ma_init with nominal heap.
 GA-space will be limited to   8.0 MW (determined by -G option)

 Using customized tuning parameters: mindgm=10; mindgv=16; mindgc=4; mindgr=1; noblas=0; mincuda=1000; minvec=7
 default implementation of scratch files=df  

 ***,Optimization of neopentane
 memory,1000,m
 gthresh,energy=1.0d-12,orbital=1.0d-10,oneint=1.0d-16,twoint=1.0d-16,optgrad=1.0d-6,compress=1.0d-13
 geomtyp=xyz
 
 bohr
 geometry = {
  C    0.0011117982    0.0011117982    0.0000000000
  C    2.3665504008    0.0011150625   -1.6726246012
  C    0.0011150625   -2.3643333332    1.6726153682
  C    0.0011150625    2.3665504008    1.6726246012
  C   -2.3643333332    0.0011150625   -1.6726153682
  H    2.3990841977    1.6778242302   -2.8812386832
  H   -1.6730774450   -2.4040009569    2.8845006790
  H    1.6778242302    2.3990841977    2.8812386832
  H   -2.4040009569   -1.6730774450   -2.8845006790
  H    4.0828819541    0.0037096841   -0.5205137789
  H   -0.0015112524   -4.0852357115    0.5273432665
  H    0.0037096841    4.0828819541    0.5205137789
  H   -4.0852357115   -0.0015112524   -0.5273432665
  H    2.4087465059   -1.6704165227   -2.8880923003
  H    1.6700850059   -2.4136486803    2.8913308412
  H   -1.6704165227    2.4087465059    2.8880923003
  H   -2.4136486803    1.6700850059   -2.8913308412
 }
 
 basis=VDZ
 {rhf;maxit,200}
 {ccsd(t);maxit,200}

 Variables initialized (661), CPU time= 0.00 sec
 Commands  initialized (458), CPU time= 0.01 sec, 486 directives.
 Default parameters read. Elapsed time= 0.07 sec

 Checking input...
 Passed
1


                                         ***  PROGRAM SYSTEM MOLPRO  ***
                         Copyright, University College Cardiff Consultants Limited, 2008

                                    Version 2010.1 linked May 16 2016 07:17:05


 **********************************************************************************************************************************
 LABEL *   Optimization of neopentane                                                    
 Linux-4.4.3/n026(x86_64) 64 bit mpp version                                             DATE: 31-Mar-24          TIME: 02:13:07  
 **********************************************************************************************************************************

 SHA1:             9e8077add272b0f3cad6f7df79ec5211205f459d
 **********************************************************************************************************************************

 THRESHOLDS:

 ZERO    =  1.00D-12  ONEINT  =  1.00D-16  TWOINT  =  1.00D-16  PREFAC  =  1.00D-14  LOCALI  =  1.00D-09  EORDER  =  1.00D-04
 ENERGY  =  1.00D-12  ETEST   =  0.00D+00  EDENS   =  0.00D+00  THRDEDEF=  1.00D-06  GRADIENT=  1.00D-02  STEP    =  1.00D-03
 ORBITAL =  1.00D-10  CIVEC   =  1.00D-05  COEFF   =  1.00D-04  PRINTCI =  5.00D-02  PUNCHCI =  9.90D+01  OPTGRAD =  1.00D-06
 OPTENERG=  1.00D-06  OPTSTEP =  3.00D-04  THRGRAD =  1.00D-10  COMPRESS=  1.00D-13  VARMIN  =  1.00D-07  VARMAX  =  1.00D-03
 THRDOUB =  0.00D+00  THRDIV  =  1.00D-05  THRRED  =  1.00D-07  THRPSP  =  1.00D+00  THRDC   =  1.00D-10  THRCS   =  1.00D-10
 THRNRM  =  1.00D-08  THREQ   =  0.00D+00  THRDE   =  1.00D+00  THRREF  =  1.00D-05  SPARFAC =  1.00D+00  THRDLP  =  1.00D-07
 THRDIA  =  1.00D-10  THRDLS  =  1.00D-07  THRGPS  =  0.00D+00  THRKEX  =  0.00D+00  THRDIS  =  2.00D-01  THRVAR  =  1.00D-10
 THRLOC  =  1.00D-06  THRGAP  =  1.00D-06  THRLOCT = -1.00D+00  THRGAPT = -1.00D+00  THRORB  =  1.00D-06  THRMLTP =  0.00D+00
 THRCPQCI=  1.00D-10  KEXTA   =  0.00D+00  THRCOARS=  0.00D+00  SYMTOL  =  1.00D-06  GRADTOL =  1.00D-06  THROVL  =  1.00D-08
 THRORTH =  1.00D-08  GRID    =  1.00D-06  GRIDMAX =  1.00D-03  DTMAX   =  0.00D+00

 SETTING GEOMTYP        =    XYZ
 ZUNIT=BOHR
 

 Variable memory set to 1000000000 words,  buffer space   230000 words

 SETTING BASIS          =    VDZ


 Recomputing integrals since basis changed


 Using spherical harmonics

 Library entry C      S cc-pVDZ              selected for orbital group  1
 Library entry C      P cc-pVDZ              selected for orbital group  1
 Library entry C      D cc-pVDZ              selected for orbital group  1
 Library entry H      S cc-pVDZ              selected for orbital group  2
 Library entry H      P cc-pVDZ              selected for orbital group  2

1PROGRAM * SEWARD (Integral evaluation for generally contracted gaussian basis sets)     Author: Roland Lindh, 1990

 Geometry written to block  1 of record 700


 Point group  C1  



 ATOMIC COORDINATES

 NR  ATOM    CHARGE       X              Y              Z

   1  C       6.00    0.001111798    0.001111798    0.000000000
   2  C       6.00    2.366550401    0.001115062   -1.672624601
   3  C       6.00    0.001115062   -2.364333333    1.672615368
   4  C       6.00    0.001115062    2.366550401    1.672624601
   5  C       6.00   -2.364333333    0.001115062   -1.672615368
   6  H       1.00    2.399084198    1.677824230   -2.881238683
   7  H       1.00   -1.673077445   -2.404000957    2.884500679
   8  H       1.00    1.677824230    2.399084198    2.881238683
   9  H       1.00   -2.404000957   -1.673077445   -2.884500679
  10  H       1.00    4.082881954    0.003709684   -0.520513779
  11  H       1.00   -0.001511252   -4.085235712    0.527343266
  12  H       1.00    0.003709684    4.082881954    0.520513779
  13  H       1.00   -4.085235712   -0.001511252   -0.527343266
  14  H       1.00    2.408746506   -1.670416523   -2.888092300
  15  H       1.00    1.670085006   -2.413648680    2.891330841
  16  H       1.00   -1.670416523    2.408746506    2.888092300
  17  H       1.00   -2.413648680    1.670085006   -2.891330841

 Bond lengths in Bohr (Angstrom)

 1-2  2.897062795  1-3  2.897062795  1-4  2.897062795  1-5  2.897062795  2-6  2.067162326
     ( 1.533059604)     ( 1.533059604)     ( 1.533059604)     ( 1.533059604)     ( 1.093895190)

  2-10  2.067162325   2-14  2.067162325   3- 7  2.067162325   3-11  2.067162326   3-15  2.067162325
       ( 1.093895190)       ( 1.093895190)       ( 1.093895190)       ( 1.093895190)       ( 1.093895190)

  4- 8  2.067162326   4-12  2.067162325   4-16  2.067162325   5- 9  2.067162325   5-13  2.067162326
       ( 1.093895190)       ( 1.093895190)       ( 1.093895190)       ( 1.093895190)       ( 1.093895190)

  5-17  2.067162325
       ( 1.093895190)

 Bond angles

  1- 2- 6  110.51259664   1- 2-10  110.86345887   1- 2-14  110.86345887   1- 3- 7  110.74080992

  1- 3-11  111.09167202   1- 3-15  111.09167202   1- 4- 8  110.51259664   1- 4-12  110.86345887

  1- 4-16  110.86345887   1- 5- 9  110.74080992   1- 5-13  111.09167202   1- 5-17  111.09167202

  2-1-3  109.47122064   2-1-4  109.47122064   2-1-5  109.47122063   3-1-4  109.47122063

  3- 1- 5  109.47122063   4- 1- 5  109.47122064   6- 2-10  108.16628465   6- 2-14  108.16628466

  7- 3-11  107.92667986   7- 3-15  107.92667986   8- 4-12  108.16628465   8- 4-16  108.16628466

  9- 5-13  107.92667986   9- 5-17  107.92667986  10- 2-14  108.16628211  11- 3-15  107.92667706

 12- 4-16  108.16628211  13- 5-17  107.92667706

 NUCLEAR CHARGE:                   42
 NUMBER OF PRIMITIVE AOS:         219
 NUMBER OF SYMMETRY AOS:          214
 NUMBER OF CONTRACTIONS:          130   ( 130A   )
 NUMBER OF CORE ORBITALS:           5   (   5A   )
 NUMBER OF VALENCE ORBITALS:       32   (  32A   )


 NUCLEAR REPULSION ENERGY  198.59924710


 Eigenvalues of metric

         1 0.280E-02 0.502E-02 0.504E-02 0.504E-02 0.171E-01 0.189E-01 0.189E-01 0.190E-01


 Contracted 2-electron integrals neglected if value below      1.0D-16
 AO integral compression algorithm  1   Integral accuracy      1.0D-16

     300.679 MB (compressed) written to integral file ( 96.4%)

     Node minimum: 300.679 MB, node maximum: 300.679 MB


 NUMBER OF SORTED TWO-ELECTRON INTEGRALS:   36256870.     BUFFER LENGTH:  32768
 NUMBER OF SEGMENTS:   3  SEGMENT LENGTH:   15998004      RECORD LENGTH: 524288

 Memory used in sort:      16.56 MW

 SORT1 READ    38983779. AND WROTE    36127962. INTEGRALS IN    105 RECORDS. CPU TIME:     0.42 SEC, REAL TIME:     0.65 SEC
 SORT2 READ    36127962. AND WROTE    36256870. INTEGRALS IN   1147 RECORDS. CPU TIME:     0.33 SEC, REAL TIME:     0.49 SEC

 FILE SIZES:   FILE 1:   281.7 MBYTE,  FILE 4:   440.4 MBYTE,   TOTAL:    722.2 MBYTE

 OPERATOR DM      FOR CENTER  0  COORDINATES:    0.000000    0.000000    0.000000


 **********************************************************************************************************************************
 DATASETS  * FILE   NREC   LENGTH (MB)   RECORD NAMES
              1      19      281.93       500      610      700      900      950      970     1000      129      960     1100   
                                          VAR    BASINP    GEOM    SYMINP    ZMAT    AOBASIS   BASIS     P2S    ABASIS      S 
                                         1400     1410     1200     1210     1080     1600     1650     1300     1700   
                                           T        V       H0       H01     AOSYM     SMH    MOLCAS    ERIS     OPER   

 PROGRAMS   *        TOTAL       INT
 CPU TIMES  *         4.73      4.67
 REAL TIME  *         5.45 SEC
 DISK USED  *         1.02 GB      
 GA USED    *         0.01 MB       (max)       0.00 MB       (current)
 **********************************************************************************************************************************

1PROGRAM * RHF-SCF (CLOSED SHELL)       Authors: W. Meyer, H.-J. Werner


 NUMBER OF ELECTRONS:      21+   21-    SPACE SYMMETRY=1    SPIN SYMMETRY: Singlet 
 CONVERGENCE THRESHOLDS:    1.00E-10 (Density)    1.00E-13 (Energy)
 MAX. NUMBER OF ITERATIONS:      200
 INTERPOLATION TYPE:            DIIS
 INTERPOLATION STEPS:              2 (START)      1 (STEP)
 LEVEL SHIFTS:                  0.00 (CLOSED)  0.00 (OPEN) 



 Orbital guess generated from atomic densities. Full valence occupancy:   37

 Molecular orbital dump at record        2100.2

 ITERATION    DDIFF          GRAD             ENERGY        2-EL.EN.            DIPOLE MOMENTS         DIIS
    1      0.000D+00      0.000D+00      -196.27089092    527.677352   -0.00189   -0.00189   -0.00000    0
    2      0.000D+00      0.467D-02      -196.33874881    521.944007   -0.00073   -0.00073    0.00000    1
    3      0.930D-02      0.177D-02      -196.34653904    524.514062   -0.00074   -0.00074    0.00000    2
    4      0.346D-02      0.571D-03      -196.34768577    523.812732   -0.00062   -0.00062    0.00000    3
    5      0.114D-02      0.118D-03      -196.34772035    523.879246   -0.00058   -0.00058   -0.00000    4
    6      0.198D-03      0.238D-04      -196.34772203    523.875487   -0.00057   -0.00057   -0.00000    5
    7      0.659D-04      0.226D-05      -196.34772205    523.875253   -0.00056   -0.00056    0.00000    6
    8      0.684D-05      0.488D-06      -196.34772205    523.875212   -0.00056   -0.00056    0.00000    6
    9      0.138D-05      0.702D-07      -196.34772205    523.875203   -0.00056   -0.00056   -0.00000    5
   10      0.244D-06      0.933D-08      -196.34772205    523.875213   -0.00056   -0.00056    0.00000    5
   11      0.314D-07      0.279D-08      -196.34772205    523.875208   -0.00056   -0.00056    0.00000    5
   12      0.582D-08      0.105D-08      -196.34772205    523.875209   -0.00056   -0.00056    0.00000    6
   13      0.213D-08      0.812D-10      -196.34772205    523.875209   -0.00056   -0.00056    0.00000    6
   14      0.181D-09      0.250D-10      -196.34772205    523.875209   -0.00056   -0.00056    0.00000    6
   15      0.627D-10      0.780D-11      -196.34772205    523.875209   -0.00056   -0.00056    0.00000    6
   16      0.242D-10      0.154D-11      -196.34772205    523.875209   -0.00056   -0.00056    0.00000    6
   17      0.423D-11      0.510D-12      -196.34772205    523.875209   -0.00056   -0.00056    0.00000    7
   18      0.105D-11      0.131D-12      -196.34772205    523.875209   -0.00056   -0.00056    0.00000    6
   19      0.474D-12      0.454D-13      -196.34772205    523.875209   -0.00056   -0.00056    0.00000    7
   20      0.200D-12      0.310D-13      -196.34772205    523.875209   -0.00056   -0.00056    0.00000    8
   21      0.110D-12      0.261D-13      -196.34772205    523.875209   -0.00056   -0.00056    0.00000    9
   22      0.664D-13      0.235D-13      -196.34772205    523.875209   -0.00056   -0.00056    0.00000    9
   23      0.532D-13      0.244D-13      -196.34772205    523.875209   -0.00056   -0.00056    0.00000    9
   24      0.452D-13      0.265D-13      -196.34772205    523.875209   -0.00056   -0.00056    0.00000    9
   25      0.377D-13      0.237D-13      -196.34772205    523.875209   -0.00056   -0.00056    0.00000    9
   26      0.254D-13      0.214D-13      -196.34772205    523.875209   -0.00056   -0.00056    0.00000    9
   27      0.271D-13      0.197D-13      -196.34772205    523.875209   -0.00056   -0.00056    0.00000    9
   28      0.141D-13      0.235D-13      -196.34772205    523.875209   -0.00056   -0.00056    0.00000    9
   29      0.170D-13      0.221D-13      -196.34772205    523.875209   -0.00056   -0.00056    0.00000    9
   30      0.198D-13      0.226D-13      -196.34772205    523.875209   -0.00056   -0.00056   -0.00000    9
   31      0.250D-13      0.298D-13      -196.34772205    523.875209   -0.00056   -0.00056    0.00000    9
   32      0.265D-13      0.219D-13      -196.34772205    523.875209   -0.00056   -0.00056   -0.00000    9
   33      0.351D-13      0.316D-13      -196.34772205    523.875209   -0.00056   -0.00056   -0.00000    9
   34      0.358D-13      0.244D-13      -196.34772205    523.875209   -0.00056   -0.00056    0.00000    9
   35      0.383D-13      0.250D-13      -196.34772205    523.875209   -0.00056   -0.00056    0.00000    9
   36      0.369D-13      0.249D-13      -196.34772205    523.875209   -0.00056   -0.00056    0.00000    0

 Final occupancy:  21

 !RHF STATE 1.1 Energy               -196.347722052247
 Nuclear energy                       198.59924710
 One-electron energy                 -656.88457382
 Two-electron energy                  261.93760467
 Virial quotient                       -1.00118136
 !RHF STATE 1.1 Dipole moment          -0.00056321    -0.00056321     0.00000000
 Dipole moment /Debye                  -0.00143145    -0.00143145     0.00000000

 Orbital energies:

         1.1          2.1          3.1          4.1          5.1          6.1          7.1          8.1          9.1         10.1
    -11.230716   -11.214134   -11.214118   -11.214073   -11.214041    -1.103749    -0.927634    -0.927631    -0.927418    -0.728612

        11.1         12.1         13.1         14.1         15.1         16.1         17.1         18.1         19.1         20.1
     -0.609350    -0.609175    -0.608704    -0.550569    -0.550401    -0.507926    -0.507742    -0.507696    -0.450920    -0.450076

        21.1         22.1         23.1
     -0.449996     0.170676     0.231140


 **********************************************************************************************************************************
 DATASETS  * FILE   NREC   LENGTH (MB)   RECORD NAMES
              1      19      281.93       500      610      700      900      950      970     1000      129      960     1100   
                                          VAR    BASINP    GEOM    SYMINP    ZMAT    AOBASIS   BASIS     P2S    ABASIS      S 
                                         1400     1410     1200     1210     1080     1600     1650     1300     1700   
                                           T        V       H0       H01     AOSYM     SMH    MOLCAS    ERIS     OPER   

              2       3        0.89       700     1000     2100   
                                         GEOM     BASIS     RHF  

 PROGRAMS   *        TOTAL       RHF       INT
 CPU TIMES  *        14.72      9.99      4.67
 REAL TIME  *        16.68 SEC
 DISK USED  *         1.02 GB      
 GA USED    *         0.01 MB       (max)       0.00 MB       (current)
 **********************************************************************************************************************************


1PROGRAM * CCSD (Closed-shell coupled cluster)     Authors: C. Hampel, H.-J. Werner, 1991, M. Deegan, P.J. Knowles, 1992


 Convergence thresholds:  THRVAR = 1.00D-08  THRDEN = 1.00D-12

 CCSD(T)     terms to be evaluated (factor= 1.000)


 Number of core orbitals:           5 (   5 )
 Number of closed-shell orbitals:  16 (  16 )
 Number of external orbitals:     109 ( 109 )

 Molecular orbitals read from record     2100.2  Type=RHF/CANONICAL (state 1.1)

 Number of N-1 electron functions:              16
 Number of N-2 electron functions:             136
 Number of singly external CSFs:              1744
 Number of doubly external CSFs:           1521640
 Total number of CSFs:                     1523385

 Length of J-op  integral file:               0.00 MB
 Length of K-op  integral file:               1.20 MB
 Length of 3-ext integral record:             0.00 MB

 Memory could be reduced to 28.13 Mwords without degradation in triples

 Integral transformation finished. Total CPU:   2.31 sec, npass=  1  Memory used:  22.98 MW

 Reference energy:                   -196.34772205

 MP2 singlet pair energy:              -0.48845334
 MP2 triplet pair energy:              -0.25007843
 MP2 correlation energy:               -0.73853177
 MP2 total energy:                   -197.08625382

 SCS-MP2 correlation energy:           -0.74174836   (PS=  1.200000  PT=  0.333333)
 SCS-MP2 total energy:               -197.08947042

 ITER.      SQ.NORM     CORR.ENERGY   TOTAL ENERGY   ENERGY CHANGE        DEN1      VAR(S)    VAR(P)  DIIS     TIME
   1      1.28821670    -0.80655679  -197.15427884    -0.06802502    -0.04667743  0.17D-02  0.47D-02  1  1     9.32
   2      1.31151842    -0.81149046  -197.15921251    -0.00493367    -0.02352733  0.47D-04  0.32D-03  2  2    16.40
   3      1.31554379    -0.81163971  -197.15936176    -0.00014925    -0.00244987  0.53D-05  0.22D-04  3  3    23.49
   4      1.31658485    -0.81170226  -197.15942431    -0.00006255    -0.00046074  0.25D-06  0.12D-05  4  4    30.59
   5      1.31671007    -0.81170677  -197.15942883    -0.00000451    -0.00005048  0.15D-07  0.93D-07  5  5    37.69
   6      1.31672257    -0.81170432  -197.15942637     0.00000245    -0.00000856  0.68D-09  0.61D-08  6  6    44.79
   7      1.31672102    -0.81170461  -197.15942666    -0.00000029     0.00000071  0.16D-09  0.52D-09  6  1    51.88
   8      1.31672074    -0.81170475  -197.15942681    -0.00000015     0.00000026  0.78D-11  0.30D-10  6  2    58.98
   9      1.31672044    -0.81170480  -197.15942685    -0.00000005     0.00000026  0.11D-11  0.25D-11  6  3    66.09
  10      1.31672034    -0.81170481  -197.15942686    -0.00000001     0.00000009  0.89D-13  0.22D-12  6  4    73.19
  11      1.31672027    -0.81170481  -197.15942686    -0.00000000     0.00000004  0.94D-14  0.24D-13  6  5    80.28
  12      1.31672024    -0.81170481  -197.15942687    -0.00000000     0.00000002  0.89D-15  0.12D-14  6  1    87.37
  13      1.31672024    -0.81170481  -197.15942687    -0.00000000     0.00000000  0.79D-16  0.70D-16  6  6    94.49
  14      1.31672023    -0.81170481  -197.15942687    -0.00000000     0.00000000  0.15D-16  0.96D-17  6  2   101.58
  15      1.31672023    -0.81170481  -197.15942687    -0.00000000     0.00000000  0.13D-17  0.11D-17  6  3   108.69
  16      1.31672023    -0.81170481  -197.15942687     0.00000000    -0.00000000  0.70D-19  0.92D-19  6  4   115.81
  17      1.31672023    -0.81170481  -197.15942687     0.00000000    -0.00000000  0.35D-20  0.85D-20  6  5   122.91
  18      1.31672023    -0.81170481  -197.15942687     0.00000000    -0.00000000  0.40D-21  0.12D-20  6  1   130.01
  19      1.31672023    -0.81170481  -197.15942687     0.00000000    -0.00000000  0.34D-22  0.16D-21  6  6   137.12

 Norm of t1 vector:      0.05469732      S-energy:    -0.00000000      T1 diagnostic:  0.00683717
                                                                       D1 diagnostic:  0.01260885


 Total CPU time for triples:    107.90 sec


 RESULTS
 =======

  Reference energy                   -196.347722052247
  CCSD singlet pair energy             -0.577588085662
  CCSD triplet pair energy             -0.234116728521
  CCSD correlation energy              -0.811704814184

  Triples (T) contribution             -0.023942503436
  Total correlation energy             -0.835647317619

  CCSD total energy                  -197.159426866431
  CCSD[T] energy                     -197.183828709719
  CCSD-T energy                      -197.183120707275
 !CCSD(T) total energy               -197.183369369867

 Timing summary (sec):

 STEP                 CPU(USER)    SYS     CPU(TOT)    WALL
 Transformation          2.42      0.21      2.63      2.64
 CCSD iterations       134.70      2.24    136.94    137.00
 Triples               107.90      1.53    109.43    109.45

 Program statistics:

 Available memory in ccsd:               999998876
 Min. memory needed in ccsd:               3966807
 Max. memory used in ccsd:                 5311887
 Max. memory used in cckext:               4858018 (19 integral passes)



 **********************************************************************************************************************************
 DATASETS  * FILE   NREC   LENGTH (MB)   RECORD NAMES
              1      20      393.64       500      610      700      900      950      970     1000      129      960     1100   
                                          VAR    BASINP    GEOM    SYMINP    ZMAT    AOBASIS   BASIS     P2S    ABASIS      S 
                                         1400     1410     1200     1210     1080     1600     1650     1300     1700     1380   
                                           T        V       H0       H01     AOSYM     SMH    MOLCAS    ERIS     OPER     JKOP   

              2       3        0.89       700     1000     2100   
                                         GEOM     BASIS     RHF  

 PROGRAMS   *        TOTAL   CCSD(T)       RHF       INT
 CPU TIMES  *       259.76    245.04      9.99      4.67
 REAL TIME  *       265.82 SEC
 DISK USED  *         1.02 GB      
 GA USED    *         0.01 MB       (max)       0.00 MB       (current)
 **********************************************************************************************************************************

        CCSD(T)         RHF-SCF 
   -197.18336937   -196.34772205
 **********************************************************************************************************************************
 Variable memory released
