
 Primary working directories    : /tmp/999602.562.gen5.q
 Secondary working directories  : /tmp/999602.562.gen5.q
 Wavefunction directory         : /home/vulcan/jj04645/wfu/
 Main file repository           : /tmp/999602.562.gen5.q/

 ARCHNAME  : Linux/x86_64
 FC        : /opt/intel/compilers_and_libraries_2016.1.150/linux/bin/intel64/ifort
 FCVERSION : 16.0.1
 BLASLIB   : -mkl
 id        : ccgc

 Nodes     nprocs
 n073         1
 ga_uses_ma=false, calling ma_init with nominal heap.
 GA-space will be limited to   8.0 MW (determined by -G option)

 Using customized tuning parameters: mindgm=10; mindgv=16; mindgc=4; mindgr=1; noblas=0; mincuda=1000; minvec=7
 default implementation of scratch files=df  

 ***,Optimization of 1,3-difluorobenzene
 memory,1000,m
 gthresh,energy=1.0d-12,orbital=1.0d-10,oneint=1.0d-16,twoint=1.0d-16,optgrad=1.0d-6,compress=1.0d-13
 geomtyp=xyz
 
 bohr
 geometry = {
  F    0.0000000000    4.4359996468   -1.7529675997
  C    0.0000000000    2.2388050695   -0.4831800772
  C   -0.0000000000   -2.2992459710    2.1462305286
  C    0.0000000000   -0.0039423017   -1.8515762949
  C    0.0000000000    2.2969762268    2.1430015624
  C    0.0000000000   -0.0002229055    3.4427408317
  C    0.0000000000   -2.2447647919   -0.4800302521
  H    0.0000000000   -0.0053764354   -3.8929717840
  H    0.0000000000    4.0974641484    3.1220963426
  H   -0.0000000000    0.0012137727    5.4877582161
  F   -0.0000000000   -4.4309644868   -1.7686555881
  H   -0.0000000000   -4.0859419719    3.1210805502
 }
 
 basis=VDZ
 {rhf;maxit,200}
 {ccsd(t);maxit,200}

 Variables initialized (661), CPU time= 0.00 sec
 Commands  initialized (458), CPU time= 0.00 sec, 486 directives.
 Default parameters read. Elapsed time= 0.05 sec

 Checking input...
 Passed
1


                                         ***  PROGRAM SYSTEM MOLPRO  ***
                         Copyright, University College Cardiff Consultants Limited, 2008

                                    Version 2010.1 linked May 16 2016 07:17:05


 **********************************************************************************************************************************
 LABEL *   Optimization of 1,3-difluorobenzene                                           
 Linux-4.4.3/n073(x86_64) 64 bit mpp version                                             DATE: 07-Feb-24          TIME: 16:31:07  
 **********************************************************************************************************************************

 SHA1:             9e8077add272b0f3cad6f7df79ec5211205f459d
 **********************************************************************************************************************************

 THRESHOLDS:

 ZERO    =  1.00D-12  ONEINT  =  1.00D-16  TWOINT  =  1.00D-16  PREFAC  =  1.00D-14  LOCALI  =  1.00D-09  EORDER  =  1.00D-04
 ENERGY  =  1.00D-12  ETEST   =  0.00D+00  EDENS   =  0.00D+00  THRDEDEF=  1.00D-06  GRADIENT=  1.00D-02  STEP    =  1.00D-03
 ORBITAL =  1.00D-10  CIVEC   =  1.00D-05  COEFF   =  1.00D-04  PRINTCI =  5.00D-02  PUNCHCI =  9.90D+01  OPTGRAD =  1.00D-06
 OPTENERG=  1.00D-06  OPTSTEP =  3.00D-04  THRGRAD =  1.00D-10  COMPRESS=  1.00D-13  VARMIN  =  1.00D-07  VARMAX  =  1.00D-03
 THRDOUB =  0.00D+00  THRDIV  =  1.00D-05  THRRED  =  1.00D-07  THRPSP  =  1.00D+00  THRDC   =  1.00D-10  THRCS   =  1.00D-10
 THRNRM  =  1.00D-08  THREQ   =  0.00D+00  THRDE   =  1.00D+00  THRREF  =  1.00D-05  SPARFAC =  1.00D+00  THRDLP  =  1.00D-07
 THRDIA  =  1.00D-10  THRDLS  =  1.00D-07  THRGPS  =  0.00D+00  THRKEX  =  0.00D+00  THRDIS  =  2.00D-01  THRVAR  =  1.00D-10
 THRLOC  =  1.00D-06  THRGAP  =  1.00D-06  THRLOCT = -1.00D+00  THRGAPT = -1.00D+00  THRORB  =  1.00D-06  THRMLTP =  0.00D+00
 THRCPQCI=  1.00D-10  KEXTA   =  0.00D+00  THRCOARS=  0.00D+00  SYMTOL  =  1.00D-06  GRADTOL =  1.00D-06  THROVL  =  1.00D-08
 THRORTH =  1.00D-08  GRID    =  1.00D-06  GRIDMAX =  1.00D-03  DTMAX   =  0.00D+00

 SETTING GEOMTYP        =    XYZ
 ZUNIT=BOHR
 

 Variable memory set to 1000000000 words,  buffer space   230000 words

 SETTING BASIS          =    VDZ


 Recomputing integrals since basis changed


 Using spherical harmonics

 Library entry F      S cc-pVDZ              selected for orbital group  1
 Library entry F      P cc-pVDZ              selected for orbital group  1
 Library entry F      D cc-pVDZ              selected for orbital group  1
 Library entry C      S cc-pVDZ              selected for orbital group  2
 Library entry C      P cc-pVDZ              selected for orbital group  2
 Library entry C      D cc-pVDZ              selected for orbital group  2
 Library entry H      S cc-pVDZ              selected for orbital group  3
 Library entry H      P cc-pVDZ              selected for orbital group  3

1PROGRAM * SEWARD (Integral evaluation for generally contracted gaussian basis sets)     Author: Roland Lindh, 1990

 Geometry written to block  1 of record 700


 Point group  Cs  



 ATOMIC COORDINATES

 NR  ATOM    CHARGE       X              Y              Z

   1  F       9.00    0.000000000    4.435999647   -1.752967600
   2  C       6.00    0.000000000    2.238805070   -0.483180077
   3  C       6.00    0.000000000   -2.299245971    2.146230529
   4  C       6.00    0.000000000   -0.003942302   -1.851576295
   5  C       6.00    0.000000000    2.296976227    2.143001562
   6  C       6.00    0.000000000   -0.000222906    3.442740832
   7  C       6.00    0.000000000   -2.244764792   -0.480030252
   8  H       1.00    0.000000000   -0.005376435   -3.892971784
   9  H       1.00    0.000000000    4.097464148    3.122096343
  10  H       1.00    0.000000000    0.001213773    5.487758216
  11  F       9.00    0.000000000   -4.430964487   -1.768655588
  12  H       1.00    0.000000000   -4.085941972    3.121080550

 Bond lengths in Bohr (Angstrom)

 1-2  2.537720308  2-4  2.627246463  2-5  2.626825820  3-6  2.639402588  3-7  2.626825820
     ( 1.342903750)     ( 1.390278951)     ( 1.390056356)     ( 1.396711695)     ( 1.390056356)

  3-12  2.035341535   4- 7  2.627246464   4- 8  2.041395993   5- 6  2.639402588   5- 9  2.049483678
       ( 1.077056353)       ( 1.390278951)       ( 1.080260234)       ( 1.396711695)       ( 1.084540052)

  6-10  2.045017889   7-11  2.537720308
       ( 1.082176859)       ( 1.342903750)

 Bond angles

  1-2-4  118.58666542   1-2-5  118.75525891   2-4-7  117.14118696   2-4-8  121.42940652

  2- 5- 6  118.23195826   2- 5- 9  119.80600940   3- 6- 5  121.07874516   3- 6-10  119.46062742

  3- 7- 4  122.65807568   3- 7-11  119.32822127   4- 2- 5  122.65807568   4- 7-11  118.01370305

  5- 6-10  119.46062742   6- 3- 7  118.23195826   6- 3-12  121.96203330   6- 5- 9  121.96203234

  7- 3-12  119.80600844   7- 4- 8  121.42940652

 NUCLEAR CHARGE:                   58
 NUMBER OF PRIMITIVE AOS:         244
 NUMBER OF SYMMETRY AOS:          236
 NUMBER OF CONTRACTIONS:          132   (  96A'  +  36A"  )
 NUMBER OF CORE ORBITALS:           8   (   8A'  +   0A"  )
 NUMBER OF VALENCE ORBITALS:       36   (  28A'  +   8A"  )


 NUCLEAR REPULSION ENERGY  342.36968573


 Eigenvalues of metric

         1 0.394E-03 0.120E-02 0.169E-02 0.263E-02 0.305E-02 0.316E-02 0.125E-01 0.130E-01
         2 0.413E-01 0.907E-01 0.100E+00 0.162E+00 0.166E+00 0.185E+00 0.190E+00 0.214E+00


 Contracted 2-electron integrals neglected if value below      1.0D-16
 AO integral compression algorithm  1   Integral accuracy      1.0D-16

     155.976 MB (compressed) written to integral file ( 89.6%)

     Node minimum: 155.976 MB, node maximum: 155.976 MB


 NUMBER OF SORTED TWO-ELECTRON INTEGRALS:   20366295.     BUFFER LENGTH:  32768
 NUMBER OF SEGMENTS:   2  SEGMENT LENGTH:   15994311      RECORD LENGTH: 524288

 Memory used in sort:      16.55 MW

 SORT1 READ    21748517. AND WROTE    19841894. INTEGRALS IN     57 RECORDS. CPU TIME:     0.30 SEC, REAL TIME:     0.49 SEC
 SORT2 READ    19841894. AND WROTE    20366295. INTEGRALS IN    595 RECORDS. CPU TIME:     0.22 SEC, REAL TIME:     0.31 SEC

 FILE SIZES:   FILE 1:   148.2 MBYTE,  FILE 4:   239.1 MBYTE,   TOTAL:    387.3 MBYTE

 OPERATOR DM      FOR CENTER  0  COORDINATES:    0.000000    0.000000    0.000000


 **********************************************************************************************************************************
 DATASETS  * FILE   NREC   LENGTH (MB)   RECORD NAMES
              1      19      148.31       500      610      700      900      950      970     1000      129      960     1100   
                                          VAR    BASINP    GEOM    SYMINP    ZMAT    AOBASIS   BASIS     P2S    ABASIS      S 
                                         1400     1410     1200     1210     1080     1600     1650     1300     1700   
                                           T        V       H0       H01     AOSYM     SMH    MOLCAS    ERIS     OPER   

 PROGRAMS   *        TOTAL       INT
 CPU TIMES  *         4.57      4.53
 REAL TIME  *         5.19 SEC
 DISK USED  *       544.15 MB      
 GA USED    *         0.00 MB       (max)       0.00 MB       (current)
 **********************************************************************************************************************************

1PROGRAM * RHF-SCF (CLOSED SHELL)       Authors: W. Meyer, H.-J. Werner


 NUMBER OF ELECTRONS:      29+   29-
 CONVERGENCE THRESHOLDS:    1.00E-10 (Density)    1.00E-13 (Energy)
 MAX. NUMBER OF ITERATIONS:      200
 INTERPOLATION TYPE:            DIIS
 INTERPOLATION STEPS:              2 (START)      1 (STEP)
 LEVEL SHIFTS:                  0.00 (CLOSED)  0.00 (OPEN) 



 Orbital guess generated from atomic densities. Full valence occupancy:   36   8

 Molecular orbital dump at record        2100.2

 Initial alpha occupancy:  24   5
 Initial beta  occupancy:  24   5
 Wave function symmetry:    1

 ITERATION    DDIFF          GRAD             ENERGY        2-EL.EN.            DIPOLE MOMENTS         DIIS
    1      0.000D+00      0.000D+00      -428.34388926    993.074543    0.00000    0.00040    0.47559    0
    2      0.000D+00      0.778D-02      -428.41800595    992.609914    0.00000   -0.00184    0.92444    1
    3      0.159D-01      0.353D-02      -428.43187471    992.944324    0.00000   -0.00247    0.62084    2
    4      0.507D-02      0.936D-03      -428.43343123    993.000954    0.00000   -0.00261    0.73428    3
    5      0.189D-02      0.283D-03      -428.43356633    992.965783    0.00000   -0.00278    0.70106    4
    6      0.479D-03      0.592D-04      -428.43357405    992.975000    0.00000   -0.00277    0.70540    5
    7      0.126D-03      0.179D-04      -428.43357510    992.978339    0.00000   -0.00279    0.70377    6
    8      0.427D-04      0.637D-05      -428.43357523    992.977677    0.00000   -0.00278    0.70419    7
    9      0.142D-04      0.290D-05      -428.43357526    992.978068    0.00000   -0.00279    0.70391    8
   10      0.770D-05      0.112D-05      -428.43357527    992.978630    0.00000   -0.00278    0.70398    8
   11      0.347D-05      0.626D-06      -428.43357527    992.978541    0.00000   -0.00279    0.70395    8
   12      0.213D-05      0.248D-06      -428.43357527    992.978638    0.00000   -0.00278    0.70396    8
   13      0.122D-05      0.417D-07      -428.43357527    992.978664    0.00000   -0.00278    0.70396    8
   14      0.136D-06      0.158D-07      -428.43357527    992.978659    0.00000   -0.00278    0.70395    9
   15      0.536D-07      0.372D-08      -428.43357527    992.978659    0.00000   -0.00278    0.70395    9
   16      0.112D-07      0.144D-08      -428.43357527    992.978659    0.00000   -0.00278    0.70395    9
   17      0.444D-08      0.541D-09      -428.43357527    992.978659    0.00000   -0.00278    0.70395    8
   18      0.157D-08      0.119D-09      -428.43357527    992.978659    0.00000   -0.00278    0.70395    7
   19      0.295D-09      0.472D-10      -428.43357527    992.978659    0.00000   -0.00278    0.70395    7
   20      0.105D-09      0.162D-10      -428.43357527    992.978659    0.00000   -0.00278    0.70395    8
   21      0.325D-10      0.536D-11      -428.43357527    992.978659    0.00000   -0.00278    0.70395    8
   22      0.116D-10      0.265D-11      -428.43357527    992.978659    0.00000   -0.00278    0.70395    8
   23      0.794D-11      0.126D-11      -428.43357527    992.978659    0.00000   -0.00278    0.70395    8
   24      0.458D-11      0.443D-12      -428.43357527    992.978659    0.00000   -0.00278    0.70395    8
   25      0.220D-11      0.187D-12      -428.43357527    992.978659    0.00000   -0.00278    0.70395    9
   26      0.116D-11      0.102D-12      -428.43357527    992.978659    0.00000   -0.00278    0.70395    9
   27      0.880D-12      0.740D-13      -428.43357527    992.978659    0.00000   -0.00278    0.70395    9
   28      0.584D-12      0.608D-13      -428.43357527    992.978659    0.00000   -0.00278    0.70395    0

 Final occupancy:  24   5

 !RHF STATE 1.1 Energy               -428.433575271000
 Nuclear energy                       342.36968573
 One-electron energy                -1267.29259062
 Two-electron energy                  496.48932962
 Virial quotient                       -1.00060083
 !RHF STATE 1.1 Dipole moment           0.00000000    -0.00278466     0.70395465
 Dipole moment /Debye                   0.00000000    -0.00707743     1.78915706

 Orbital energies:

         1.1          2.1          3.1          4.1          5.1          6.1          7.1          8.1          9.1         10.1
    -26.320968   -26.320846   -11.349570   -11.349482   -11.272874   -11.258809   -11.256069   -11.255648    -1.639528    -1.638917

        11.1         12.1         13.1         14.1         15.1         16.1         17.1         18.1         19.1         20.1
     -1.178969    -1.046826    -1.036943    -0.875043    -0.865056    -0.774642    -0.740948    -0.702945    -0.685065    -0.668332

        21.1         22.1         23.1         24.1         25.1         26.1
     -0.623050    -0.586218    -0.555052    -0.532878     0.179896     0.221258

         1.2          2.2          3.2          4.2          5.2          6.2          7.2
     -0.703899    -0.695883    -0.513779    -0.360322    -0.348406     0.113806     0.131881


 **********************************************************************************************************************************
 DATASETS  * FILE   NREC   LENGTH (MB)   RECORD NAMES
              1      19      148.31       500      610      700      900      950      970     1000      129      960     1100   
                                          VAR    BASINP    GEOM    SYMINP    ZMAT    AOBASIS   BASIS     P2S    ABASIS      S 
                                         1400     1410     1200     1210     1080     1600     1650     1300     1700   
                                           T        V       H0       H01     AOSYM     SMH    MOLCAS    ERIS     OPER   

              2       3        0.68       700     1000     2100   
                                         GEOM     BASIS     RHF  

 PROGRAMS   *        TOTAL       RHF       INT
 CPU TIMES  *         8.05      3.48      4.53
 REAL TIME  *         9.24 SEC
 DISK USED  *       544.15 MB      
 GA USED    *         0.00 MB       (max)       0.00 MB       (current)
 **********************************************************************************************************************************


1PROGRAM * CCSD (Closed-shell coupled cluster)     Authors: C. Hampel, H.-J. Werner, 1991, M. Deegan, P.J. Knowles, 1992


 Convergence thresholds:  THRVAR = 1.00D-08  THRDEN = 1.00D-12

 CCSD(T)     terms to be evaluated (factor= 1.000)


 Number of core orbitals:           8 (   8   0 )
 Number of closed-shell orbitals:  21 (  16   5 )
 Number of external orbitals:     103 (  72  31 )

 Molecular orbitals read from record     2100.2  Type=RHF/CANONICAL (state 1.1)

 Number of N-1 electron functions:              21
 Number of N-2 electron functions:             231
 Number of singly external CSFs:              1307
 Number of doubly external CSFs:           1221574
 Total number of CSFs:                     1222882

 Length of J-op  integral file:               0.00 MB
 Length of K-op  integral file:               0.76 MB
 Length of 3-ext integral record:             0.00 MB

 Memory could be reduced to 16.61 Mwords without degradation in triples

 Integral transformation finished. Total CPU:   0.97 sec, npass=  1  Memory used:   9.88 MW

 Reference energy:                   -428.43357527

 MP2 singlet pair energy:              -0.67264002
 MP2 triplet pair energy:              -0.46573130
 MP2 correlation energy:               -1.13837132
 MP2 total energy:                   -429.57194659

 SCS-MP2 correlation energy:           -1.09695639   (PS=  1.200000  PT=  0.333333)
 SCS-MP2 total energy:               -429.53053166

 ITER.      SQ.NORM     CORR.ENERGY   TOTAL ENERGY   ENERGY CHANGE        DEN1      VAR(S)    VAR(P)  DIIS     TIME
   1      1.36210583    -1.16811638  -429.60169165    -0.02974506     0.00049046  0.67D-02  0.73D-02  1  1     3.98
   2      1.38857191    -1.17164846  -429.60522373    -0.00353208    -0.02699800  0.13D-03  0.11D-02  2  2     7.09
   3      1.39936650    -1.17224993  -429.60582520    -0.00060146    -0.00538073  0.86D-04  0.10D-03  3  3    10.21
   4      1.40339730    -1.17217547  -429.60575074     0.00007446    -0.00142390  0.48D-05  0.20D-04  4  4    13.32
   5      1.40523815    -1.17220597  -429.60578124    -0.00003050    -0.00045111  0.91D-06  0.22D-05  5  5    16.44
   6      1.40571413    -1.17221172  -429.60578699    -0.00000574    -0.00006803  0.12D-06  0.24D-06  6  6    19.57
   7      1.40580118    -1.17220670  -429.60578197     0.00000502     0.00000029  0.28D-07  0.22D-07  6  1    22.70
   8      1.40582613    -1.17220782  -429.60578309    -0.00000112    -0.00000755  0.61D-08  0.30D-08  6  2    25.84
   9      1.40582743    -1.17220848  -429.60578375    -0.00000066     0.00000229  0.18D-08  0.34D-09  6  3    28.96
  10      1.40582980    -1.17220825  -429.60578352     0.00000023    -0.00000121  0.38D-09  0.76D-10  6  4    32.09
  11      1.40582986    -1.17220849  -429.60578376    -0.00000024     0.00000032  0.46D-10  0.20D-10  6  5    35.21
  12      1.40583005    -1.17220847  -429.60578374     0.00000002    -0.00000007  0.11D-10  0.24D-11  6  6    38.33
  13      1.40583005    -1.17220849  -429.60578376    -0.00000002     0.00000005  0.58D-12  0.56D-12  6  1    41.44
  14      1.40583004    -1.17220849  -429.60578376    -0.00000001     0.00000002  0.15D-12  0.87D-13  6  2    44.55
  15      1.40583004    -1.17220849  -429.60578376     0.00000000     0.00000000  0.41D-13  0.15D-13  6  3    47.69
  16      1.40583004    -1.17220849  -429.60578377    -0.00000000     0.00000000  0.66D-14  0.43D-14  6  4    50.80
  17      1.40583004    -1.17220850  -429.60578377    -0.00000000    -0.00000000  0.17D-14  0.75D-15  6  5    53.93
  18      1.40583004    -1.17220850  -429.60578377    -0.00000000    -0.00000000  0.26D-15  0.12D-15  6  6    57.05
  19      1.40583004    -1.17220850  -429.60578377    -0.00000000    -0.00000000  0.51D-16  0.27D-16  6  1    60.16
  20      1.40583004    -1.17220850  -429.60578377     0.00000000    -0.00000000  0.21D-16  0.47D-17  6  2    63.28
  21      1.40583004    -1.17220850  -429.60578377    -0.00000000    -0.00000000  0.42D-17  0.14D-17  6  3    66.41
  22      1.40583004    -1.17220850  -429.60578377     0.00000000    -0.00000000  0.13D-17  0.41D-18  6  4    69.53
  23      1.40583004    -1.17220850  -429.60578377     0.00000000    -0.00000000  0.32D-18  0.11D-18  6  5    72.64
  24      1.40583004    -1.17220850  -429.60578377    -0.00000000     0.00000000  0.85D-19  0.24D-19  6  6    75.77
  25      1.40583004    -1.17220850  -429.60578377    -0.00000000     0.00000000  0.26D-19  0.75D-20  6  5    78.89

 Norm of t1 vector:      0.10829354      S-energy:     0.00000000      T1 diagnostic:  0.01181579
                                                                       D1 diagnostic:  0.03167253

 Doubles amplitudes (print threshold =  0.500E-01):

         I         J         SYM. A    SYM. B    A         B      T(IJ, AB)

        20        20         2         2         1         1     -0.08681511
        21        20         2         2         1         2     -0.05130406
        21        21         2         2         2         2     -0.08401044


 Total CPU time for triples:     47.44 sec


 RESULTS
 =======

  Reference energy                   -428.433575271002
  CCSD singlet pair energy             -0.756720217259
  CCSD triplet pair energy             -0.415488278094
  CCSD correlation energy              -1.172208495352

  Triples (T) contribution             -0.043065910984
  Total correlation energy             -1.215274406336

  CCSD total energy                  -429.605783766354
  CCSD[T] energy                     -429.650849807723
  CCSD-T energy                      -429.648125259944
 !CCSD(T) total energy               -429.648849677338

 Timing summary (sec):

 STEP                 CPU(USER)    SYS     CPU(TOT)    WALL
 Transformation          1.01      0.13      1.14      1.14
 CCSD iterations        77.88      2.23     80.11     80.16
 Triples                47.44      1.36     48.80     48.81

 Program statistics:

 Available memory in ccsd:               999998136
 Min. memory needed in ccsd:               3240252
 Max. memory used in ccsd:                 4334402
 Max. memory used in cckext:               4782293 (25 integral passes)



 **********************************************************************************************************************************
 DATASETS  * FILE   NREC   LENGTH (MB)   RECORD NAMES
              1      20      222.56       500      610      700      900      950      970     1000      129      960     1100   
                                          VAR    BASINP    GEOM    SYMINP    ZMAT    AOBASIS   BASIS     P2S    ABASIS      S 
                                         1400     1410     1200     1210     1080     1600     1650     1300     1700     1380   
                                           T        V       H0       H01     AOSYM     SMH    MOLCAS    ERIS     OPER     JKOP   

              2       3        0.68       700     1000     2100   
                                         GEOM     BASIS     RHF  

 PROGRAMS   *        TOTAL   CCSD(T)       RHF       INT
 CPU TIMES  *       134.40    126.35      3.48      4.53
 REAL TIME  *       139.41 SEC
 DISK USED  *       591.54 MB      
 GA USED    *         0.00 MB       (max)       0.00 MB       (current)
 **********************************************************************************************************************************

        CCSD(T)         RHF-SCF 
   -429.64884968   -428.43357527
 **********************************************************************************************************************************
 Variable memory released
