
 Primary working directories    : /tmp/1003441.396.gen4.q
 Secondary working directories  : /tmp/1003441.396.gen4.q
 Wavefunction directory         : /home/vulcan/jj04645/wfu/
 Main file repository           : /tmp/1003441.396.gen4.q/

 ARCHNAME  : Linux/x86_64
 FC        : /opt/intel/compilers_and_libraries_2016.1.150/linux/bin/intel64/ifort
 FCVERSION : 16.0.1
 BLASLIB   : -mkl
 id        : ccgc

 Nodes     nprocs
 n066         1
 ga_uses_ma=false, calling ma_init with nominal heap.
 GA-space will be limited to   8.0 MW (determined by -G option)

 Using customized tuning parameters: mindgm=10; mindgv=16; mindgc=4; mindgr=1; noblas=0; mincuda=1000; minvec=7
 default implementation of scratch files=df  

 ***,Optimization of acetyl acetylene
 memory,1000,m
 gthresh,energy=1.0d-12,orbital=1.0d-10,oneint=1.0d-16,twoint=1.0d-16,optgrad=1.0d-6,compress=1.0d-13
 geomtyp=xyz
 
 bohr
 geometry = {
  H    3.3736736123   -1.7673784774   -1.6622227973
  C    2.2765803137   -2.3096605330   -0.0000403995
  H    1.9304740947   -4.3364021233   -0.0112238929
  C   -0.2112977414   -0.9143791574   -0.0000403995
  H    3.3642524184   -1.7841770781    1.6736890873
  O   -2.2568752669   -1.9578902301   -0.0000403996
  C   -0.0178225349    1.8523930172   -0.0000403995
  C    0.2070464335    4.1339139239   -0.0000403995
  H    0.3550938497    6.1391454953   -0.0000403995
 }
 
 basis=VDZ
 {rhf;maxit,200}
 {ccsd(t);maxit,200}

 Variables initialized (661), CPU time= 0.01 sec
 Commands  initialized (458), CPU time= 0.00 sec, 486 directives.
 Default parameters read. Elapsed time= 0.04 sec

 Checking input...
 Passed
1


                                         ***  PROGRAM SYSTEM MOLPRO  ***
                         Copyright, University College Cardiff Consultants Limited, 2008

                                    Version 2010.1 linked May 16 2016 07:17:05


 **********************************************************************************************************************************
 LABEL *   Optimization of acetyl acetylene                                              
 Linux-4.4.3/n066(x86_64) 64 bit mpp version                                             DATE: 15-Feb-24          TIME: 14:08:21  
 **********************************************************************************************************************************

 SHA1:             9e8077add272b0f3cad6f7df79ec5211205f459d
 **********************************************************************************************************************************

 THRESHOLDS:

 ZERO    =  1.00D-12  ONEINT  =  1.00D-16  TWOINT  =  1.00D-16  PREFAC  =  1.00D-14  LOCALI  =  1.00D-09  EORDER  =  1.00D-04
 ENERGY  =  1.00D-12  ETEST   =  0.00D+00  EDENS   =  0.00D+00  THRDEDEF=  1.00D-06  GRADIENT=  1.00D-02  STEP    =  1.00D-03
 ORBITAL =  1.00D-10  CIVEC   =  1.00D-05  COEFF   =  1.00D-04  PRINTCI =  5.00D-02  PUNCHCI =  9.90D+01  OPTGRAD =  1.00D-06
 OPTENERG=  1.00D-06  OPTSTEP =  3.00D-04  THRGRAD =  1.00D-10  COMPRESS=  1.00D-13  VARMIN  =  1.00D-07  VARMAX  =  1.00D-03
 THRDOUB =  0.00D+00  THRDIV  =  1.00D-05  THRRED  =  1.00D-07  THRPSP  =  1.00D+00  THRDC   =  1.00D-10  THRCS   =  1.00D-10
 THRNRM  =  1.00D-08  THREQ   =  0.00D+00  THRDE   =  1.00D+00  THRREF  =  1.00D-05  SPARFAC =  1.00D+00  THRDLP  =  1.00D-07
 THRDIA  =  1.00D-10  THRDLS  =  1.00D-07  THRGPS  =  0.00D+00  THRKEX  =  0.00D+00  THRDIS  =  2.00D-01  THRVAR  =  1.00D-10
 THRLOC  =  1.00D-06  THRGAP  =  1.00D-06  THRLOCT = -1.00D+00  THRGAPT = -1.00D+00  THRORB  =  1.00D-06  THRMLTP =  0.00D+00
 THRCPQCI=  1.00D-10  KEXTA   =  0.00D+00  THRCOARS=  0.00D+00  SYMTOL  =  1.00D-06  GRADTOL =  1.00D-06  THROVL  =  1.00D-08
 THRORTH =  1.00D-08  GRID    =  1.00D-06  GRIDMAX =  1.00D-03  DTMAX   =  0.00D+00

 SETTING GEOMTYP        =    XYZ
 ZUNIT=BOHR
 

 Variable memory set to 1000000000 words,  buffer space   230000 words

 SETTING BASIS          =    VDZ


 Recomputing integrals since basis changed


 Using spherical harmonics

 Library entry H      S cc-pVDZ              selected for orbital group  1
 Library entry H      P cc-pVDZ              selected for orbital group  1
 Library entry C      S cc-pVDZ              selected for orbital group  2
 Library entry C      P cc-pVDZ              selected for orbital group  2
 Library entry C      D cc-pVDZ              selected for orbital group  2
 Library entry O      S cc-pVDZ              selected for orbital group  6
 Library entry O      P cc-pVDZ              selected for orbital group  6
 Library entry O      D cc-pVDZ              selected for orbital group  6

1PROGRAM * SEWARD (Integral evaluation for generally contracted gaussian basis sets)     Author: Roland Lindh, 1990

 Geometry written to block  1 of record 700


 Point group  C1  



 ATOMIC COORDINATES

 NR  ATOM    CHARGE       X              Y              Z

   1  H       1.00    3.373673612   -1.767378477   -1.662222797
   2  C       6.00    2.276580314   -2.309660533   -0.000040399
   3  H       1.00    1.930474095   -4.336402123   -0.011223893
   4  C       6.00   -0.211297741   -0.914379157   -0.000040399
   5  H       1.00    3.364252418   -1.784177078    1.673689087
   6  O       8.00   -2.256875267   -1.957890230   -0.000040400
   7  C       6.00   -0.017822535    1.852393017   -0.000040399
   8  C       6.00    0.207046433    4.133913924   -0.000040399
   9  H       1.00    0.355093850    6.139145495   -0.000040399

 Bond lengths in Bohr (Angstrom)

 1-2  2.064106067  2-3  2.056111879  2-4  2.852428322  2-5  2.064106069  4-6  2.296367299
     ( 1.092277888)     ( 1.088047546)     ( 1.509440058)     ( 1.092277889)     ( 1.215185238)

 4-7  2.773528605  7-8  2.292575779  8-9  2.010689358
     ( 1.467688126)     ( 1.213178852)     ( 1.064010982)

 Bond angles

  1-2-3  110.12421543   1-2-4  109.57681280   1-2-5  107.81949903   2-4-6  123.68739543

  2-4-7  115.28502354   3-2-4  109.59389078   3-2-5  110.12421530   4-2-5  109.57681272

  4-7-8  178.37112628   6-4-7  121.02758103   7-8-9  178.59357076

 NUCLEAR CHARGE:                   36
 NUMBER OF PRIMITIVE AOS:         163
 NUMBER OF SYMMETRY AOS:          158
 NUMBER OF CONTRACTIONS:           90   (  90A   )
 NUMBER OF CORE ORBITALS:           5   (   5A   )
 NUMBER OF VALENCE ORBITALS:       24   (  24A   )


 NUCLEAR REPULSION ENERGY  142.22717261


 Eigenvalues of metric

         1 0.304E-03 0.212E-02 0.377E-02 0.954E-02 0.161E-01 0.176E-01 0.220E-01 0.329E-01


 Contracted 2-electron integrals neglected if value below      1.0D-16
 AO integral compression algorithm  1   Integral accuracy      1.0D-16

     56.099 MB (compressed) written to integral file ( 73.4%)

     Node minimum: 56.099 MB, node maximum: 56.099 MB


 NUMBER OF SORTED TWO-ELECTRON INTEGRALS:    8386560.     BUFFER LENGTH:  32768
 NUMBER OF SEGMENTS:   1  SEGMENT LENGTH:    8386560      RECORD LENGTH: 524288

 Memory used in sort:       8.94 MW

 SORT1 READ     9559587. AND WROTE     7161159. INTEGRALS IN     21 RECORDS. CPU TIME:     0.08 SEC, REAL TIME:     0.12 SEC
 SORT2 READ     7161159. AND WROTE     8386560. INTEGRALS IN    214 RECORDS. CPU TIME:     0.11 SEC, REAL TIME:     0.13 SEC

 FILE SIZES:   FILE 1:    51.8 MBYTE,  FILE 4:    88.1 MBYTE,   TOTAL:    140.0 MBYTE

 OPERATOR DM      FOR CENTER  0  COORDINATES:    0.000000    0.000000    0.000000


 **********************************************************************************************************************************
 DATASETS  * FILE   NREC   LENGTH (MB)   RECORD NAMES
              1      19       51.94       500      610      700      900      950      970     1000      129      960     1100   
                                          VAR    BASINP    GEOM    SYMINP    ZMAT    AOBASIS   BASIS     P2S    ABASIS      S 
                                         1400     1410     1200     1210     1080     1600     1650     1300     1700   
                                           T        V       H0       H01     AOSYM     SMH    MOLCAS    ERIS     OPER   

 PROGRAMS   *        TOTAL       INT
 CPU TIMES  *         1.10      1.05
 REAL TIME  *         1.39 SEC
 DISK USED  *       196.80 MB      
 GA USED    *         0.00 MB       (max)       0.00 MB       (current)
 **********************************************************************************************************************************

1PROGRAM * RHF-SCF (CLOSED SHELL)       Authors: W. Meyer, H.-J. Werner


 NUMBER OF ELECTRONS:      18+   18-    SPACE SYMMETRY=1    SPIN SYMMETRY: Singlet 
 CONVERGENCE THRESHOLDS:    1.00E-10 (Density)    1.00E-13 (Energy)
 MAX. NUMBER OF ITERATIONS:      200
 INTERPOLATION TYPE:            DIIS
 INTERPOLATION STEPS:              2 (START)      1 (STEP)
 LEVEL SHIFTS:                  0.00 (CLOSED)  0.00 (OPEN) 



 Orbital guess generated from atomic densities. Full valence occupancy:   29

 Molecular orbital dump at record        2100.2

 ITERATION    DDIFF          GRAD             ENERGY        2-EL.EN.            DIPOLE MOMENTS         DIIS
    1      0.000D+00      0.000D+00      -228.51848944    442.459715    1.91827    1.01227    0.00093    0
    2      0.000D+00      0.891D-02      -228.57146130    440.620499    0.82576    0.44457    0.00037    1
    3      0.212D-01      0.653D-02      -228.60354265    441.173592    1.22367    0.61450    0.00038    2
    4      0.782D-02      0.106D-02      -228.60539404    441.305447    1.16601    0.62450    0.00035    3
    5      0.237D-02      0.401D-03      -228.60565680    441.199012    1.16199    0.58252    0.00033    4
    6      0.831D-03      0.147D-03      -228.60569366    441.231545    1.16309    0.59264    0.00032    5
    7      0.319D-03      0.623D-04      -228.60570255    441.221432    1.15960    0.58509    0.00032    6
    8      0.163D-03      0.257D-04      -228.60570414    441.224480    1.15934    0.58438    0.00032    7
    9      0.770D-04      0.708D-05      -228.60570430    441.223222    1.15880    0.58389    0.00032    8
   10      0.281D-04      0.162D-05      -228.60570431    441.223655    1.15871    0.58388    0.00032    7
   11      0.547D-05      0.747D-06      -228.60570431    441.223423    1.15867    0.58388    0.00032    8
   12      0.240D-05      0.403D-06      -228.60570432    441.223462    1.15866    0.58387    0.00032    8
   13      0.190D-05      0.191D-06      -228.60570432    441.223451    1.15866    0.58387    0.00032    9
   14      0.849D-06      0.652D-07      -228.60570432    441.223453    1.15866    0.58386    0.00032    9
   15      0.275D-06      0.133D-07      -228.60570432    441.223455    1.15866    0.58386    0.00032    8
   16      0.467D-07      0.425D-08      -228.60570432    441.223454    1.15866    0.58386    0.00032    8
   17      0.901D-08      0.196D-08      -228.60570432    441.223454    1.15866    0.58386    0.00032    9
   18      0.427D-08      0.604D-09      -228.60570432    441.223454    1.15866    0.58386    0.00032    9
   19      0.147D-08      0.200D-09      -228.60570432    441.223454    1.15866    0.58386    0.00032    9
   20      0.538D-09      0.382D-10      -228.60570432    441.223454    1.15866    0.58386    0.00032    7
   21      0.112D-09      0.851D-11      -228.60570432    441.223454    1.15866    0.58386    0.00032    7
   22      0.214D-10      0.335D-11      -228.60570432    441.223454    1.15866    0.58386    0.00032    7
   23      0.785D-11      0.171D-11      -228.60570432    441.223454    1.15866    0.58386    0.00032    8
   24      0.550D-11      0.920D-12      -228.60570432    441.223454    1.15866    0.58386    0.00032    7
   25      0.442D-11      0.403D-12      -228.60570432    441.223454    1.15866    0.58386    0.00032    8
   26      0.263D-11      0.148D-12      -228.60570432    441.223454    1.15866    0.58386    0.00032    8
   27      0.826D-12      0.686D-13      -228.60570432    441.223454    1.15866    0.58386    0.00032    0

 Final occupancy:  18

 !RHF STATE 1.1 Energy               -228.605704316303
 Nuclear energy                       142.22717261
 One-electron energy                 -591.44460410
 Two-electron energy                  220.61172717
 Virial quotient                       -1.00147466
 !RHF STATE 1.1 Dipole moment           1.15865911     0.58386118     0.00031999
 Dipole moment /Debye                   2.94482483     1.48392991     0.00081327

 Orbital energies:

         1.1          2.1          3.1          4.1          5.1          6.1          7.1          8.1          9.1         10.1
    -20.568346   -11.368617   -11.272673   -11.261550   -11.252540    -1.403914    -1.070644    -1.015754    -0.860392    -0.733020

        11.1         12.1         13.1         14.1         15.1         16.1         17.1         18.1         19.1         20.1
     -0.684695    -0.637294    -0.614842    -0.570740    -0.518052    -0.445491    -0.417674    -0.414335     0.094160     0.180292


 **********************************************************************************************************************************
 DATASETS  * FILE   NREC   LENGTH (MB)   RECORD NAMES
              1      19       51.94       500      610      700      900      950      970     1000      129      960     1100   
                                          VAR    BASINP    GEOM    SYMINP    ZMAT    AOBASIS   BASIS     P2S    ABASIS      S 
                                         1400     1410     1200     1210     1080     1600     1650     1300     1700   
                                           T        V       H0       H01     AOSYM     SMH    MOLCAS    ERIS     OPER   

              2       3        0.57       700     1000     2100   
                                         GEOM     BASIS     RHF  

 PROGRAMS   *        TOTAL       RHF       INT
 CPU TIMES  *         2.98      1.88      1.05
 REAL TIME  *         3.47 SEC
 DISK USED  *       196.80 MB      
 GA USED    *         0.00 MB       (max)       0.00 MB       (current)
 **********************************************************************************************************************************


1PROGRAM * CCSD (Closed-shell coupled cluster)     Authors: C. Hampel, H.-J. Werner, 1991, M. Deegan, P.J. Knowles, 1992


 Convergence thresholds:  THRVAR = 1.00D-08  THRDEN = 1.00D-12

 CCSD(T)     terms to be evaluated (factor= 1.000)


 Number of core orbitals:           5 (   5 )
 Number of closed-shell orbitals:  13 (  13 )
 Number of external orbitals:      72 (  72 )

 Molecular orbitals read from record     2100.2  Type=RHF/CANONICAL (state 1.1)

 Number of N-1 electron functions:              13
 Number of N-2 electron functions:              91
 Number of singly external CSFs:               936
 Number of doubly external CSFs:            438516
 Total number of CSFs:                      439453

 Length of J-op  integral file:               0.00 MB
 Length of K-op  integral file:               0.59 MB
 Length of 3-ext integral record:             0.00 MB

 Memory could be reduced to 7.27 Mwords without degradation in triples

 Integral transformation finished. Total CPU:   0.38 sec, npass=  1  Memory used:   6.58 MW

 Reference energy:                   -228.60570432

 MP2 singlet pair energy:              -0.43052564
 MP2 triplet pair energy:              -0.26902462
 MP2 correlation energy:               -0.69955026
 MP2 total energy:                   -229.30525458

 SCS-MP2 correlation energy:           -0.68402387   (PS=  1.200000  PT=  0.333333)
 SCS-MP2 total energy:               -229.28972819

 ITER.      SQ.NORM     CORR.ENERGY   TOTAL ENERGY   ENERGY CHANGE        DEN1      VAR(S)    VAR(P)  DIIS     TIME
   1      1.25726248    -0.72722184  -229.33292616    -0.02767158    -0.00370828  0.60D-02  0.55D-02  1  1     1.32
   2      1.28001309    -0.72999462  -229.33569893    -0.00277278    -0.02080721  0.12D-03  0.98D-03  2  2     2.31
   3      1.29067075    -0.73077007  -229.33647439    -0.00077545    -0.00476047  0.11D-03  0.92D-04  3  3     3.30
   4      1.29495417    -0.73073501  -229.33643933     0.00003506    -0.00140743  0.80D-05  0.18D-04  4  4     4.29
   5      1.29681403    -0.73075608  -229.33646040    -0.00002107    -0.00044460  0.16D-05  0.20D-05  5  5     5.28
   6      1.29723914    -0.73075201  -229.33645633     0.00000407    -0.00006263  0.28D-06  0.27D-06  6  6     6.28
   7      1.29732686    -0.73074782  -229.33645213     0.00000419    -0.00000186  0.56D-07  0.30D-07  6  1     7.27
   8      1.29736498    -0.73074878  -229.33645310    -0.00000097    -0.00000948  0.11D-07  0.48D-08  6  2     8.25
   9      1.29736716    -0.73074888  -229.33645320    -0.00000010     0.00000298  0.17D-08  0.83D-09  6  3     9.25
  10      1.29736991    -0.73074860  -229.33645292     0.00000028    -0.00000057  0.33D-09  0.16D-09  6  4    10.23
  11      1.29736973    -0.73074886  -229.33645317    -0.00000025     0.00000057  0.42D-10  0.32D-10  6  5    11.21
  12      1.29736943    -0.73074881  -229.33645313     0.00000004     0.00000015  0.82D-11  0.62D-11  6  6    12.21
  13      1.29736909    -0.73074884  -229.33645316    -0.00000003     0.00000015  0.95D-12  0.16D-11  6  1    13.20
  14      1.29736885    -0.73074884  -229.33645316    -0.00000000     0.00000006  0.28D-12  0.24D-12  6  2    14.20
  15      1.29736875    -0.73074884  -229.33645316    -0.00000000     0.00000003  0.43D-13  0.50D-13  6  3    15.19
  16      1.29736870    -0.73074885  -229.33645316    -0.00000000     0.00000001  0.84D-14  0.99D-14  6  4    16.19
  17      1.29736868    -0.73074885  -229.33645316    -0.00000000     0.00000000  0.26D-14  0.12D-14  6  5    17.18
  18      1.29736868    -0.73074885  -229.33645316    -0.00000000    -0.00000000  0.39D-15  0.25D-15  6  6    18.16
  19      1.29736867    -0.73074885  -229.33645316    -0.00000000    -0.00000000  0.11D-15  0.49D-16  6  1    19.15
  20      1.29736867    -0.73074885  -229.33645316    -0.00000000    -0.00000000  0.36D-16  0.10D-16  6  4    20.14
  21      1.29736867    -0.73074885  -229.33645316    -0.00000000     0.00000000  0.11D-16  0.25D-17  6  2    21.13
  22      1.29736867    -0.73074885  -229.33645316    -0.00000000     0.00000000  0.39D-17  0.97D-18  6  3    22.13
  23      1.29736867    -0.73074885  -229.33645316     0.00000000    -0.00000000  0.11D-17  0.35D-18  6  5    23.12
  24      1.29736867    -0.73074885  -229.33645316    -0.00000000    -0.00000000  0.30D-18  0.11D-18  6  6    24.11
  25      1.29736867    -0.73074885  -229.33645316     0.00000000    -0.00000000  0.38D-19  0.19D-19  6  4    25.10
  26      1.29736867    -0.73074885  -229.33645316    -0.00000000    -0.00000000  0.13D-19  0.35D-20  6  1    26.10
  27      1.29736867    -0.73074885  -229.33645316     0.00000000    -0.00000000  0.38D-20  0.14D-20  6  3    27.09

 Norm of t1 vector:      0.10831562      S-energy:     0.00000000      T1 diagnostic:  0.01502067
                                                                       D1 diagnostic:  0.05036140

 Doubles amplitudes (print threshold =  0.500E-01):

         I         J         SYM. A    SYM. B    A         B      T(IJ, AB)

        10        10         1         1         1         1     -0.05828727
        12        12         1         1         2         2     -0.06496587
        13        13         1         1         1         1     -0.07380556


 Total CPU time for triples:      9.11 sec


 RESULTS
 =======

  Reference energy                   -228.605704316303
  CCSD singlet pair energy             -0.496644284511
  CCSD triplet pair energy             -0.234104562196
  CCSD correlation energy              -0.730748846707

  Triples (T) contribution             -0.028475873385
  Total correlation energy             -0.759224720092

  CCSD total energy                  -229.336453163010
  CCSD[T] energy                     -229.366784863225
  CCSD-T energy                      -229.364226085365
 !CCSD(T) total energy               -229.364929036395

 Timing summary (sec):

 STEP                 CPU(USER)    SYS     CPU(TOT)    WALL
 Transformation          0.40      0.05      0.45      0.46
 CCSD iterations        26.69      0.81     27.50     27.57
 Triples                 9.11      0.22      9.33      9.33

 Program statistics:

 Available memory in ccsd:               999999224
 Min. memory needed in ccsd:               1253983
 Max. memory used in ccsd:                 1626745
 Max. memory used in cckext:               1605212 (27 integral passes)



 **********************************************************************************************************************************
 DATASETS  * FILE   NREC   LENGTH (MB)   RECORD NAMES
              1      20       80.70       500      610      700      900      950      970     1000      129      960     1100   
                                          VAR    BASINP    GEOM    SYMINP    ZMAT    AOBASIS   BASIS     P2S    ABASIS      S 
                                         1400     1410     1200     1210     1080     1600     1650     1300     1700     1380   
                                           T        V       H0       H01     AOSYM     SMH    MOLCAS    ERIS     OPER     JKOP   

              2       3        0.57       700     1000     2100   
                                         GEOM     BASIS     RHF  

 PROGRAMS   *        TOTAL   CCSD(T)       RHF       INT
 CPU TIMES  *        39.19     36.21      1.88      1.05
 REAL TIME  *        40.87 SEC
 DISK USED  *       215.54 MB      
 GA USED    *         0.00 MB       (max)       0.00 MB       (current)
 **********************************************************************************************************************************

        CCSD(T)         RHF-SCF 
   -229.36492904   -228.60570432
 **********************************************************************************************************************************
 Variable memory released
