
 Primary working directories    : /tmp/943448.333.gen5.q
 Secondary working directories  : /tmp/943448.333.gen5.q
 Wavefunction directory         : /home/vulcan/mel64643/wfu/
 Main file repository           : /tmp/943448.333.gen5.q/

 ARCHNAME  : Linux/x86_64
 FC        : /opt/intel/compilers_and_libraries_2016.1.150/linux/bin/intel64/ifort
 FCVERSION : 16.0.1
 BLASLIB   : -mkl
 id        : ccgc

 Nodes     nprocs
 n070         1
 ga_uses_ma=false, calling ma_init with nominal heap.
 GA-space will be limited to   8.0 MW (determined by -G option)

 Using customized tuning parameters: mindgm=10; mindgv=16; mindgc=4; mindgr=1; noblas=0; mincuda=1000; minvec=7
 default implementation of scratch files=df  

 ***,Optimization of nh3_nitrosmethane
 memory,1000,m
 gthresh,energy=1.0d-12,orbital=1.0d-10,oneint=1.0d-16,twoint=1.0d-16,optgrad=1.0d-6,compress=1.0d-13
 geomtyp=xyz
 
 bohr
 geometry = {
  N   -5.2164295663   -0.1849540060   -0.0000000000
  H   -6.2981783053    0.2283533795   -1.5295531527
  H   -3.7513380601    1.0572473817    0.0000000000
  H   -6.2981783053    0.2283533795    1.5295531527
  H   -0.9275924272   -2.3984061768    0.0000000000
  H    1.8793212707   -3.4332043560   -1.6666900900
  H    1.8793212707   -3.4332043560    1.6666900900
  C    1.1329155985   -2.4688780109    0.0000000000
  N    2.2638497146    0.0987380747   -0.0000000000
  O    0.7004272996    1.7830116993   -0.0000000000
 }
 
 basis=aug-cc-pvdz
 {rhf;maxit,200}
 {ccsd(t);maxit,200}

 Variables initialized (661), CPU time= 0.01 sec
 Commands  initialized (458), CPU time= 0.01 sec, 486 directives.
 Default parameters read. Elapsed time= 0.11 sec

 Checking input...
 Passed
1


                                         ***  PROGRAM SYSTEM MOLPRO  ***
                         Copyright, University College Cardiff Consultants Limited, 2008

                                    Version 2010.1 linked May 16 2016 07:17:05


 **********************************************************************************************************************************
 LABEL *   Optimization of nh3_nitrosmethane                                             
 Linux-4.4.3/n070(x86_64) 64 bit mpp version                                             DATE: 26-Oct-23          TIME: 13:40:37  
 **********************************************************************************************************************************

 SHA1:             9e8077add272b0f3cad6f7df79ec5211205f459d
 **********************************************************************************************************************************

 THRESHOLDS:

 ZERO    =  1.00D-12  ONEINT  =  1.00D-16  TWOINT  =  1.00D-16  PREFAC  =  1.00D-14  LOCALI  =  1.00D-09  EORDER  =  1.00D-04
 ENERGY  =  1.00D-12  ETEST   =  0.00D+00  EDENS   =  0.00D+00  THRDEDEF=  1.00D-06  GRADIENT=  1.00D-02  STEP    =  1.00D-03
 ORBITAL =  1.00D-10  CIVEC   =  1.00D-05  COEFF   =  1.00D-04  PRINTCI =  5.00D-02  PUNCHCI =  9.90D+01  OPTGRAD =  1.00D-06
 OPTENERG=  1.00D-06  OPTSTEP =  3.00D-04  THRGRAD =  1.00D-10  COMPRESS=  1.00D-13  VARMIN  =  1.00D-07  VARMAX  =  1.00D-03
 THRDOUB =  0.00D+00  THRDIV  =  1.00D-05  THRRED  =  1.00D-07  THRPSP  =  1.00D+00  THRDC   =  1.00D-10  THRCS   =  1.00D-10
 THRNRM  =  1.00D-08  THREQ   =  0.00D+00  THRDE   =  1.00D+00  THRREF  =  1.00D-05  SPARFAC =  1.00D+00  THRDLP  =  1.00D-07
 THRDIA  =  1.00D-10  THRDLS  =  1.00D-07  THRGPS  =  0.00D+00  THRKEX  =  0.00D+00  THRDIS  =  2.00D-01  THRVAR  =  1.00D-10
 THRLOC  =  1.00D-06  THRGAP  =  1.00D-06  THRLOCT = -1.00D+00  THRGAPT = -1.00D+00  THRORB  =  1.00D-06  THRMLTP =  0.00D+00
 THRCPQCI=  1.00D-10  KEXTA   =  0.00D+00  THRCOARS=  0.00D+00  SYMTOL  =  1.00D-06  GRADTOL =  1.00D-06  THROVL  =  1.00D-08
 THRORTH =  1.00D-08  GRID    =  1.00D-06  GRIDMAX =  1.00D-03  DTMAX   =  0.00D+00

 SETTING GEOMTYP        =    XYZ
 ZUNIT=BOHR
 

 Variable memory set to 1000000000 words,  buffer space   230000 words

 SETTING BASIS          =    AUG-CC-PVDZ


 Recomputing integrals since basis changed


 Using spherical harmonics

 Library entry N      S aug-cc-pVDZ          selected for orbital group  1
 Library entry N      P aug-cc-pVDZ          selected for orbital group  1
 Library entry N      D aug-cc-pVDZ          selected for orbital group  1
 Library entry H      S aug-cc-pVDZ          selected for orbital group  2
 Library entry H      P aug-cc-pVDZ          selected for orbital group  2
 Library entry C      S aug-cc-pVDZ          selected for orbital group  3
 Library entry C      P aug-cc-pVDZ          selected for orbital group  3
 Library entry C      D aug-cc-pVDZ          selected for orbital group  3
 Library entry O      S aug-cc-pVDZ          selected for orbital group  5
 Library entry O      P aug-cc-pVDZ          selected for orbital group  5
 Library entry O      D aug-cc-pVDZ          selected for orbital group  5

1PROGRAM * SEWARD (Integral evaluation for generally contracted gaussian basis sets)     Author: Roland Lindh, 1990

 Geometry written to block  1 of record 700


 Point group  Cs  



 ATOMIC COORDINATES

 NR  ATOM    CHARGE       X              Y              Z

   1  N       7.00   -5.216429566   -0.184954006    0.000000000
   2  H       1.00   -6.298178305    0.228353380   -1.529553153
   3  H       1.00   -6.298178305    0.228353380    1.529553153
   4  H       1.00   -3.751338060    1.057247382    0.000000000
   5  H       1.00   -0.927592427   -2.398406177    0.000000000
   6  H       1.00    1.879321271   -3.433204356   -1.666690090
   7  H       1.00    1.879321271   -3.433204356    1.666690090
   8  C       6.00    1.132915598   -2.468878011    0.000000000
   9  N       7.00    2.263849715    0.098738075    0.000000000
  10  O       8.00    0.700427300    1.783011699    0.000000000

 Bond lengths in Bohr (Angstrom)

 1-2  1.918472355  1-3  1.918472355  1-4  1.920822066  5-8  2.061712784  6-8  2.065164057
     ( 1.015211846)     ( 1.015211846)     ( 1.016455260)     ( 1.091011417)     ( 1.092837752)

  7- 8  2.065164057   8- 9  2.805648648   9-10  2.298057286
       ( 1.092837752)       ( 1.484685321)       ( 1.216079541)

 Bond angles

  2-1-3  105.74163993   2-1-4  106.90324186   3-1-4  106.90324186   5-8-6  112.15889786

  5-8-7  112.15889786   5-8-9  111.81278753   6-8-7  107.61735053   6-8-9  106.35838670

  7- 8- 9  106.35838670   8- 9-10  113.35946297

 NUCLEAR CHARGE:                   34
 NUMBER OF PRIMITIVE AOS:         214
 NUMBER OF SYMMETRY AOS:          206
 NUMBER OF CONTRACTIONS:          146   (  96A'  +  50A"  )
 NUMBER OF CORE ORBITALS:           4   (   4A'  +   0A"  )
 NUMBER OF VALENCE ORBITALS:       22   (  16A'  +   6A"  )


 NUCLEAR REPULSION ENERGY  117.43472480


 Eigenvalues of metric

         1 0.324E-03 0.517E-03 0.620E-03 0.106E-02 0.118E-02 0.126E-02 0.191E-02 0.208E-02
         2 0.673E-03 0.185E-02 0.486E-02 0.941E-02 0.131E-01 0.180E-01 0.210E-01 0.241E-01


 Contracted 2-electron integrals neglected if value below      1.0D-16
 AO integral compression algorithm  1   Integral accuracy      1.0D-16

     261.358 MB (compressed) written to integral file ( 94.6%)

     Node minimum: 261.358 MB, node maximum: 261.358 MB


 NUMBER OF SORTED TWO-ELECTRON INTEGRALS:   29464146.     BUFFER LENGTH:  32768
 NUMBER OF SEGMENTS:   2  SEGMENT LENGTH:   15998994      RECORD LENGTH: 524288

 Memory used in sort:      16.56 MW

 SORT1 READ    34536484. AND WROTE    29309754. INTEGRALS IN     85 RECORDS. CPU TIME:     0.41 SEC, REAL TIME:     0.65 SEC
 SORT2 READ    29309754. AND WROTE    29464146. INTEGRALS IN    997 RECORDS. CPU TIME:     0.30 SEC, REAL TIME:     0.45 SEC

 FILE SIZES:   FILE 1:   230.9 MBYTE,  FILE 4:   356.5 MBYTE,   TOTAL:    587.4 MBYTE

 OPERATOR DM      FOR CENTER  0  COORDINATES:    0.000000    0.000000    0.000000


 **********************************************************************************************************************************
 DATASETS  * FILE   NREC   LENGTH (MB)   RECORD NAMES
              1      19      231.03       500      610      700      900      950      970     1000      129      960     1100   
                                          VAR    BASINP    GEOM    SYMINP    ZMAT    AOBASIS   BASIS     P2S    ABASIS      S 
                                         1400     1410     1200     1210     1080     1600     1650     1300     1700   
                                           T        V       H0       H01     AOSYM     SMH    MOLCAS    ERIS     OPER   

 PROGRAMS   *        TOTAL       INT
 CPU TIMES  *         3.04      2.91
 REAL TIME  *         4.11 SEC
 DISK USED  *       849.60 MB      
 GA USED    *         0.00 MB       (max)       0.00 MB       (current)
 **********************************************************************************************************************************

1PROGRAM * RHF-SCF (CLOSED SHELL)       Authors: W. Meyer, H.-J. Werner


 NUMBER OF ELECTRONS:      17+   17-
 CONVERGENCE THRESHOLDS:    1.00E-10 (Density)    1.00E-13 (Energy)
 MAX. NUMBER OF ITERATIONS:      200
 INTERPOLATION TYPE:            DIIS
 INTERPOLATION STEPS:              2 (START)      1 (STEP)
 LEVEL SHIFTS:                  0.00 (CLOSED)  0.00 (OPEN) 



 Orbital guess generated from atomic densities. Full valence occupancy:   20   6

 Molecular orbital dump at record        2100.2

 Initial alpha occupancy:  14   3
 Initial beta  occupancy:  14   3
 Wave function symmetry:    1

 ITERATION    DDIFF          GRAD             ENERGY        2-EL.EN.            DIPOLE MOMENTS         DIIS
    1      0.000D+00      0.000D+00      -224.96615750    393.179778    0.06888   -0.58023    0.00000    0
    2      0.000D+00      0.799D-02      -225.02698425    392.799164   -0.57845   -0.38614    0.00000    1
    3      0.149D-01      0.559D-02      -225.06086571    393.350542   -0.23478   -0.56379    0.00000    2
    4      0.646D-02      0.112D-02      -225.06312666    393.185322   -0.31286   -0.46636    0.00000    3
    5      0.162D-02      0.443D-03      -225.06355115    393.197010   -0.31042   -0.49613    0.00000    4
    6      0.727D-03      0.107D-03      -225.06359401    393.224491   -0.31589   -0.49320    0.00000    5
    7      0.243D-03      0.410D-04      -225.06360011    393.208279   -0.31752   -0.49325    0.00000    6
    8      0.101D-03      0.166D-04      -225.06360111    393.214732   -0.31853   -0.49316    0.00000    7
    9      0.383D-04      0.714D-05      -225.06360132    393.213603   -0.31881   -0.49286    0.00000    8
   10      0.215D-04      0.219D-05      -225.06360134    393.213310   -0.31890   -0.49268    0.00000    8
   11      0.650D-05      0.735D-06      -225.06360134    393.213416   -0.31892   -0.49259    0.00000    8
   12      0.218D-05      0.225D-06      -225.06360135    393.213379   -0.31892   -0.49257    0.00000    8
   13      0.781D-06      0.703D-07      -225.06360135    393.213373   -0.31892   -0.49256    0.00000    8
   14      0.194D-06      0.356D-07      -225.06360135    393.213376   -0.31892   -0.49256    0.00000    9
   15      0.875D-07      0.340D-08      -225.06360135    393.213376   -0.31892   -0.49256    0.00000    8
   16      0.839D-08      0.949D-09      -225.06360135    393.213376   -0.31892   -0.49256    0.00000    7
   17      0.286D-08      0.201D-09      -225.06360135    393.213376   -0.31892   -0.49256    0.00000    7
   18      0.527D-09      0.704D-10      -225.06360135    393.213376   -0.31892   -0.49256    0.00000    7
   19      0.170D-09      0.226D-10      -225.06360135    393.213376   -0.31892   -0.49256    0.00000    7
   20      0.583D-10      0.650D-11      -225.06360135    393.213376   -0.31892   -0.49256    0.00000    6
   21      0.197D-10      0.197D-11      -225.06360135    393.213376   -0.31892   -0.49256    0.00000    0

 Final occupancy:  14   3

 !RHF STATE 1.1 Energy               -225.063601345086
 Nuclear energy                       117.43472480
 One-electron energy                 -539.10501405
 Two-electron energy                  196.60668790
 Virial quotient                       -1.00217433
 !RHF STATE 1.1 Dipole moment          -0.31891905    -0.49256085     0.00000000
 Dipole moment /Debye                  -0.81055828    -1.25188281     0.00000000

 Orbital energies:

         1.1          2.1          3.1          4.1          5.1          6.1          7.1          8.1          9.1         10.1
    -20.640546   -15.714940   -15.548553   -11.270837    -1.515133    -1.140399    -1.076173    -0.862485    -0.691520    -0.676080

        11.1         12.1         13.1         14.1         15.1         16.1
     -0.624639    -0.555724    -0.428456    -0.406241     0.034990     0.046226

         1.2          2.2          3.2          4.2          5.2
     -0.636320    -0.623232    -0.534542     0.052287     0.067304


 **********************************************************************************************************************************
 DATASETS  * FILE   NREC   LENGTH (MB)   RECORD NAMES
              1      19      231.03       500      610      700      900      950      970     1000      129      960     1100   
                                          VAR    BASINP    GEOM    SYMINP    ZMAT    AOBASIS   BASIS     P2S    ABASIS      S 
                                         1400     1410     1200     1210     1080     1600     1650     1300     1700   
                                           T        V       H0       H01     AOSYM     SMH    MOLCAS    ERIS     OPER   

              2       3        0.67       700     1000     2100   
                                         GEOM     BASIS     RHF  

 PROGRAMS   *        TOTAL       RHF       INT
 CPU TIMES  *         6.33      3.29      2.91
 REAL TIME  *         8.08 SEC
 DISK USED  *       849.60 MB      
 GA USED    *         0.00 MB       (max)       0.00 MB       (current)
 **********************************************************************************************************************************


1PROGRAM * CCSD (Closed-shell coupled cluster)     Authors: C. Hampel, H.-J. Werner, 1991, M. Deegan, P.J. Knowles, 1992


 Convergence thresholds:  THRVAR = 1.00D-08  THRDEN = 1.00D-12

 CCSD(T)     terms to be evaluated (factor= 1.000)


 Number of core orbitals:           4 (   4   0 )
 Number of closed-shell orbitals:  13 (  10   3 )
 Number of external orbitals:     129 (  82  47 )

 Molecular orbitals read from record     2100.2  Type=RHF/CANONICAL (state 1.1)

 Number of N-1 electron functions:              13
 Number of N-2 electron functions:              91
 Number of singly external CSFs:               961
 Number of doubly external CSFs:            718927
 Total number of CSFs:                      719889

 Length of J-op  integral file:               0.00 MB
 Length of K-op  integral file:               0.85 MB
 Length of 3-ext integral record:             0.00 MB

 Memory could be reduced to 18.91 Mwords without degradation in triples

 Integral transformation finished. Total CPU:   0.83 sec, npass=  1  Memory used:   7.13 MW

 Reference energy:                   -225.06360135

 MP2 singlet pair energy:              -0.45131594
 MP2 triplet pair energy:              -0.26575524
 MP2 correlation energy:               -0.71707118
 MP2 total energy:                   -225.78067253

 SCS-MP2 correlation energy:           -0.70693795   (PS=  1.200000  PT=  0.333333)
 SCS-MP2 total energy:               -225.77053929

 ITER.      SQ.NORM     CORR.ENERGY   TOTAL ENERGY   ENERGY CHANGE        DEN1      VAR(S)    VAR(P)  DIIS     TIME
   1      1.24222852    -0.75081458  -225.81441592    -0.03374339    -0.00983701  0.53D-02  0.49D-02  1  1     2.19
   2      1.26409204    -0.75387171  -225.81747305    -0.00305713    -0.02116190  0.17D-03  0.87D-03  2  2     3.60
   3      1.27419906    -0.75458024  -225.81818159    -0.00070854    -0.00465286  0.12D-03  0.62D-04  3  3     5.02
   4      1.27838770    -0.75454458  -225.81814593     0.00003566    -0.00138534  0.11D-04  0.11D-04  4  4     6.44
   5      1.28006687    -0.75456260  -225.81816395    -0.00001802    -0.00036601  0.20D-05  0.17D-05  5  5     7.85
   6      1.28053391    -0.75453227  -225.81813362     0.00003033    -0.00005579  0.17D-06  0.34D-06  6  6     9.28
   7      1.28063929    -0.75452885  -225.81813020     0.00000342    -0.00000437  0.37D-07  0.92D-07  6  2    10.71
   8      1.28066639    -0.75452966  -225.81813101    -0.00000081    -0.00000065  0.52D-08  0.22D-07  6  1    12.14
   9      1.28067263    -0.75452901  -225.81813036     0.00000065     0.00000233  0.20D-08  0.33D-08  6  3    13.56
  10      1.28066728    -0.75452997  -225.81813132    -0.00000096     0.00000152  0.47D-09  0.64D-09  6  5    14.99
  11      1.28066668    -0.75453015  -225.81813150    -0.00000018     0.00000058  0.14D-09  0.68D-10  6  4    16.41
  12      1.28066571    -0.75453020  -225.81813154    -0.00000004     0.00000018  0.40D-10  0.13D-10  6  6    17.84
  13      1.28066505    -0.75453025  -225.81813159    -0.00000005     0.00000007  0.89D-11  0.35D-11  6  2    19.29
  14      1.28066454    -0.75453025  -225.81813160    -0.00000001     0.00000007  0.23D-11  0.77D-12  6  1    20.71
  15      1.28066425    -0.75453027  -225.81813161    -0.00000001     0.00000005  0.29D-12  0.20D-12  6  5    22.13
  16      1.28066409    -0.75453027  -225.81813162    -0.00000001     0.00000003  0.33D-13  0.30D-13  6  3    23.75
  17      1.28066405    -0.75453027  -225.81813162    -0.00000000     0.00000001  0.64D-14  0.69D-14  6  4    25.17
  18      1.28066403    -0.75453028  -225.81813162    -0.00000000     0.00000000  0.13D-14  0.21D-14  6  6    26.59
  19      1.28066403    -0.75453028  -225.81813162     0.00000000     0.00000000  0.13D-15  0.35D-15  6  2    28.10
  20      1.28066403    -0.75453028  -225.81813162     0.00000000     0.00000000  0.30D-16  0.59D-16  6  1    29.51
  21      1.28066403    -0.75453028  -225.81813162    -0.00000000     0.00000000  0.11D-16  0.11D-16  6  5    30.95
  22      1.28066403    -0.75453028  -225.81813162     0.00000000    -0.00000000  0.27D-17  0.27D-17  6  3    32.38
  23      1.28066403    -0.75453028  -225.81813162     0.00000000    -0.00000000  0.13D-17  0.45D-18  6  2    33.86
  24      1.28066403    -0.75453028  -225.81813162     0.00000000    -0.00000000  0.30D-18  0.77D-19  6  4    35.28
  25      1.28066403    -0.75453028  -225.81813162     0.00000000    -0.00000000  0.63D-19  0.21D-19  6  6    36.74
  26      1.28066403    -0.75453028  -225.81813162     0.00000000    -0.00000000  0.16D-19  0.45D-20  6  1    38.16
  27      1.28066403    -0.75453028  -225.81813162     0.00000000    -0.00000000  0.27D-20  0.15D-20  6  5    39.59

 Norm of t1 vector:      0.11185268      S-energy:     0.00000000      T1 diagnostic:  0.01551118
                                                                       D1 diagnostic:  0.04954263

 Doubles amplitudes (print threshold =  0.500E-01):

         I         J         SYM. A    SYM. B    A         B      T(IJ, AB)

        11        11         2         2         3         3     -0.05244698
        13        11         2         2         3         3     -0.05300139
        13        13         2         2         3         3     -0.07519142


 Total CPU time for triples:     27.99 sec


 RESULTS
 =======

  Reference energy                   -225.063601345086
  CCSD singlet pair energy             -0.519381628480
  CCSD triplet pair energy             -0.235148647010
  CCSD correlation energy              -0.754530275489

  Triples (T) contribution             -0.026872490615
  Total correlation energy             -0.781402766105

  CCSD total energy                  -225.818131620575
  CCSD[T] energy                     -225.846633911630
  CCSD-T energy                      -225.844493384426
 !CCSD(T) total energy               -225.845004111191

 Timing summary (sec):

 STEP                 CPU(USER)    SYS     CPU(TOT)    WALL
 Transformation          0.85      0.12      0.97      0.98
 CCSD iterations        38.74      1.93     40.67     40.78
 Triples                27.99      0.78     28.77     28.78

 Program statistics:

 Available memory in ccsd:               999999224
 Min. memory needed in ccsd:               1936686
 Max. memory used in ccsd:                 2572354
 Max. memory used in cckext:               2602483 (27 integral passes)



 **********************************************************************************************************************************
 DATASETS  * FILE   NREC   LENGTH (MB)   RECORD NAMES
              1      20      300.35       500      610      700      900      950      970     1000      129      960     1100   
                                          VAR    BASINP    GEOM    SYMINP    ZMAT    AOBASIS   BASIS     P2S    ABASIS      S 
                                         1400     1410     1200     1210     1080     1600     1650     1300     1700     1380   
                                           T        V       H0       H01     AOSYM     SMH    MOLCAS    ERIS     OPER     JKOP   

              2       3        0.67       700     1000     2100   
                                         GEOM     BASIS     RHF  

 PROGRAMS   *        TOTAL   CCSD(T)       RHF       INT
 CPU TIMES  *        73.93     67.60      3.29      2.91
 REAL TIME  *        78.65 SEC
 DISK USED  *       849.60 MB      
 GA USED    *         0.00 MB       (max)       0.00 MB       (current)
 **********************************************************************************************************************************

        CCSD(T)         RHF-SCF 
   -225.84500411   -225.06360135
 **********************************************************************************************************************************
 Variable memory released
