
 Primary working directories    : /tmp/943419.212.gen6.q
 Secondary working directories  : /tmp/943419.212.gen6.q
 Wavefunction directory         : /home/vulcan/mel64643/wfu/
 Main file repository           : /tmp/943419.212.gen6.q/

 ARCHNAME  : Linux/x86_64
 FC        : /opt/intel/compilers_and_libraries_2016.1.150/linux/bin/intel64/ifort
 FCVERSION : 16.0.1
 BLASLIB   : -mkl
 id        : ccgc

 Nodes     nprocs
 n074         1
 ga_uses_ma=false, calling ma_init with nominal heap.
 GA-space will be limited to   8.0 MW (determined by -G option)

 Using customized tuning parameters: mindgm=10; mindgv=16; mindgc=4; mindgr=1; noblas=0; mincuda=1000; minvec=7
 default implementation of scratch files=df  

 ***,Optimization of nh3_nitrosmethane
 memory,1000,m
 gthresh,energy=1.0d-12,orbital=1.0d-10,oneint=1.0d-16,twoint=1.0d-16,optgrad=1.0d-6,compress=1.0d-13
 geomtyp=xyz
 
 bohr
 geometry = {
  N   -5.2231761392   -0.1850183466    0.0015354236
  H   -6.2988026135    0.2270440831   -1.5326641770
  H   -3.7595509114    1.0589067480   -0.0014580469
  H   -6.2966816883    0.2319329840    1.5358996556
  H   -0.9263441529   -2.4027542031   -0.0074254260
  H    1.8855530263   -3.4388617479   -1.6648762233
  H    1.8762053728   -3.4344800244    1.6684879483
  C    1.1341775200   -2.4725795693   -0.0015553936
  N    2.2683391976    0.1045418010   -0.0017625267
  O    0.7043988787    1.7883252842    0.0038187658
 }
 
 basis=aug-cc-pvtz
 {rhf;maxit,200}
 {mp2}

 Variables initialized (661), CPU time= 0.00 sec
 Commands  initialized (458), CPU time= 0.00 sec, 486 directives.
 Default parameters read. Elapsed time= 0.04 sec

 Checking input...
 Passed
1


                                         ***  PROGRAM SYSTEM MOLPRO  ***
                         Copyright, University College Cardiff Consultants Limited, 2008

                                    Version 2010.1 linked May 16 2016 07:17:05


 **********************************************************************************************************************************
 LABEL *   Optimization of nh3_nitrosmethane                                             
 Linux-4.4.3/n074(x86_64) 64 bit mpp version                                             DATE: 25-Oct-23          TIME: 22:37:33  
 **********************************************************************************************************************************

 SHA1:             9e8077add272b0f3cad6f7df79ec5211205f459d
 **********************************************************************************************************************************

 THRESHOLDS:

 ZERO    =  1.00D-12  ONEINT  =  1.00D-16  TWOINT  =  1.00D-16  PREFAC  =  1.00D-14  LOCALI  =  1.00D-09  EORDER  =  1.00D-04
 ENERGY  =  1.00D-12  ETEST   =  0.00D+00  EDENS   =  0.00D+00  THRDEDEF=  1.00D-06  GRADIENT=  1.00D-02  STEP    =  1.00D-03
 ORBITAL =  1.00D-10  CIVEC   =  1.00D-05  COEFF   =  1.00D-04  PRINTCI =  5.00D-02  PUNCHCI =  9.90D+01  OPTGRAD =  1.00D-06
 OPTENERG=  1.00D-06  OPTSTEP =  3.00D-04  THRGRAD =  1.00D-10  COMPRESS=  1.00D-13  VARMIN  =  1.00D-07  VARMAX  =  1.00D-03
 THRDOUB =  0.00D+00  THRDIV  =  1.00D-05  THRRED  =  1.00D-07  THRPSP  =  1.00D+00  THRDC   =  1.00D-10  THRCS   =  1.00D-10
 THRNRM  =  1.00D-08  THREQ   =  0.00D+00  THRDE   =  1.00D+00  THRREF  =  1.00D-05  SPARFAC =  1.00D+00  THRDLP  =  1.00D-07
 THRDIA  =  1.00D-10  THRDLS  =  1.00D-07  THRGPS  =  0.00D+00  THRKEX  =  0.00D+00  THRDIS  =  2.00D-01  THRVAR  =  1.00D-10
 THRLOC  =  1.00D-06  THRGAP  =  1.00D-06  THRLOCT = -1.00D+00  THRGAPT = -1.00D+00  THRORB  =  1.00D-06  THRMLTP =  0.00D+00
 THRCPQCI=  1.00D-10  KEXTA   =  0.00D+00  THRCOARS=  0.00D+00  SYMTOL  =  1.00D-06  GRADTOL =  1.00D-06  THROVL  =  1.00D-08
 THRORTH =  1.00D-08  GRID    =  1.00D-06  GRIDMAX =  1.00D-03  DTMAX   =  0.00D+00

 SETTING GEOMTYP        =    XYZ
 ZUNIT=BOHR
 

 Variable memory set to 1000000000 words,  buffer space   230000 words

 SETTING BASIS          =    AUG-CC-PVTZ


 Recomputing integrals since basis changed


 Using spherical harmonics

 Library entry N      S aug-cc-pVTZ          selected for orbital group  1
 Library entry N      P aug-cc-pVTZ          selected for orbital group  1
 Library entry N      D aug-cc-pVTZ          selected for orbital group  1
 Library entry N      F aug-cc-pVTZ          selected for orbital group  1
 Library entry H      S aug-cc-pVTZ          selected for orbital group  2
 Library entry H      P aug-cc-pVTZ          selected for orbital group  2
 Library entry H      D aug-cc-pVTZ          selected for orbital group  2
 Library entry C      S aug-cc-pVTZ          selected for orbital group  3
 Library entry C      P aug-cc-pVTZ          selected for orbital group  3
 Library entry C      D aug-cc-pVTZ          selected for orbital group  3
 Library entry C      F aug-cc-pVTZ          selected for orbital group  3
 Library entry O      S aug-cc-pVTZ          selected for orbital group  5
 Library entry O      P aug-cc-pVTZ          selected for orbital group  5
 Library entry O      D aug-cc-pVTZ          selected for orbital group  5
 Library entry O      F aug-cc-pVTZ          selected for orbital group  5

1PROGRAM * SEWARD (Integral evaluation for generally contracted gaussian basis sets)     Author: Roland Lindh, 1990

 Geometry written to block  1 of record 700


 Point group  C1  



 ATOMIC COORDINATES

 NR  ATOM    CHARGE       X              Y              Z

   1  N       7.00   -5.223176139   -0.185018347    0.001535424
   2  H       1.00   -6.298802614    0.227044083   -1.532664177
   3  H       1.00   -3.759550911    1.058906748   -0.001458047
   4  H       1.00   -6.296681688    0.231932984    1.535899656
   5  H       1.00   -0.926344153   -2.402754203   -0.007425426
   6  H       1.00    1.885553026   -3.438861748   -1.664876223
   7  H       1.00    1.876205373   -3.434480024    1.668487948
   8  C       6.00    1.134177520   -2.472579569   -0.001555394
   9  N       7.00    2.268339198    0.104541801   -0.001762527
  10  O       8.00    0.704398879    1.788325284    0.003818766

 Bond lengths in Bohr (Angstrom)

 1-2  1.918472354  1-3  1.920822066  1-4  1.918472354  5-8  2.061712784  6-8  2.065164057
     ( 1.015211846)     ( 1.016455260)     ( 1.015211846)     ( 1.091011417)     ( 1.092837752)

  7- 8  2.065164057   8- 9  2.815648648   9-10  2.298057286
       ( 1.092837752)       ( 1.489977093)       ( 1.216079541)

 Bond angles

  2-1-3  106.67095347   2-1-4  106.21107507   3-1-4  106.67095329   5-8-6  112.15889860

  5-8-7  112.15889798   5-8-9  111.81278795   6-8-7  107.61734951   6-8-9  106.35838668

  7- 8- 9  106.35838634   8- 9-10  113.35946296

 NUCLEAR CHARGE:                   34
 NUMBER OF PRIMITIVE AOS:         430
 NUMBER OF SYMMETRY AOS:          382
 NUMBER OF CONTRACTIONS:          322   ( 322A   )
 NUMBER OF CORE ORBITALS:           4   (   4A   )
 NUMBER OF VALENCE ORBITALS:       22   (  22A   )


 NUCLEAR REPULSION ENERGY  117.28614486


 Eigenvalues of metric

         1 0.334E-04 0.532E-04 0.823E-04 0.106E-03 0.119E-03 0.170E-03 0.233E-03 0.237E-03


 Contracted 2-electron integrals neglected if value below      1.0D-16
 AO integral compression algorithm  1   Integral accuracy      1.0D-16

     9700.639 MB (compressed) written to integral file ( 80.5%)

     Node minimum: 9700.639 MB, node maximum: 9700.639 MB


 NUMBER OF SORTED TWO-ELECTRON INTEGRALS: 1352182006.     BUFFER LENGTH:  32768
 NUMBER OF SEGMENTS:  43  SEGMENT LENGTH:   31998710      RECORD LENGTH: 524288

 Memory used in sort:      32.56 MW

 SORT1 READ  1506454996. AND WROTE  1291626871. INTEGRALS IN   3717 RECORDS. CPU TIME:    15.44 SEC, REAL TIME:    60.20 SEC
 SORT2 READ  1291626871. AND WROTE  1352182006. INTEGRALS IN  37005 RECORDS. CPU TIME:     8.23 SEC, REAL TIME:    56.25 SEC

 FILE SIZES:   FILE 1:  8811.5 MBYTE,  FILE 4: 15590.3 MBYTE,   TOTAL:  24401.8 MBYTE

 OPERATOR DM      FOR CENTER  0  COORDINATES:    0.000000    0.000000    0.000000


 **********************************************************************************************************************************
 DATASETS  * FILE   NREC   LENGTH (MB)   RECORD NAMES
              1      19     8812.77       500      610      700      900      950      970     1000      129      960     1100   
                                          VAR    BASINP    GEOM    SYMINP    ZMAT    AOBASIS   BASIS     P2S    ABASIS      S 
                                         1400     1410     1200     1210     1080     1600     1650     1300     1700   
                                           T        V       H0       H01     AOSYM     SMH    MOLCAS    ERIS     OPER   

 PROGRAMS   *        TOTAL       INT
 CPU TIMES  *        56.02     55.98
 REAL TIME  *       154.38 SEC
 DISK USED  *        34.10 GB      
 GA USED    *         0.00 MB       (max)       0.00 MB       (current)
 **********************************************************************************************************************************

1PROGRAM * RHF-SCF (CLOSED SHELL)       Authors: W. Meyer, H.-J. Werner


 NUMBER OF ELECTRONS:      17+   17-    SPACE SYMMETRY=1    SPIN SYMMETRY: Singlet 
 CONVERGENCE THRESHOLDS:    1.00E-10 (Density)    1.00E-13 (Energy)
 MAX. NUMBER OF ITERATIONS:      200
 INTERPOLATION TYPE:            DIIS
 INTERPOLATION STEPS:              2 (START)      1 (STEP)
 LEVEL SHIFTS:                  0.00 (CLOSED)  0.00 (OPEN) 



 Orbital guess generated from atomic densities. Full valence occupancy:   26

 Molecular orbital dump at record        2100.2

 ITERATION    DDIFF          GRAD             ENERGY        2-EL.EN.            DIPOLE MOMENTS         DIIS
    1      0.000D+00      0.000D+00      -225.01724545    393.280065    0.07179   -0.59730   -0.00239    0
    2      0.000D+00      0.279D-02      -225.07768825    392.726257   -0.58019   -0.37998   -0.00003    1
    3      0.489D-02      0.202D-02      -225.11343225    393.327898   -0.23423   -0.55915   -0.00144    2
    4      0.205D-02      0.390D-03      -225.11569649    393.184509   -0.31036   -0.46196   -0.00124    3
    5      0.554D-03      0.159D-03      -225.11614041    393.194390   -0.30728   -0.49090   -0.00129    4
    6      0.234D-03      0.390D-04      -225.11618877    393.219915   -0.31320   -0.48743   -0.00129    5
    7      0.835D-04      0.149D-04      -225.11619575    393.204189   -0.31507   -0.48753   -0.00129    6
    8      0.343D-04      0.604D-05      -225.11619687    393.210950   -0.31614   -0.48743   -0.00129    7
    9      0.133D-04      0.266D-05      -225.11619713    393.209469   -0.31645   -0.48712   -0.00129    8
   10      0.729D-05      0.824D-06      -225.11619716    393.209174   -0.31657   -0.48691   -0.00129    8
   11      0.240D-05      0.275D-06      -225.11619716    393.209293   -0.31659   -0.48682   -0.00129    8
   12      0.765D-06      0.886D-07      -225.11619716    393.209243   -0.31659   -0.48679   -0.00129    8
   13      0.300D-06      0.301D-07      -225.11619716    393.209237   -0.31659   -0.48678   -0.00129    8
   14      0.738D-07      0.146D-07      -225.11619716    393.209239   -0.31659   -0.48678   -0.00129    9
   15      0.323D-07      0.187D-08      -225.11619716    393.209239   -0.31659   -0.48678   -0.00129    8
   16      0.478D-08      0.991D-09      -225.11619716    393.209239   -0.31659   -0.48678   -0.00129    7
   17      0.298D-08      0.713D-09      -225.11619716    393.209240   -0.31659   -0.48678   -0.00129    7
   18      0.325D-08      0.475D-09      -225.11619716    393.209240   -0.31659   -0.48678   -0.00129    8
   19      0.418D-08      0.166D-09      -225.11619716    393.209239   -0.31659   -0.48678   -0.00129    9
   20      0.150D-08      0.368D-10      -225.11619716    393.209240   -0.31659   -0.48678   -0.00129    9
   21      0.203D-09      0.118D-10      -225.11619716    393.209239   -0.31659   -0.48678   -0.00129    9
   22      0.390D-10      0.436D-11      -225.11619716    393.209239   -0.31659   -0.48678   -0.00129    9
   23      0.149D-10      0.149D-11      -225.11619716    393.209239   -0.31659   -0.48678   -0.00129    9
   24      0.167D-10      0.563D-12      -225.11619716    393.209239   -0.31659   -0.48678   -0.00129    9
   25      0.709D-11      0.268D-12      -225.11619716    393.209239   -0.31659   -0.48678   -0.00129    9
   26      0.949D-11      0.306D-12      -225.11619716    393.209239   -0.31659   -0.48678   -0.00129    0

 Final occupancy:  17

 !RHF STATE 1.1 Energy               -225.116197161761
 Nuclear energy                       117.28614486
 One-electron energy                 -539.00696177
 Two-electron energy                  196.60461975
 Virial quotient                       -1.00207057
 !RHF STATE 1.1 Dipole moment          -0.31658949    -0.48677843    -0.00128503
 Dipole moment /Debye                  -0.80463751    -1.23718633    -0.00326600

 Orbital energies:

         1.1          2.1          3.1          4.1          5.1          6.1          7.1          8.1          9.1         10.1
    -20.631243   -15.706506   -15.538980   -11.264309    -1.509329    -1.138868    -1.072119    -0.861222    -0.690822    -0.674568

        11.1         12.1         13.1         14.1         15.1         16.1         17.1         18.1         19.1
     -0.635258    -0.624366    -0.623888    -0.556845    -0.535012    -0.429284    -0.406243     0.028803     0.038557


 **********************************************************************************************************************************
 DATASETS  * FILE   NREC   LENGTH (MB)   RECORD NAMES
              1      19     8812.77       500      610      700      900      950      970     1000      129      960     1100   
                                          VAR    BASINP    GEOM    SYMINP    ZMAT    AOBASIS   BASIS     P2S    ABASIS      S 
                                         1400     1410     1200     1210     1080     1600     1650     1300     1700   
                                           T        V       H0       H01     AOSYM     SMH    MOLCAS    ERIS     OPER   

              2       3        2.54       700     1000     2100   
                                         GEOM     BASIS     RHF  

 PROGRAMS   *        TOTAL       RHF       INT
 CPU TIMES  *       299.28    243.26     55.98
 REAL TIME  *       417.73 SEC
 DISK USED  *        34.10 GB      
 GA USED    *         0.00 MB       (max)       0.00 MB       (current)
 **********************************************************************************************************************************


1PROGRAM * MP2 (Closed-shell)     Authors: C. Hampel, H.-J. Werner, 1991, M. Deegan, P.J. Knowles, 1992


 Convergence thresholds:  THRVAR = 1.00D-08  THRDEN = 1.00D-12

 Number of core orbitals:           4 (   4 )
 Number of closed-shell orbitals:  13 (  13 )
 Number of external orbitals:     305 ( 305 )

 Molecular orbitals read from record     2100.2  Type=RHF/CANONICAL (state 1.1)

 Number of N-1 electron functions:              13
 Number of N-2 electron functions:              91
 Number of singly external CSFs:              3965
 Number of doubly external CSFs:           7862595
 Total number of CSFs:                     7866561

 Length of J-op  integral file:               0.00 MB
 Length of K-op  integral file:               7.17 MB

 Integral transformation finished. Total CPU:  18.59 sec, npass=  1  Memory used:  17.90 MW

 Memory needed for MP2:                      0.51 MW

 SCS-MP2 correlation energy:           -0.859240426953   (PS=  1.200000  PT=  0.333333)
 SCS-MP2 total energy:               -225.975437588714


  Reference energy                   -225.116197161760
  MP2 singlet pair energy              -0.557254892616
  MP2 triplet pair energy              -0.306216250417
  MP2 correlation energy               -0.863471143032

 !MP2 total energy                   -225.979668304793


 **********************************************************************************************************************************
 DATASETS  * FILE   NREC   LENGTH (MB)   RECORD NAMES
              1      20     8928.01       500      610      700      900      950      970     1000      129      960     1100   
                                          VAR    BASINP    GEOM    SYMINP    ZMAT    AOBASIS   BASIS     P2S    ABASIS      S 
                                         1400     1410     1200     1210     1080     1600     1650     1300     1700     1380   
                                           T        V       H0       H01     AOSYM     SMH    MOLCAS    ERIS     OPER     JKOP   

              2       3        2.54       700     1000     2100   
                                         GEOM     BASIS     RHF  

 PROGRAMS   *        TOTAL       MP2       RHF       INT
 CPU TIMES  *       318.51     19.23    243.26     55.98
 REAL TIME  *       437.94 SEC
 DISK USED  *        34.10 GB      
 GA USED    *         0.00 MB       (max)       0.00 MB       (current)
 **********************************************************************************************************************************

        MP2             RHF-SCF 
   -225.97966830   -225.11619716
 **********************************************************************************************************************************
 Variable memory released
