
 Primary working directories    : /tmp/878919.924.gen6.q
 Secondary working directories  : /tmp/878919.924.gen6.q
 Wavefunction directory         : /home/vulcan/lo21740/wfu/
 Main file repository           : /tmp/878919.924.gen6.q/

 ARCHNAME  : Linux/x86_64
 FC        : /opt/intel/compilers_and_libraries_2016.1.150/linux/bin/intel64/ifort
 FCVERSION : 16.0.1
 BLASLIB   : -mkl
 id        : ccgc

 Nodes     nprocs
 n091         1
 ga_uses_ma=false, calling ma_init with nominal heap.
 GA-space will be limited to   8.0 MW (determined by -G option)

 Using customized tuning parameters: mindgm=10; mindgv=16; mindgc=4; mindgr=1; noblas=0; mincuda=1000; minvec=7
 default implementation of scratch files=df  

 ***,Optimization of formamide
 memory,1000,m
 gthresh,energy=1.0d-12,orbital=1.0d-10,oneint=1.0d-16,twoint=1.0d-16,optgrad=1.0d-6,compress=1.0d-13
 geomtyp=xyz
 
 bohr
 geometry = {
  C   -3.8319687486    0.0816990316   -0.0000000000
  O   -2.7290636818    2.1337811476    0.0000000000
  N   -2.6904861273   -2.1854629375    0.0000000000
  H   -3.7510575760   -3.7626549861    0.0000000000
  H   -0.7560667218   -2.3086509791   -0.0000000000
  H   -5.9110890950   -0.0191023999   -0.0000000000
  C    3.8319687486   -0.0816990316   -0.0000000000
  O    2.7290636818   -2.1337811476   -0.0000000000
  N    2.6904861273    2.1854629375   -0.0000000000
  H    3.7510575760    3.7626549861    0.0000000000
  H    0.7560667218    2.3086509791    0.0000000000
  H    5.9110890950    0.0191023999   -0.0000000000
 }
 
 basis=VDZ
 {rhf;maxit,200}
 {ccsd(t);maxit,200}

 Variables initialized (661), CPU time= 0.00 sec
 Commands  initialized (458), CPU time= 0.00 sec, 486 directives.
 Default parameters read. Elapsed time= 0.05 sec

 Checking input...
 Passed
1


                                         ***  PROGRAM SYSTEM MOLPRO  ***
                         Copyright, University College Cardiff Consultants Limited, 2008

                                    Version 2010.1 linked May 16 2016 07:17:05


 **********************************************************************************************************************************
 LABEL *   Optimization of formamide                                                     
 Linux-4.4.3/n091(x86_64) 64 bit mpp version                                             DATE: 22-May-23          TIME: 22:04:38  
 **********************************************************************************************************************************

 SHA1:             9e8077add272b0f3cad6f7df79ec5211205f459d
 **********************************************************************************************************************************

 THRESHOLDS:

 ZERO    =  1.00D-12  ONEINT  =  1.00D-16  TWOINT  =  1.00D-16  PREFAC  =  1.00D-14  LOCALI  =  1.00D-09  EORDER  =  1.00D-04
 ENERGY  =  1.00D-12  ETEST   =  0.00D+00  EDENS   =  0.00D+00  THRDEDEF=  1.00D-06  GRADIENT=  1.00D-02  STEP    =  1.00D-03
 ORBITAL =  1.00D-10  CIVEC   =  1.00D-05  COEFF   =  1.00D-04  PRINTCI =  5.00D-02  PUNCHCI =  9.90D+01  OPTGRAD =  1.00D-06
 OPTENERG=  1.00D-06  OPTSTEP =  3.00D-04  THRGRAD =  1.00D-10  COMPRESS=  1.00D-13  VARMIN  =  1.00D-07  VARMAX  =  1.00D-03
 THRDOUB =  0.00D+00  THRDIV  =  1.00D-05  THRRED  =  1.00D-07  THRPSP  =  1.00D+00  THRDC   =  1.00D-10  THRCS   =  1.00D-10
 THRNRM  =  1.00D-08  THREQ   =  0.00D+00  THRDE   =  1.00D+00  THRREF  =  1.00D-05  SPARFAC =  1.00D+00  THRDLP  =  1.00D-07
 THRDIA  =  1.00D-10  THRDLS  =  1.00D-07  THRGPS  =  0.00D+00  THRKEX  =  0.00D+00  THRDIS  =  2.00D-01  THRVAR  =  1.00D-10
 THRLOC  =  1.00D-06  THRGAP  =  1.00D-06  THRLOCT = -1.00D+00  THRGAPT = -1.00D+00  THRORB  =  1.00D-06  THRMLTP =  0.00D+00
 THRCPQCI=  1.00D-10  KEXTA   =  0.00D+00  THRCOARS=  0.00D+00  SYMTOL  =  1.00D-06  GRADTOL =  1.00D-06  THROVL  =  1.00D-08
 THRORTH =  1.00D-08  GRID    =  1.00D-06  GRIDMAX =  1.00D-03  DTMAX   =  0.00D+00

 SETTING GEOMTYP        =    XYZ
 ZUNIT=BOHR
 

 Variable memory set to 1000000000 words,  buffer space   230000 words

 SETTING BASIS          =    VDZ


 Recomputing integrals since basis changed


 Using spherical harmonics

 Library entry C      S cc-pVDZ              selected for orbital group  1
 Library entry C      P cc-pVDZ              selected for orbital group  1
 Library entry C      D cc-pVDZ              selected for orbital group  1
 Library entry O      S cc-pVDZ              selected for orbital group  2
 Library entry O      P cc-pVDZ              selected for orbital group  2
 Library entry O      D cc-pVDZ              selected for orbital group  2
 Library entry N      S cc-pVDZ              selected for orbital group  3
 Library entry N      P cc-pVDZ              selected for orbital group  3
 Library entry N      D cc-pVDZ              selected for orbital group  3
 Library entry H      S cc-pVDZ              selected for orbital group  4
 Library entry H      P cc-pVDZ              selected for orbital group  4

1PROGRAM * SEWARD (Integral evaluation for generally contracted gaussian basis sets)     Author: Roland Lindh, 1990

 Geometry written to block  1 of record 700


 Point group  C2h 



 ATOMIC COORDINATES

 NR  ATOM    CHARGE       X              Y              Z

   1  C       6.00   -3.831968749    0.081699032    0.000000000
   2  C       6.00    3.831968749   -0.081699032    0.000000000
   3  O       8.00   -2.729063682    2.133781148    0.000000000
   4  O       8.00    2.729063682   -2.133781148    0.000000000
   5  N       7.00   -2.690486127   -2.185462938    0.000000000
   6  N       7.00    2.690486127    2.185462938    0.000000000
   7  H       1.00   -3.751057576   -3.762654986    0.000000000
   8  H       1.00    3.751057576    3.762654986    0.000000000
   9  H       1.00   -0.756066722   -2.308650979    0.000000000
  10  H       1.00    0.756066722    2.308650979    0.000000000
  11  H       1.00   -5.911089095   -0.019102400    0.000000000
  12  H       1.00    5.911089095    0.019102400    0.000000000

 Bond lengths in Bohr (Angstrom)

  1- 3  2.329686802   1- 5  2.538307698   1-11  2.081562476   2- 4  2.329686802   2- 6  2.538307698
       ( 1.232817160)       ( 1.343214583)       ( 1.101515422)       ( 1.232817160)       ( 1.343214583)

  2-12  2.081562476   5- 7  1.900617414   5- 9  1.938337878   6- 8  1.900617414   6-10  1.938337878
       ( 1.101515422)       ( 1.005763419)       ( 1.025724228)       ( 1.005763419)       ( 1.025724228)

 Bond angles

  1- 5- 7  119.35684403   1- 5- 9  120.36838032   2- 6- 8  119.35684403   2- 6-10  120.36838032

  3- 1- 5  125.01931923   3- 1-11  121.03178248   4- 2- 6  125.01931923   4- 2-12  121.03178248

  5- 1-11  113.94889828   6- 2-12  113.94889828   7- 5- 9  120.27477565   8- 6-10  120.27477565

 NUCLEAR CHARGE:                   48
 NUMBER OF PRIMITIVE AOS:         204
 NUMBER OF SYMMETRY AOS:          198
 NUMBER OF CONTRACTIONS:          114   (  42Ag  +  15Au  +  42Bu  +  15Bg  )
 NUMBER OF CORE ORBITALS:           6   (   3Ag  +   0Au  +   3Bu  +   0Bg  )
 NUMBER OF VALENCE ORBITALS:       30   (  12Ag  +   3Au  +  12Bu  +   3Bg  )


 NUCLEAR REPULSION ENERGY  230.28262597


 Eigenvalues of metric

         1 0.556E-02 0.108E-01 0.153E-01 0.239E-01 0.306E-01 0.407E-01 0.420E-01 0.488E-01
         2 0.106E+00 0.169E+00 0.196E+00 0.401E+00 0.436E+00 0.496E+00 0.533E+00 0.603E+00
         3 0.571E-02 0.113E-01 0.154E-01 0.243E-01 0.281E-01 0.401E-01 0.413E-01 0.435E-01
         4 0.105E+00 0.173E+00 0.192E+00 0.409E+00 0.437E+00 0.501E+00 0.526E+00 0.591E+00


 Contracted 2-electron integrals neglected if value below      1.0D-16
 AO integral compression algorithm  1   Integral accuracy      1.0D-16

     56.361 MB (compressed) written to integral file (100.0%)

     Node minimum: 56.361 MB, node maximum: 56.361 MB


 NUMBER OF SORTED TWO-ELECTRON INTEGRALS:    5811279.     BUFFER LENGTH:  32768
 NUMBER OF SEGMENTS:   1  SEGMENT LENGTH:    5811279      RECORD LENGTH: 524288

 Memory used in sort:       6.37 MW

 SORT1 READ     6960680. AND WROTE     5811279. INTEGRALS IN     17 RECORDS. CPU TIME:     0.10 SEC, REAL TIME:     0.14 SEC
 SORT2 READ     5811279. AND WROTE     5811279. INTEGRALS IN    215 RECORDS. CPU TIME:     0.09 SEC, REAL TIME:     0.12 SEC

 FILE SIZES:   FILE 1:    50.0 MBYTE,  FILE 4:    71.3 MBYTE,   TOTAL:    121.3 MBYTE

 OPERATOR DM      FOR CENTER  0  COORDINATES:    0.000000    0.000000    0.000000


 **********************************************************************************************************************************
 DATASETS  * FILE   NREC   LENGTH (MB)   RECORD NAMES
              1      19       50.04       500      610      700      900      950      970     1000      129      960     1100   
                                          VAR    BASINP    GEOM    SYMINP    ZMAT    AOBASIS   BASIS     P2S    ABASIS      S 
                                         1400     1410     1200     1210     1080     1600     1650     1300     1700   
                                           T        V       H0       H01     AOSYM     SMH    MOLCAS    ERIS     OPER   

 PROGRAMS   *        TOTAL       INT
 CPU TIMES  *         1.33      1.30
 REAL TIME  *         1.62 SEC
 DISK USED  *       178.55 MB      
 GA USED    *         0.00 MB       (max)       0.00 MB       (current)
 **********************************************************************************************************************************

1PROGRAM * RHF-SCF (CLOSED SHELL)       Authors: W. Meyer, H.-J. Werner


 NUMBER OF ELECTRONS:      24+   24-
 CONVERGENCE THRESHOLDS:    1.00E-10 (Density)    1.00E-13 (Energy)
 MAX. NUMBER OF ITERATIONS:      200
 INTERPOLATION TYPE:            DIIS
 INTERPOLATION STEPS:              2 (START)      1 (STEP)
 LEVEL SHIFTS:                  0.00 (CLOSED)  0.00 (OPEN) 



 Orbital guess generated from atomic densities. Full valence occupancy:   15   3  15   3

 Molecular orbital dump at record        2100.2

 Initial alpha occupancy:  10   2  10   2
 Initial beta  occupancy:  10   2  10   2
 Wave function symmetry:    1

 ITERATION    DDIFF          GRAD             ENERGY        2-EL.EN.            DIPOLE MOMENTS         DIIS
    1      0.000D+00      0.000D+00      -337.77841329    705.009505    0.00000    0.00000    0.00000    0
    2      0.000D+00      0.171D-01      -337.85695791    699.793826    0.00000    0.00000    0.00000    1
    3      0.341D-01      0.122D-01      -337.91314706    702.281367    0.00000    0.00000    0.00000    2
    4      0.131D-01      0.160D-02      -337.91525494    702.266867    0.00000    0.00000    0.00000    3
    5      0.288D-02      0.563D-03      -337.91552302    702.195260    0.00000    0.00000    0.00000    4
    6      0.104D-02      0.188D-03      -337.91559111    702.214392    0.00000    0.00000    0.00000    5
    7      0.481D-03      0.840D-04      -337.91560250    702.209814    0.00000    0.00000    0.00000    6
    8      0.243D-03      0.221D-04      -337.91560321    702.210339    0.00000    0.00000    0.00000    7
    9      0.625D-04      0.568D-05      -337.91560327    702.209912    0.00000    0.00000    0.00000    7
   10      0.176D-04      0.126D-05      -337.91560327    702.210169    0.00000    0.00000    0.00000    7
   11      0.348D-05      0.330D-06      -337.91560327    702.210077    0.00000    0.00000    0.00000    7
   12      0.871D-06      0.113D-06      -337.91560327    702.210082    0.00000    0.00000    0.00000    7
   13      0.247D-06      0.378D-07      -337.91560327    702.210088    0.00000    0.00000    0.00000    7
   14      0.955D-07      0.858D-08      -337.91560327    702.210087    0.00000    0.00000    0.00000    7
   15      0.205D-07      0.188D-08      -337.91560327    702.210087    0.00000    0.00000    0.00000    7
   16      0.432D-08      0.458D-09      -337.91560327    702.210087    0.00000    0.00000    0.00000    7
   17      0.900D-09      0.168D-09      -337.91560327    702.210087    0.00000    0.00000    0.00000    7
   18      0.396D-09      0.375D-10      -337.91560327    702.210087    0.00000    0.00000    0.00000    7
   19      0.976D-10      0.948D-11      -337.91560327    702.210087    0.00000    0.00000    0.00000    0

 Final occupancy:  10   2  10   2

 !RHF STATE 1.1 Energy               -337.915603268254
 Nuclear energy                       230.28262597
 One-electron energy                 -919.30327267
 Two-electron energy                  351.10504344
 Virial quotient                       -1.00152767
 !RHF STATE 1.1 Dipole moment           0.00000000     0.00000000     0.00000000
 Dipole moment /Debye                   0.00000000     0.00000000     0.00000000

 Orbital energies:

         1.1          2.1          3.1          4.1          5.1          6.1          7.1          8.1          9.1         10.1
    -20.525120   -15.577737   -11.359467    -1.376897    -1.201733    -0.851225    -0.739895    -0.633544    -0.609482    -0.443194

        11.1         12.1
      0.186097     0.231311

         1.2          2.2          3.2          4.2
     -0.564441    -0.400783     0.194096     0.673988

         1.3          2.3          3.3          4.3          5.3          6.3          7.3          8.3          9.3         10.3
    -20.525120   -15.577735   -11.359467    -1.372147    -1.207923    -0.826330    -0.731205    -0.694599    -0.582831    -0.418398

        11.3         12.3
      0.187866     0.241449

         1.4          2.4          3.4          4.4
     -0.557031    -0.410290     0.200934     0.689747


 **********************************************************************************************************************************
 DATASETS  * FILE   NREC   LENGTH (MB)   RECORD NAMES
              1      19       50.04       500      610      700      900      950      970     1000      129      960     1100   
                                          VAR    BASINP    GEOM    SYMINP    ZMAT    AOBASIS   BASIS     P2S    ABASIS      S 
                                         1400     1410     1200     1210     1080     1600     1650     1300     1700   
                                           T        V       H0       H01     AOSYM     SMH    MOLCAS    ERIS     OPER   

              2       3        0.54       700     1000     2100   
                                         GEOM     BASIS     RHF  

 PROGRAMS   *        TOTAL       RHF       INT
 CPU TIMES  *         1.65      0.32      1.30
 REAL TIME  *         2.03 SEC
 DISK USED  *       178.55 MB      
 GA USED    *         0.00 MB       (max)       0.00 MB       (current)
 **********************************************************************************************************************************


1PROGRAM * CCSD (Closed-shell coupled cluster)     Authors: C. Hampel, H.-J. Werner, 1991, M. Deegan, P.J. Knowles, 1992


 Convergence thresholds:  THRVAR = 1.00D-08  THRDEN = 1.00D-12

 CCSD(T)     terms to be evaluated (factor= 1.000)


 Number of core orbitals:           6 (   3   0   3   0 )
 Number of closed-shell orbitals:  18 (   7   2   7   2 )
 Number of external orbitals:      90 (  32  13  32  13 )

 Molecular orbitals read from record     2100.2  Type=RHF/CANONICAL (state 1.1)

 Number of N-1 electron functions:              18
 Number of N-2 electron functions:             171
 Number of singly external CSFs:               500
 Number of doubly external CSFs:            346910
 Total number of CSFs:                      347411

 Length of J-op  integral file:               0.00 MB
 Length of K-op  integral file:               0.31 MB
 Length of 3-ext integral record:             0.00 MB

 Memory could be reduced to 5.11 Mwords without degradation in triples

 Integral transformation finished. Total CPU:   0.14 sec, npass=  1  Memory used:   2.18 MW

 Reference energy:                   -337.91560327

 MP2 singlet pair energy:              -0.58991507
 MP2 triplet pair energy:              -0.38327283
 MP2 correlation energy:               -0.97318790
 MP2 total energy:                   -338.88879117

 SCS-MP2 correlation energy:           -0.94637896   (PS=  1.200000  PT=  0.333333)
 SCS-MP2 total energy:               -338.86198223

 ITER.      SQ.NORM     CORR.ENERGY   TOTAL ENERGY   ENERGY CHANGE        DEN1      VAR(S)    VAR(P)  DIIS     TIME
   1      1.29804652    -1.00511680  -338.92072007    -0.03192890    -0.00217636  0.97D-02  0.55D-02  1  1     0.50
   2      1.32303005    -1.00775179  -338.92335506    -0.00263499    -0.02520678  0.23D-03  0.11D-02  2  2     0.87
   3      1.33577995    -1.00873678  -338.92434005    -0.00098499    -0.00563594  0.22D-03  0.47D-04  3  3     1.26
   4      1.34119112    -1.00850601  -338.92410927     0.00023078    -0.00170757  0.20D-04  0.82D-05  4  4     1.63
   5      1.34333023    -1.00844153  -338.92404480     0.00006447    -0.00043996  0.19D-05  0.11D-05  5  5     2.01
   6      1.34380470    -1.00841035  -338.92401362     0.00003118    -0.00004199  0.15D-06  0.13D-06  6  6     2.38
   7      1.34391140    -1.00840048  -338.92400375     0.00000987    -0.00000535  0.14D-07  0.15D-07  6  2     2.75
   8      1.34392945    -1.00840056  -338.92400383    -0.00000008     0.00000004  0.18D-08  0.17D-08  6  1     3.13
   9      1.34393091    -1.00840023  -338.92400350     0.00000033     0.00000151  0.26D-09  0.22D-09  6  4     3.51
  10      1.34393387    -1.00840019  -338.92400346     0.00000004    -0.00000039  0.71D-10  0.18D-10  6  3     3.88
  11      1.34393374    -1.00840026  -338.92400353    -0.00000007     0.00000017  0.13D-10  0.43D-11  6  5     4.26
  12      1.34393352    -1.00840028  -338.92400354    -0.00000002     0.00000008  0.26D-11  0.11D-11  6  6     4.64
  13      1.34393329    -1.00840031  -338.92400357    -0.00000003     0.00000009  0.38D-12  0.14D-12  6  2     5.02
  14      1.34393320    -1.00840031  -338.92400358    -0.00000001     0.00000002  0.51D-13  0.26D-13  6  1     5.39
  15      1.34393319    -1.00840031  -338.92400358    -0.00000000    -0.00000000  0.98D-14  0.53D-14  6  4     5.77
  16      1.34393318    -1.00840031  -338.92400358    -0.00000000    -0.00000000  0.22D-14  0.95D-15  6  3     6.15
  17      1.34393318    -1.00840031  -338.92400358    -0.00000000    -0.00000000  0.69D-15  0.13D-15  6  5     6.53
  18      1.34393318    -1.00840031  -338.92400358    -0.00000000    -0.00000000  0.65D-16  0.45D-16  6  6     6.90
  19      1.34393318    -1.00840031  -338.92400358    -0.00000000     0.00000000  0.15D-16  0.67D-17  6  2     7.28
  20      1.34393318    -1.00840031  -338.92400358    -0.00000000     0.00000000  0.23D-17  0.11D-17  6  1     7.66
  21      1.34393318    -1.00840031  -338.92400358    -0.00000000     0.00000000  0.30D-18  0.22D-18  6  4     8.03
  22      1.34393318    -1.00840031  -338.92400358     0.00000000     0.00000000  0.73D-19  0.41D-19  6  3     8.40
  23      1.34393318    -1.00840031  -338.92400358    -0.00000000     0.00000000  0.17D-19  0.54D-20  6  5     8.77
  24      1.34393318    -1.00840031  -338.92400358     0.00000000    -0.00000000  0.27D-20  0.14D-20  6  6     9.15
  25      1.34393318    -1.00840031  -338.92400358     0.00000000    -0.00000000  0.52D-21  0.25D-21  6  4     9.52

 Norm of t1 vector:      0.14962646      S-energy:     0.00000000      T1 diagnostic:  0.01763365
                                                                       D1 diagnostic:  0.06255659

 Singles amplitudes (print threshold =  0.500E-01):

         I         SYM. A    A   T(IA)

         8         2         1      0.05800329
        17         4         1      0.05894455


 Total CPU time for triples:      5.88 sec


 RESULTS
 =======

  Reference energy                   -337.915603268254
  CCSD singlet pair energy             -0.668260261067
  CCSD triplet pair energy             -0.340140051656
  CCSD correlation energy              -1.008400312714

  Triples (T) contribution             -0.032315950378
  Total correlation energy             -1.040716263092

  CCSD total energy                  -338.924003580968
  CCSD[T] energy                     -338.959338053699
  CCSD-T energy                      -338.955335651011
 !CCSD(T) total energy               -338.956319531346

 Timing summary (sec):

 STEP                 CPU(USER)    SYS     CPU(TOT)    WALL
 Transformation          0.15      0.04      0.19      0.19
 CCSD iterations         9.37      0.51      9.88      9.93
 Triples                 5.88      0.17      6.05      6.05

 Program statistics:

 Available memory in ccsd:               999998604
 Min. memory needed in ccsd:                956954
 Max. memory used in ccsd:                 1266776
 Max. memory used in cckext:               1354904 (25 integral passes)



 **********************************************************************************************************************************
 DATASETS  * FILE   NREC   LENGTH (MB)   RECORD NAMES
              1      20       71.47       500      610      700      900      950      970     1000      129      960     1100   
                                          VAR    BASINP    GEOM    SYMINP    ZMAT    AOBASIS   BASIS     P2S    ABASIS      S 
                                         1400     1410     1200     1210     1080     1600     1650     1300     1700     1380   
                                           T        V       H0       H01     AOSYM     SMH    MOLCAS    ERIS     OPER     JKOP   

              2       3        0.54       700     1000     2100   
                                         GEOM     BASIS     RHF  

 PROGRAMS   *        TOTAL   CCSD(T)       RHF       INT
 CPU TIMES  *        17.07     15.41      0.32      1.30
 REAL TIME  *        18.24 SEC
 DISK USED  *       190.20 MB      
 GA USED    *         0.00 MB       (max)       0.00 MB       (current)
 **********************************************************************************************************************************

        CCSD(T)         RHF-SCF 
   -338.95631953   -337.91560327
 **********************************************************************************************************************************
 Variable memory released
