
 Primary working directories    : /tmp/1011018.382.gen4.q
 Secondary working directories  : /tmp/1011018.382.gen4.q
 Wavefunction directory         : /home/vulcan/mel64643/wfu/
 Main file repository           : /tmp/1011018.382.gen4.q/

 ARCHNAME  : Linux/x86_64
 FC        : /opt/intel/compilers_and_libraries_2016.1.150/linux/bin/intel64/ifort
 FCVERSION : 16.0.1
 BLASLIB   : -mkl
 id        : ccgc

 Nodes     nprocs
 n021         1
 ga_uses_ma=false, calling ma_init with nominal heap.
 GA-space will be limited to   8.0 MW (determined by -G option)

 Using customized tuning parameters: mindgm=10; mindgv=16; mindgc=4; mindgr=1; noblas=0; mincuda=1000; minvec=7
 default implementation of scratch files=df  

 ***,Optimization of ethene_ethyne
 memory,1000,m
 gthresh,energy=1.0d-12,orbital=1.0d-10,oneint=1.0d-16,twoint=1.0d-16,optgrad=1.0d-6,compress=1.0d-13
 geomtyp=xyz
 
 
 
 bohr
 geometry = {
  C    0.0015299336   -1.2648809110   -3.9718127815
  C    0.0015299336    1.2648809110   -3.9718127815
  H    1.7524746538   -2.3282721589   -3.9659351849
  H   -1.7494004913   -2.3282721589   -3.9810109281
  H   -1.7494004913    2.3282721589   -3.9810109281
  H    1.7524746538    2.3282721589   -3.9659351849
  C    0.0042201602   -0.0000000000    5.4003415290
  C   -0.0088123354   -0.0000000000    3.1119862636
  H   -0.0202900047   -0.0000000000    1.0966404748
  H    0.0156739877   -0.0000000000    7.4115009727
  X    2.0000000000    0.0000000000    5.4004221540
  X    0.0000000000    2.0000000000    5.4004221540
  X    2.0000000000    0.0000000000    3.1120297780
  X    0.0000000000    2.0000000000    3.1120297780
 }
 
 basis=aug-cc-pvdz, H=cc-pvdz
 {rhf;maxit,200}
 {mp2}

 Variables initialized (661), CPU time= 0.00 sec
 Commands  initialized (458), CPU time= 0.01 sec, 486 directives.
 Default parameters read. Elapsed time= 0.05 sec

 Checking input...
 Passed
1


                                         ***  PROGRAM SYSTEM MOLPRO  ***
                         Copyright, University College Cardiff Consultants Limited, 2008

                                    Version 2010.1 linked May 16 2016 07:17:05


 **********************************************************************************************************************************
 LABEL *   Optimization of ethene_ethyne                                                 
 Linux-4.4.3/n021(x86_64) 64 bit mpp version                                             DATE: 25-Feb-24          TIME: 03:30:37  
 **********************************************************************************************************************************

 SHA1:             9e8077add272b0f3cad6f7df79ec5211205f459d
 **********************************************************************************************************************************

 THRESHOLDS:

 ZERO    =  1.00D-12  ONEINT  =  1.00D-16  TWOINT  =  1.00D-16  PREFAC  =  1.00D-14  LOCALI  =  1.00D-09  EORDER  =  1.00D-04
 ENERGY  =  1.00D-12  ETEST   =  0.00D+00  EDENS   =  0.00D+00  THRDEDEF=  1.00D-06  GRADIENT=  1.00D-02  STEP    =  1.00D-03
 ORBITAL =  1.00D-10  CIVEC   =  1.00D-05  COEFF   =  1.00D-04  PRINTCI =  5.00D-02  PUNCHCI =  9.90D+01  OPTGRAD =  1.00D-06
 OPTENERG=  1.00D-06  OPTSTEP =  3.00D-04  THRGRAD =  1.00D-10  COMPRESS=  1.00D-13  VARMIN  =  1.00D-07  VARMAX  =  1.00D-03
 THRDOUB =  0.00D+00  THRDIV  =  1.00D-05  THRRED  =  1.00D-07  THRPSP  =  1.00D+00  THRDC   =  1.00D-10  THRCS   =  1.00D-10
 THRNRM  =  1.00D-08  THREQ   =  0.00D+00  THRDE   =  1.00D+00  THRREF  =  1.00D-05  SPARFAC =  1.00D+00  THRDLP  =  1.00D-07
 THRDIA  =  1.00D-10  THRDLS  =  1.00D-07  THRGPS  =  0.00D+00  THRKEX  =  0.00D+00  THRDIS  =  2.00D-01  THRVAR  =  1.00D-10
 THRLOC  =  1.00D-06  THRGAP  =  1.00D-06  THRLOCT = -1.00D+00  THRGAPT = -1.00D+00  THRORB  =  1.00D-06  THRMLTP =  0.00D+00
 THRCPQCI=  1.00D-10  KEXTA   =  0.00D+00  THRCOARS=  0.00D+00  SYMTOL  =  1.00D-06  GRADTOL =  1.00D-06  THROVL  =  1.00D-08
 THRORTH =  1.00D-08  GRID    =  1.00D-06  GRIDMAX =  1.00D-03  DTMAX   =  0.00D+00

 SETTING GEOMTYP        =    XYZ
 ZUNIT=BOHR
 

 Variable memory set to 1000000000 words,  buffer space   230000 words

 SETTING BASIS          =    AUG-CC-PVDZ,H=CC-PVDZ


 Recomputing integrals since basis changed


 Using spherical harmonics

 Library entry C      S aug-cc-pVDZ          selected for orbital group  1
 Library entry C      P aug-cc-pVDZ          selected for orbital group  1
 Library entry C      D aug-cc-pVDZ          selected for orbital group  1
 Library entry H      S cc-pVDZ              selected for orbital group  2
 Library entry H      P cc-pVDZ              selected for orbital group  2

1PROGRAM * SEWARD (Integral evaluation for generally contracted gaussian basis sets)     Author: Roland Lindh, 1990

 Geometry written to block  1 of record 700


 Point group  Cs  



 ATOMIC COORDINATES

 NR  ATOM    CHARGE       X              Y              Z

   1  C       6.00    0.001529934   -1.264880911   -3.971812782
   2  C       6.00    0.001529934    1.264880911   -3.971812782
   3  H       1.00    1.752474654   -2.328272159   -3.965935185
   4  H       1.00    1.752474654    2.328272159   -3.965935185
   5  H       1.00   -1.749400491   -2.328272159   -3.981010928
   6  H       1.00   -1.749400491    2.328272159   -3.981010928
   7  C       6.00    0.004220160    0.000000000    5.400341529
   8  C       6.00   -0.008812335    0.000000000    3.111986264
   9  H       1.00   -0.020290005    0.000000000    1.096640475
  10  H       1.00    0.015673988    0.000000000    7.411500973

 Bond lengths in Bohr (Angstrom)

 1-2  2.529761822  1-3  2.048570942  1-5  2.048570942  2-4  2.048570942  2-6  2.048570942
     ( 1.338692300)     ( 1.084057054)     ( 1.084057054)     ( 1.084057054)     ( 1.084057054)

  7- 8  2.288392376   7-10  2.011192059   8- 9  2.015378472
       ( 1.210965091)       ( 1.064277001)       ( 1.066492355)

 Bond angles

  1-2-4  121.27118307   1-2-6  121.27118307   2-1-3  121.27118307   2-1-5  121.27118307

  3- 1- 5  117.45754903   4- 2- 6  117.45754903   7- 8- 9  179.99999809   8- 7-10  180.00000000

 NUCLEAR CHARGE:                   30
 NUMBER OF PRIMITIVE AOS:         190
 NUMBER OF SYMMETRY AOS:          182
 NUMBER OF CONTRACTIONS:          122   (  73A'  +  49A"  )
 NUMBER OF CORE ORBITALS:           4   (   3A'  +   1A"  )
 NUMBER OF VALENCE ORBITALS:       22   (  14A'  +   8A"  )


 NUCLEAR REPULSION ENERGY   85.50037862


 Eigenvalues of metric

         1 0.820E-04 0.227E-03 0.292E-02 0.482E-02 0.575E-02 0.665E-02 0.967E-02 0.102E-01
         2 0.172E-03 0.269E-03 0.498E-02 0.687E-02 0.843E-02 0.851E-02 0.112E-01 0.182E-01


 Contracted 2-electron integrals neglected if value below      1.0D-16
 AO integral compression algorithm  1   Integral accuracy      1.0D-16

     114.033 MB (compressed) written to integral file ( 81.1%)

     Node minimum: 114.033 MB, node maximum: 114.033 MB


 NUMBER OF SORTED TWO-ELECTRON INTEGRALS:   14326151.     BUFFER LENGTH:  32768
 NUMBER OF SEGMENTS:   1  SEGMENT LENGTH:   14326151      RECORD LENGTH: 524288

 Memory used in sort:      14.88 MW

 SORT1 READ    17578033. AND WROTE    13713841. INTEGRALS IN     40 RECORDS. CPU TIME:     0.18 SEC, REAL TIME:     0.27 SEC
 SORT2 READ    13713841. AND WROTE    14326151. INTEGRALS IN    435 RECORDS. CPU TIME:     0.20 SEC, REAL TIME:     0.26 SEC

 FILE SIZES:   FILE 1:    99.6 MBYTE,  FILE 4:   167.8 MBYTE,   TOTAL:    267.4 MBYTE

 OPERATOR DM      FOR CENTER  0  COORDINATES:    0.000000    0.000000    0.000000


 **********************************************************************************************************************************
 DATASETS  * FILE   NREC   LENGTH (MB)   RECORD NAMES
              1      19       99.68       500      610      700      900      950      970     1000      129      960     1100   
                                          VAR    BASINP    GEOM    SYMINP    ZMAT    AOBASIS   BASIS     P2S    ABASIS      S 
                                         1400     1410     1200     1210     1080     1600     1650     1300     1700   
                                           T        V       H0       H01     AOSYM     SMH    MOLCAS    ERIS     OPER   

 PROGRAMS   *        TOTAL       INT
 CPU TIMES  *         1.59      1.53
 REAL TIME  *         1.96 SEC
 DISK USED  *       382.35 MB      
 GA USED    *         0.00 MB       (max)       0.00 MB       (current)
 **********************************************************************************************************************************

1PROGRAM * RHF-SCF (CLOSED SHELL)       Authors: W. Meyer, H.-J. Werner


 NUMBER OF ELECTRONS:      15+   15-
 CONVERGENCE THRESHOLDS:    1.00E-10 (Density)    1.00E-13 (Energy)
 MAX. NUMBER OF ITERATIONS:      200
 INTERPOLATION TYPE:            DIIS
 INTERPOLATION STEPS:              2 (START)      1 (STEP)
 LEVEL SHIFTS:                  0.00 (CLOSED)  0.00 (OPEN) 



 Orbital guess generated from atomic densities. Full valence occupancy:   17   9

 Molecular orbital dump at record        2100.2

 Initial alpha occupancy:  11   4
 Initial beta  occupancy:  11   4
 Wave function symmetry:    1

 ITERATION    DDIFF          GRAD             ENERGY        2-EL.EN.            DIPOLE MOMENTS         DIIS
    1      0.000D+00      0.000D+00      -154.83514736    273.395729    0.00021    0.00000   -0.05891    0
    2      0.000D+00      0.479D-02      -154.86716991    271.045694    0.00047    0.00000   -0.14630    1
    3      0.118D-01      0.149D-02      -154.87010074    271.942781    0.00047    0.00000   -0.12236    2
    4      0.292D-02      0.430D-03      -154.87049063    271.731300    0.00043    0.00000   -0.14218    3
    5      0.123D-02      0.889D-04      -154.87050289    271.748157    0.00049    0.00000   -0.13494    4
    6      0.216D-03      0.401D-04      -154.87050496    271.748655    0.00046    0.00000   -0.13998    5
    7      0.687D-04      0.877D-05      -154.87050510    271.748084    0.00047    0.00000   -0.13970    6
    8      0.216D-04      0.202D-05      -154.87050511    271.747997    0.00047    0.00000   -0.13991    7
    9      0.546D-05      0.491D-06      -154.87050511    271.748034    0.00047    0.00000   -0.13995    7
   10      0.169D-05      0.702D-07      -154.87050511    271.748032    0.00047    0.00000   -0.13996    7
   11      0.297D-06      0.166D-07      -154.87050511    271.748035    0.00047    0.00000   -0.13996    6
   12      0.585D-07      0.716D-08      -154.87050511    271.748034    0.00047    0.00000   -0.13996    6
   13      0.211D-07      0.401D-08      -154.87050511    271.748035    0.00047    0.00000   -0.13996    6
   14      0.172D-07      0.172D-08      -154.87050511    271.748034    0.00047    0.00000   -0.13996    7
   15      0.770D-08      0.640D-09      -154.87050511    271.748034    0.00047    0.00000   -0.13996    8
   16      0.227D-08      0.142D-09      -154.87050511    271.748034    0.00047    0.00000   -0.13996    8
   17      0.381D-09      0.264D-10      -154.87050511    271.748034    0.00047    0.00000   -0.13996    8
   18      0.911D-10      0.763D-11      -154.87050511    271.748034    0.00047    0.00000   -0.13996    8
   19      0.249D-10      0.167D-11      -154.87050511    271.748034    0.00047    0.00000   -0.13996    8
   20      0.695D-11      0.528D-12      -154.87050511    271.748034    0.00047    0.00000   -0.13996    7
   21      0.519D-11      0.151D-12      -154.87050511    271.748034    0.00047    0.00000   -0.13996    7
   22      0.216D-11      0.654D-13      -154.87050511    271.748034    0.00047    0.00000   -0.13996    0

 Final occupancy:  11   4

 !RHF STATE 1.1 Energy               -154.870505111255
 Nuclear energy                        85.50037862
 One-electron energy                 -376.24490085
 Two-electron energy                  135.87401712
 Virial quotient                       -1.00220209
 !RHF STATE 1.1 Dipole moment           0.00046930     0.00000000    -0.13995870
 Dipole moment /Debye                   0.00119278     0.00000000    -0.35571622

 Orbital energies:

         1.1          2.1          3.1          4.1          5.1          6.1          7.1          8.1          9.1         10.1
    -11.250274   -11.248306   -11.244663    -1.044673    -1.024296    -0.760435    -0.671744    -0.652055    -0.594249    -0.402053

        11.1         12.1         13.1
     -0.386451     0.065104     0.080528

         1.2          2.2          3.2          4.2          5.2          6.2
    -11.248658    -0.802278    -0.516242    -0.402055     0.065158     0.093786


 **********************************************************************************************************************************
 DATASETS  * FILE   NREC   LENGTH (MB)   RECORD NAMES
              1      19       99.68       500      610      700      900      950      970     1000      129      960     1100   
                                          VAR    BASINP    GEOM    SYMINP    ZMAT    AOBASIS   BASIS     P2S    ABASIS      S 
                                         1400     1410     1200     1210     1080     1600     1650     1300     1700   
                                           T        V       H0       H01     AOSYM     SMH    MOLCAS    ERIS     OPER   

              2       3        0.65       700     1000     2100   
                                         GEOM     BASIS     RHF  

 PROGRAMS   *        TOTAL       RHF       INT
 CPU TIMES  *         3.51      1.92      1.53
 REAL TIME  *         4.18 SEC
 DISK USED  *       382.35 MB      
 GA USED    *         0.00 MB       (max)       0.00 MB       (current)
 **********************************************************************************************************************************


1PROGRAM * MP2 (Closed-shell)     Authors: C. Hampel, H.-J. Werner, 1991, M. Deegan, P.J. Knowles, 1992


 Convergence thresholds:  THRVAR = 1.00D-08  THRDEN = 1.00D-12

 Number of core orbitals:           4 (   3   1 )
 Number of closed-shell orbitals:  11 (   8   3 )
 Number of external orbitals:     107 (  62  45 )

 Molecular orbitals read from record     2100.2  Type=RHF/CANONICAL (state 1.1)

 Number of N-1 electron functions:              11
 Number of N-2 electron functions:              66
 Number of singly external CSFs:               631
 Number of doubly external CSFs:            348727
 Total number of CSFs:                      349359

 Length of J-op  integral file:               0.00 MB
 Length of K-op  integral file:               0.56 MB

 Integral transformation finished. Total CPU:   0.20 sec, npass=  1  Memory used:   0.61 MW

 Memory needed for MP2:                      0.04 MW

 SCS-MP2 correlation energy:           -0.548021347518   (PS=  1.200000  PT=  0.333333)
 SCS-MP2 total energy:               -155.418526458774


  Reference energy                   -154.870505111256
  MP2 singlet pair energy              -0.357824824480
  MP2 triplet pair energy              -0.190657861301
  MP2 correlation energy               -0.548482685781

 !MP2 total energy                   -155.418987797036


 **********************************************************************************************************************************
 DATASETS  * FILE   NREC   LENGTH (MB)   RECORD NAMES
              1      20      105.79       500      610      700      900      950      970     1000      129      960     1100   
                                          VAR    BASINP    GEOM    SYMINP    ZMAT    AOBASIS   BASIS     P2S    ABASIS      S 
                                         1400     1410     1200     1210     1080     1600     1650     1300     1700     1380   
                                           T        V       H0       H01     AOSYM     SMH    MOLCAS    ERIS     OPER     JKOP   

              2       3        0.65       700     1000     2100   
                                         GEOM     BASIS     RHF  

 PROGRAMS   *        TOTAL       MP2       RHF       INT
 CPU TIMES  *         3.75      0.24      1.92      1.53
 REAL TIME  *         4.46 SEC
 DISK USED  *       382.35 MB      
 GA USED    *         0.00 MB       (max)       0.00 MB       (current)
 **********************************************************************************************************************************

        MP2             RHF-SCF 
   -155.41898780   -154.87050511
 **********************************************************************************************************************************
 Variable memory released
