
 Primary working directories    : /tmp/943186.164.gen4.q
 Secondary working directories  : /tmp/943186.164.gen4.q
 Wavefunction directory         : /home/vulcan/mel64643/wfu/
 Main file repository           : /tmp/943186.164.gen4.q/

 ARCHNAME  : Linux/x86_64
 FC        : /opt/intel/compilers_and_libraries_2016.1.150/linux/bin/intel64/ifort
 FCVERSION : 16.0.1
 BLASLIB   : -mkl
 id        : ccgc

 Nodes     nprocs
 n067         1
 ga_uses_ma=false, calling ma_init with nominal heap.
 GA-space will be limited to   8.0 MW (determined by -G option)

 Using customized tuning parameters: mindgm=10; mindgv=16; mindgc=4; mindgr=1; noblas=0; mincuda=1000; minvec=7
 default implementation of scratch files=df  

 ***,Optimization of h2o_2
 memory,1000,m
 gthresh,energy=1.0d-12,orbital=1.0d-10,oneint=1.0d-16,twoint=1.0d-16,optgrad=1.0d-6,compress=1.0d-13
 geomtyp=xyz
 
 bohr
 geometry = {
  C   -0.0024606361   -3.4234000641   -0.0017297502
  H   -0.9781088702   -2.7346823495   -1.6862052761
  H   -0.9793946269   -2.7391132851    1.6838060549
  H    1.9303201313   -2.7256647658   -0.0000749437
  H    0.0078377941   -5.4781843440   -0.0044274797
  C    0.0009314860    3.4200968027    0.0005350802
  H   -0.0115862551    5.4798313673   -0.0121788027
  H    0.9835014056    2.7357038272   -1.6755371843
  H    0.9812306478    2.7564409191    1.6862485424
  H   -1.9322710765    2.7089718922    0.0095637592
 }
 
 basis=VDZ
 {rhf;maxit,200}
 {ccsd(t);maxit,200}

 Variables initialized (661), CPU time= 0.00 sec
 Commands  initialized (458), CPU time= 0.00 sec, 486 directives.
 Default parameters read. Elapsed time= 0.05 sec

 Checking input...
 Passed
1


                                         ***  PROGRAM SYSTEM MOLPRO  ***
                         Copyright, University College Cardiff Consultants Limited, 2008

                                    Version 2010.1 linked May 16 2016 07:17:05


 **********************************************************************************************************************************
 LABEL *   Optimization of h2o_2                                                         
 Linux-4.4.3/n067(x86_64) 64 bit mpp version                                             DATE: 23-Oct-23          TIME: 12:34:03  
 **********************************************************************************************************************************

 SHA1:             9e8077add272b0f3cad6f7df79ec5211205f459d
 **********************************************************************************************************************************

 THRESHOLDS:

 ZERO    =  1.00D-12  ONEINT  =  1.00D-16  TWOINT  =  1.00D-16  PREFAC  =  1.00D-14  LOCALI  =  1.00D-09  EORDER  =  1.00D-04
 ENERGY  =  1.00D-12  ETEST   =  0.00D+00  EDENS   =  0.00D+00  THRDEDEF=  1.00D-06  GRADIENT=  1.00D-02  STEP    =  1.00D-03
 ORBITAL =  1.00D-10  CIVEC   =  1.00D-05  COEFF   =  1.00D-04  PRINTCI =  5.00D-02  PUNCHCI =  9.90D+01  OPTGRAD =  1.00D-06
 OPTENERG=  1.00D-06  OPTSTEP =  3.00D-04  THRGRAD =  1.00D-10  COMPRESS=  1.00D-13  VARMIN  =  1.00D-07  VARMAX  =  1.00D-03
 THRDOUB =  0.00D+00  THRDIV  =  1.00D-05  THRRED  =  1.00D-07  THRPSP  =  1.00D+00  THRDC   =  1.00D-10  THRCS   =  1.00D-10
 THRNRM  =  1.00D-08  THREQ   =  0.00D+00  THRDE   =  1.00D+00  THRREF  =  1.00D-05  SPARFAC =  1.00D+00  THRDLP  =  1.00D-07
 THRDIA  =  1.00D-10  THRDLS  =  1.00D-07  THRGPS  =  0.00D+00  THRKEX  =  0.00D+00  THRDIS  =  2.00D-01  THRVAR  =  1.00D-10
 THRLOC  =  1.00D-06  THRGAP  =  1.00D-06  THRLOCT = -1.00D+00  THRGAPT = -1.00D+00  THRORB  =  1.00D-06  THRMLTP =  0.00D+00
 THRCPQCI=  1.00D-10  KEXTA   =  0.00D+00  THRCOARS=  0.00D+00  SYMTOL  =  1.00D-06  GRADTOL =  1.00D-06  THROVL  =  1.00D-08
 THRORTH =  1.00D-08  GRID    =  1.00D-06  GRIDMAX =  1.00D-03  DTMAX   =  0.00D+00

 SETTING GEOMTYP        =    XYZ
 ZUNIT=BOHR
 

 Variable memory set to 1000000000 words,  buffer space   230000 words

 SETTING BASIS          =    VDZ


 Recomputing integrals since basis changed


 Using spherical harmonics

 Library entry C      S cc-pVDZ              selected for orbital group  1
 Library entry C      P cc-pVDZ              selected for orbital group  1
 Library entry C      D cc-pVDZ              selected for orbital group  1
 Library entry H      S cc-pVDZ              selected for orbital group  2
 Library entry H      P cc-pVDZ              selected for orbital group  2

1PROGRAM * SEWARD (Integral evaluation for generally contracted gaussian basis sets)     Author: Roland Lindh, 1990

 Geometry written to block  1 of record 700


 Point group  C1  



 ATOMIC COORDINATES

 NR  ATOM    CHARGE       X              Y              Z

   1  C       6.00   -0.002460636   -3.423400064   -0.001729750
   2  H       1.00   -0.978108870   -2.734682349   -1.686205276
   3  H       1.00   -0.979394627   -2.739113285    1.683806055
   4  H       1.00    1.930320131   -2.725664766   -0.000074944
   5  H       1.00    0.007837794   -5.478184344   -0.004427480
   6  C       6.00    0.000931486    3.420096803    0.000535080
   7  H       1.00   -0.011586255    5.479831367   -0.012178803
   8  H       1.00    0.983501406    2.735703827   -1.675537184
   9  H       1.00    0.981230648    2.756440919    1.686248542
  10  H       1.00   -1.932271076    2.708971892    0.009563759

 Bond lengths in Bohr (Angstrom)

 1-2  2.064867881  1-3  2.064867882  1-4  2.054867095  1-5  2.054811858  6-7  2.059811839
     ( 1.092681022)     ( 1.092681023)     ( 1.087388834)     ( 1.087359604)     ( 1.090005480)

  6- 8  2.059867867   6- 9  2.059867825   6-10  2.059867060
       ( 1.090035129)       ( 1.090035106)       ( 1.090034701)

 Bond angles

  2-1-3  109.37992574   2-1-4  109.37980985   2-1-5  109.56240829   3-1-4  109.37980969

  3-1-5  109.56240833   4-1-5  109.56250041   7-6-8  109.27575319   7-6-9  109.27575388

  7- 6-10  109.84880293   8- 6- 9  109.37975169   8- 6-10  109.66611327   9- 6-10  109.37963317

 NUCLEAR CHARGE:                   20
 NUMBER OF PRIMITIVE AOS:         110
 NUMBER OF SYMMETRY AOS:          108
 NUMBER OF CONTRACTIONS:           68   (  68A   )
 NUMBER OF CORE ORBITALS:           2   (   2A   )
 NUMBER OF VALENCE ORBITALS:       16   (  16A   )


 NUCLEAR REPULSION ENERGY   41.34028767


 Eigenvalues of metric

         1 0.113E-01 0.127E-01 0.347E-01 0.350E-01 0.355E-01 0.374E-01 0.383E-01 0.385E-01


 Contracted 2-electron integrals neglected if value below      1.0D-16
 AO integral compression algorithm  1   Integral accuracy      1.0D-16

     21.758 MB (compressed) written to integral file ( 88.0%)

     Node minimum: 21.758 MB, node maximum: 21.758 MB


 NUMBER OF SORTED TWO-ELECTRON INTEGRALS:    2753031.     BUFFER LENGTH:  32768
 NUMBER OF SEGMENTS:   1  SEGMENT LENGTH:    2753031      RECORD LENGTH: 524288

 Memory used in sort:       3.31 MW

 SORT1 READ     3104305. AND WROTE     2691798. INTEGRALS IN      8 RECORDS. CPU TIME:     0.03 SEC, REAL TIME:     0.04 SEC
 SORT2 READ     2691798. AND WROTE     2753031. INTEGRALS IN     83 RECORDS. CPU TIME:     0.04 SEC, REAL TIME:     0.06 SEC

 FILE SIZES:   FILE 1:    21.7 MBYTE,  FILE 4:    33.6 MBYTE,   TOTAL:     55.2 MBYTE

 OPERATOR DM      FOR CENTER  0  COORDINATES:    0.000000    0.000000    0.000000


 **********************************************************************************************************************************
 DATASETS  * FILE   NREC   LENGTH (MB)   RECORD NAMES
              1      19       21.71       500      610      700      900      950      970     1000      129      960     1100   
                                          VAR    BASINP    GEOM    SYMINP    ZMAT    AOBASIS   BASIS     P2S    ABASIS      S 
                                         1400     1410     1200     1210     1080     1600     1650     1300     1700   
                                           T        V       H0       H01     AOSYM     SMH    MOLCAS    ERIS     OPER   

 PROGRAMS   *        TOTAL       INT
 CPU TIMES  *         0.47      0.43
 REAL TIME  *         0.69 SEC
 DISK USED  *        77.77 MB      
 GA USED    *         0.00 MB       (max)       0.00 MB       (current)
 **********************************************************************************************************************************

1PROGRAM * RHF-SCF (CLOSED SHELL)       Authors: W. Meyer, H.-J. Werner


 NUMBER OF ELECTRONS:      10+   10-    SPACE SYMMETRY=1    SPIN SYMMETRY: Singlet 
 CONVERGENCE THRESHOLDS:    1.00E-10 (Density)    1.00E-13 (Energy)
 MAX. NUMBER OF ITERATIONS:      200
 INTERPOLATION TYPE:            DIIS
 INTERPOLATION STEPS:              2 (START)      1 (STEP)
 LEVEL SHIFTS:                  0.00 (CLOSED)  0.00 (OPEN) 



 Orbital guess generated from atomic densities. Full valence occupancy:   18

 Molecular orbital dump at record        2100.2

 ITERATION    DDIFF          GRAD             ENERGY        2-EL.EN.            DIPOLE MOMENTS         DIIS
    1      0.000D+00      0.000D+00       -80.35960433    134.826542    0.00032    0.00340    0.00101    0
    2      0.000D+00      0.637D-02       -80.39227505    132.547100    0.00209    0.00003    0.00035    1
    3      0.132D-01      0.234D-02       -80.39613722    133.348594    0.00230    0.00001    0.00040    2
    4      0.460D-02      0.630D-03       -80.39666596    133.211812    0.00250   -0.00044    0.00032    3
    5      0.165D-02      0.664D-04       -80.39667048    133.217845    0.00254   -0.00051    0.00031    4
    6      0.233D-03      0.393D-05       -80.39667050    133.217707    0.00254   -0.00052    0.00031    5
    7      0.206D-04      0.236D-06       -80.39667050    133.217705    0.00254   -0.00052    0.00031    5
    8      0.754D-06      0.441D-07       -80.39667050    133.217707    0.00254   -0.00052    0.00031    4
    9      0.122D-06      0.123D-07       -80.39667050    133.217708    0.00254   -0.00052    0.00031    4
   10      0.424D-07      0.224D-08       -80.39667050    133.217708    0.00254   -0.00052    0.00031    5
   11      0.743D-08      0.290D-09       -80.39667050    133.217708    0.00254   -0.00052    0.00031    5
   12      0.779D-09      0.864D-10       -80.39667050    133.217708    0.00254   -0.00052    0.00031    6
   13      0.191D-09      0.259D-10       -80.39667050    133.217708    0.00254   -0.00052    0.00031    6
   14      0.760D-10      0.498D-11       -80.39667050    133.217708    0.00254   -0.00052    0.00031    6
   15      0.236D-10      0.425D-12       -80.39667050    133.217708    0.00254   -0.00052    0.00031    6
   16      0.155D-11      0.107D-12       -80.39667050    133.217708    0.00254   -0.00052    0.00031    6
   17      0.289D-12      0.314D-13       -80.39667050    133.217708    0.00254   -0.00052    0.00031    0

 Final occupancy:  10

 !RHF STATE 1.1 Energy                -80.396670499105
 Nuclear energy                        41.34028767
 One-electron energy                 -188.34581200
 Two-electron energy                   66.60885383
 Virial quotient                       -1.00229818
 !RHF STATE 1.1 Dipole moment           0.00254042    -0.00051911     0.00031154
 Dipole moment /Debye                   0.00645669    -0.00131935     0.00079181

 Orbital energies:

         1.1          2.1          3.1          4.1          5.1          6.1          7.1          8.1          9.1         10.1
    -11.215284   -11.215280    -0.944232    -0.938384    -0.549850    -0.545753    -0.544847    -0.538303    -0.537568    -0.534552

        11.1         12.1
      0.172504     0.229170


 **********************************************************************************************************************************
 DATASETS  * FILE   NREC   LENGTH (MB)   RECORD NAMES
              1      19       21.71       500      610      700      900      950      970     1000      129      960     1100   
                                          VAR    BASINP    GEOM    SYMINP    ZMAT    AOBASIS   BASIS     P2S    ABASIS      S 
                                         1400     1410     1200     1210     1080     1600     1650     1300     1700   
                                           T        V       H0       H01     AOSYM     SMH    MOLCAS    ERIS     OPER   

              2       3        0.51       700     1000     2100   
                                         GEOM     BASIS     RHF  

 PROGRAMS   *        TOTAL       RHF       INT
 CPU TIMES  *         0.85      0.38      0.43
 REAL TIME  *         1.12 SEC
 DISK USED  *        77.77 MB      
 GA USED    *         0.00 MB       (max)       0.00 MB       (current)
 **********************************************************************************************************************************


1PROGRAM * CCSD (Closed-shell coupled cluster)     Authors: C. Hampel, H.-J. Werner, 1991, M. Deegan, P.J. Knowles, 1992


 Convergence thresholds:  THRVAR = 1.00D-08  THRDEN = 1.00D-12

 CCSD(T)     terms to be evaluated (factor= 1.000)


 Number of core orbitals:           2 (   2 )
 Number of closed-shell orbitals:   8 (   8 )
 Number of external orbitals:      58 (  58 )

 Molecular orbitals read from record     2100.2  Type=RHF/CANONICAL (state 1.1)

 Number of N-1 electron functions:               8
 Number of N-2 electron functions:              36
 Number of singly external CSFs:               464
 Number of doubly external CSFs:            107880
 Total number of CSFs:                      108345

 Length of J-op  integral file:               0.00 MB
 Length of K-op  integral file:               0.35 MB
 Length of 3-ext integral record:             0.00 MB

 Memory could be reduced to 2.66 Mwords without degradation in triples

 Integral transformation finished. Total CPU:   0.08 sec, npass=  1  Memory used:   1.86 MW

 Reference energy:                    -80.39667050

 MP2 singlet pair energy:              -0.23207761
 MP2 triplet pair energy:              -0.09154804
 MP2 correlation energy:               -0.32362565
 MP2 total energy:                    -80.72029615

 SCS-MP2 correlation energy:           -0.33545636   (PS=  1.200000  PT=  0.333333)
 SCS-MP2 total energy:                -80.73212685

 ITER.      SQ.NORM     CORR.ENERGY   TOTAL ENERGY   ENERGY CHANGE        DEN1      VAR(S)    VAR(P)  DIIS     TIME
   1      1.13421028    -0.36752755   -80.76419805    -0.04390190    -0.03297793  0.50D-03  0.24D-02  1  1     0.22
   2      1.14681930    -0.37032503   -80.76699552    -0.00279747    -0.01276544  0.15D-04  0.96D-04  2  2     0.37
   3      1.14861115    -0.37049606   -80.76716656    -0.00017103    -0.00095509  0.17D-05  0.56D-05  3  3     0.52
   4      1.14897905    -0.37051636   -80.76718686    -0.00002030    -0.00016591  0.25D-07  0.35D-06  4  4     0.67
   5      1.14902501    -0.37051388   -80.76718438     0.00000248    -0.00002393  0.18D-08  0.18D-07  5  5     0.82
   6      1.14902630    -0.37051382   -80.76718432     0.00000006    -0.00000010  0.19D-09  0.12D-08  6  6     0.96
   7      1.14902639    -0.37051408   -80.76718458    -0.00000026     0.00000013  0.13D-10  0.71D-10  6  1     1.12
   8      1.14902657    -0.37051408   -80.76718457     0.00000001    -0.00000013  0.15D-11  0.41D-11  6  2     1.27
   9      1.14902659    -0.37051406   -80.76718456     0.00000001    -0.00000003  0.15D-12  0.26D-12  6  3     1.42
  10      1.14902659    -0.37051406   -80.76718456     0.00000000     0.00000001  0.11D-13  0.23D-13  6  4     1.57
  11      1.14902658    -0.37051406   -80.76718456    -0.00000000     0.00000001  0.80D-15  0.19D-14  6  5     1.72
  12      1.14902657    -0.37051406   -80.76718456    -0.00000000     0.00000000  0.44D-16  0.23D-15  6  6     1.87
  13      1.14902657    -0.37051406   -80.76718456    -0.00000000     0.00000000  0.34D-17  0.28D-16  6  1     2.02
  14      1.14902657    -0.37051406   -80.76718456     0.00000000     0.00000000  0.60D-18  0.37D-17  6  2     2.17
  15      1.14902657    -0.37051406   -80.76718456     0.00000000     0.00000000  0.72D-19  0.37D-18  6  3     2.32
  16      1.14902657    -0.37051406   -80.76718456    -0.00000000     0.00000000  0.16D-20  0.20D-19  6  5     2.46
  17      1.14902657    -0.37051406   -80.76718456    -0.00000000     0.00000000  0.19D-21  0.56D-21  6  4     2.61
  18      1.14902657    -0.37051406   -80.76718456     0.00000000    -0.00000000  0.45D-22  0.51D-22  6  6     2.76

 Norm of t1 vector:      0.03062784      S-energy:     0.00000000      T1 diagnostic:  0.00541429
                                                                       D1 diagnostic:  0.00878331


 Total CPU time for triples:      1.11 sec


 RESULTS
 =======

  Reference energy                    -80.396670499105
  CCSD singlet pair energy             -0.281841549739
  CCSD triplet pair energy             -0.088672511794
  CCSD correlation energy              -0.370514061533

  Triples (T) contribution             -0.007535532971
  Total correlation energy             -0.378049594504

  CCSD total energy                   -80.767184560638
  CCSD[T] energy                      -80.774896289014
  CCSD-T energy                       -80.774625655627
 !CCSD(T) total energy                -80.774720093609

 Timing summary (sec):

 STEP                 CPU(USER)    SYS     CPU(TOT)    WALL
 Transformation          0.08      0.01      0.09      0.10
 CCSD iterations         2.68      0.12      2.80      2.83
 Triples                 1.11      0.02      1.13      1.11

 Program statistics:

 Available memory in ccsd:               999999644
 Min. memory needed in ccsd:                356281
 Max. memory used in ccsd:                  442401
 Max. memory used in cckext:                403930 (18 integral passes)



 **********************************************************************************************************************************
 DATASETS  * FILE   NREC   LENGTH (MB)   RECORD NAMES
              1      20       30.16       500      610      700      900      950      970     1000      129      960     1100   
                                          VAR    BASINP    GEOM    SYMINP    ZMAT    AOBASIS   BASIS     P2S    ABASIS      S 
                                         1400     1410     1200     1210     1080     1600     1650     1300     1700     1380   
                                           T        V       H0       H01     AOSYM     SMH    MOLCAS    ERIS     OPER     JKOP   

              2       3        0.51       700     1000     2100   
                                         GEOM     BASIS     RHF  

 PROGRAMS   *        TOTAL   CCSD(T)       RHF       INT
 CPU TIMES  *         4.72      3.87      0.38      0.43
 REAL TIME  *         5.19 SEC
 DISK USED  *        77.77 MB      
 GA USED    *         0.00 MB       (max)       0.00 MB       (current)
 **********************************************************************************************************************************

        CCSD(T)         RHF-SCF 
    -80.77472009    -80.39667050
 **********************************************************************************************************************************
 Variable memory released
