[Molden Format]                                                                 
[ATOMS] AU                                                                      
B        1    5        0.0000000000        0.0000000000       -0.0000000000     
F        2    9        0.0000000000       -2.1729267295        1.2545398322     
F        3    9        0.0000000000       -0.0000000000       -2.5090796644     
F        4    9       -0.0000000000        2.1729267295        1.2545398322     
[Molden Format]                                                                 
[GTO]                                                                           
  1 0
s   9 1.00
   4570.00000000000       6.960000000000000E-004                                
   685.900000000000       5.353000000000000E-003                                
   156.500000000000       2.713400000000000E-002                                
   44.4700000000000       0.101380000000000                                     
   14.4800000000000       0.272055000000000                                     
   5.13100000000000       0.448403000000000                                     
   1.89800000000000       0.290123000000000                                     
  0.332900000000000       1.432200000000000E-002                                
  0.104300000000000      -3.486000000000000E-003                                
s   9 1.00
   4570.00000000000      -1.390000000000000E-004                                
   685.900000000000      -1.097000000000000E-003                                
   156.500000000000      -5.444000000000000E-003                                
   44.4700000000000      -2.191600000000000E-002                                
   14.4800000000000      -5.975100000000000E-002                                
   5.13100000000000      -0.138732000000000                                     
   1.89800000000000      -0.131482000000000                                     
  0.332900000000000       0.539526000000000                                     
  0.104300000000000       0.580774000000000                                     
s   9 1.00
   4570.00000000000       0.000000000000000E+000                                
   685.900000000000       0.000000000000000E+000                                
   156.500000000000       0.000000000000000E+000                                
   44.4700000000000       0.000000000000000E+000                                
   14.4800000000000       0.000000000000000E+000                                
   5.13100000000000       0.000000000000000E+000                                
   1.89800000000000       0.000000000000000E+000                                
  0.332900000000000       0.000000000000000E+000                                
  0.104300000000000        1.00000000000000                                     
p   4 1.00
   6.00100000000000       3.548100000000000E-002                                
   1.24100000000000       0.198072000000000                                     
  0.336400000000000       0.505230000000000                                     
  9.538000000000001E-002  0.479499000000000                                     
p   4 1.00
   6.00100000000000       0.000000000000000E+000                                
   1.24100000000000       0.000000000000000E+000                                
  0.336400000000000       0.000000000000000E+000                                
  9.538000000000001E-002   1.00000000000000                                     
d   1 1.00
  0.343000000000000        1.00000000000000                                     
 
  2 0
s   9 1.00
   14710.0000000000       7.210000000000000E-004                                
   2207.00000000000       5.553000000000000E-003                                
   502.800000000000       2.826700000000000E-002                                
   142.600000000000       0.106444000000000                                     
   46.4700000000000       0.286814000000000                                     
   16.7000000000000       0.448641000000000                                     
   6.35600000000000       0.264761000000000                                     
   1.31600000000000       1.533300000000000E-002                                
  0.389700000000000      -2.332000000000000E-003                                
s   9 1.00
   14710.0000000000      -1.650000000000000E-004                                
   2207.00000000000      -1.308000000000000E-003                                
   502.800000000000      -6.495000000000000E-003                                
   142.600000000000      -2.669100000000000E-002                                
   46.4700000000000      -7.369000000000001E-002                                
   16.7000000000000      -0.170776000000000                                     
   6.35600000000000      -0.112327000000000                                     
   1.31600000000000       0.562814000000000                                     
  0.389700000000000       0.568778000000000                                     
s   9 1.00
   14710.0000000000       0.000000000000000E+000                                
   2207.00000000000       0.000000000000000E+000                                
   502.800000000000       0.000000000000000E+000                                
   142.600000000000       0.000000000000000E+000                                
   46.4700000000000       0.000000000000000E+000                                
   16.7000000000000       0.000000000000000E+000                                
   6.35600000000000       0.000000000000000E+000                                
   1.31600000000000       0.000000000000000E+000                                
  0.389700000000000        1.00000000000000                                     
p   4 1.00
   22.6700000000000       4.487800000000000E-002                                
   4.97700000000000       0.235718000000000                                     
   1.34700000000000       0.508521000000000                                     
  0.347100000000000       0.458120000000000                                     
p   4 1.00
   22.6700000000000       0.000000000000000E+000                                
   4.97700000000000       0.000000000000000E+000                                
   1.34700000000000       0.000000000000000E+000                                
  0.347100000000000        1.00000000000000                                     
d   1 1.00
   1.64000000000000        1.00000000000000                                     
 
  3 0
s   9 1.00
   14710.0000000000       7.210000000000000E-004                                
   2207.00000000000       5.553000000000000E-003                                
   502.800000000000       2.826700000000000E-002                                
   142.600000000000       0.106444000000000                                     
   46.4700000000000       0.286814000000000                                     
   16.7000000000000       0.448641000000000                                     
   6.35600000000000       0.264761000000000                                     
   1.31600000000000       1.533300000000000E-002                                
  0.389700000000000      -2.332000000000000E-003                                
s   9 1.00
   14710.0000000000      -1.650000000000000E-004                                
   2207.00000000000      -1.308000000000000E-003                                
   502.800000000000      -6.495000000000000E-003                                
   142.600000000000      -2.669100000000000E-002                                
   46.4700000000000      -7.369000000000001E-002                                
   16.7000000000000      -0.170776000000000                                     
   6.35600000000000      -0.112327000000000                                     
   1.31600000000000       0.562814000000000                                     
  0.389700000000000       0.568778000000000                                     
s   9 1.00
   14710.0000000000       0.000000000000000E+000                                
   2207.00000000000       0.000000000000000E+000                                
   502.800000000000       0.000000000000000E+000                                
   142.600000000000       0.000000000000000E+000                                
   46.4700000000000       0.000000000000000E+000                                
   16.7000000000000       0.000000000000000E+000                                
   6.35600000000000       0.000000000000000E+000                                
   1.31600000000000       0.000000000000000E+000                                
  0.389700000000000        1.00000000000000                                     
p   4 1.00
   22.6700000000000       4.487800000000000E-002                                
   4.97700000000000       0.235718000000000                                     
   1.34700000000000       0.508521000000000                                     
  0.347100000000000       0.458120000000000                                     
p   4 1.00
   22.6700000000000       0.000000000000000E+000                                
   4.97700000000000       0.000000000000000E+000                                
   1.34700000000000       0.000000000000000E+000                                
  0.347100000000000        1.00000000000000                                     
d   1 1.00
   1.64000000000000        1.00000000000000                                     
 
                                                                                
[MO]                                                                            
 Sym= A                                                                         
 Ene=  -26.3442364993987                                                        
 Spin= Alpha                                                                    
 Occup= 1.0                                                                     
  1        0.0000000000                                                         
  2        0.0000000000                                                         
  3        0.0000000000                                                         
  4        0.0000000000                                                         
  5        0.0011590651                                                         
  6        0.0000000000                                                         
  7        0.0000000000                                                         
  8        0.0003134894                                                         
  9        0.0000000000                                                         
 10        0.0000000000                                                         
 11        0.0000000000                                                         
 12        0.0000000000                                                         
 13        0.0000000000                                                         
 14        0.0000000000                                                         
 15       -0.0001085835                                                         
 16       -0.7073958561                                                         
 17       -0.0013558685                                                         
 18        0.0018621332                                                         
 19        0.0000000000                                                         
 20       -0.0008547115                                                         
 21        0.0005259750                                                         
 22        0.0000000000                                                         
 23        0.0008627218                                                         
 24       -0.0007072329                                                         
 25       -0.0000124607                                                         
 26        0.0000092907                                                         
 27        0.0000031700                                                         
 28        0.0000000000                                                         
 29        0.0000000000                                                         
 30       -0.0000657739                                                         
 31        0.0000000000                                                         
 32        0.0000000000                                                         
 33        0.0000000000                                                         
 34        0.0000000000                                                         
 35        0.0000563040                                                         
 36        0.0000000000                                                         
 37        0.0000000000                                                         
 38       -0.0003622415                                                         
 39        0.0000000000                                                         
 40        0.0000000000                                                         
 41        0.0000000000                                                         
 42        0.0000000000                                                         
 43        0.0000000000                                                         
 44        0.0000000000                                                         
 45       -0.0000551725                                                         
 46        0.7073958561                                                         
 47        0.0013558685                                                         
 48       -0.0018621332                                                         
 49        0.0000000000                                                         
 50       -0.0008547115                                                         
 51       -0.0005259750                                                         
 52        0.0000000000                                                         
 53        0.0008627218                                                         
 54        0.0007072329                                                         
 55        0.0000124607                                                         
 56       -0.0000092907                                                         
 57       -0.0000031700                                                         
 58        0.0000000000                                                         
 59        0.0000000000                                                         
 60       -0.0000657739                                                         
 Sym= A                                                                         
 Ene=  -26.3442364993702                                                        
 Spin= Alpha                                                                    
 Occup= 1.0                                                                     
  1        0.0000000007                                                         
  2        0.0000000027                                                         
  3        0.0000000001                                                         
  4        0.0000000000                                                         
  5        0.0000000000                                                         
  6        0.0011590651                                                         
  7        0.0000000000                                                         
  8        0.0000000000                                                         
  9        0.0003134894                                                         
 10       -0.0000000003                                                         
 11       -0.0000542916                                                         
 12        0.0000542919                                                         
 13        0.0000000000                                                         
 14        0.0000000000                                                         
 15        0.0000000000                                                         
 16        0.4084156996                                                         
 17        0.0007828123                                                         
 18       -0.0010751053                                                         
 19        0.0000000000                                                         
 20        0.0005259756                                                         
 21       -0.0002473682                                                         
 22        0.0000000000                                                         
 23       -0.0007072338                                                         
 24        0.0000460801                                                         
 25        0.0000071942                                                         
 26       -0.0000329503                                                         
 27        0.0000257560                                                         
 28        0.0000000000                                                         
 29        0.0000000000                                                         
 30        0.0000061208                                                         
 31       -0.8168298643                                                         
 32       -0.0015656208                                                         
 33        0.0021502041                                                         
 34        0.0000000000                                                         
 35        0.0000000000                                                         
 36       -0.0011583827                                                         
 37        0.0000000000                                                         
 38        0.0000000000                                                         
 39        0.0012710418                                                         
 40       -0.0000143884                                                         
 41       -0.0000274596                                                         
 42        0.0000418480                                                         
 43        0.0000000000                                                         
 44        0.0000000000                                                         
 45        0.0000000000                                                         
 46        0.4084156996                                                         
 47        0.0007828123                                                         
 48       -0.0010751053                                                         
 49        0.0000000000                                                         
 50       -0.0005259756                                                         
 51       -0.0002473682                                                         
 52        0.0000000000                                                         
 53        0.0007072338                                                         
 54        0.0000460801                                                         
 55        0.0000071942                                                         
 56       -0.0000329503                                                         
 57        0.0000257560                                                         
 58        0.0000000000                                                         
 59        0.0000000000                                                         
 60       -0.0000061208                                                         
 Sym= A                                                                         
 Ene=  -26.3442139423126                                                        
 Spin= Alpha                                                                    
 Occup= 1.0                                                                     
  1        0.0007792287                                                         
  2        0.0030756906                                                         
  3        0.0001011079                                                         
  4        0.0000000000                                                         
  5        0.0000000000                                                         
  6       -0.0000000010                                                         
  7        0.0000000000                                                         
  8        0.0000000000                                                         
  9       -0.0000000003                                                         
 10       -0.0002884870                                                         
 11        0.0001442435                                                         
 12        0.0001442434                                                         
 13        0.0000000000                                                         
 14        0.0000000000                                                         
 15        0.0000000000                                                         
 16        0.5776869129                                                         
 17        0.0014477020                                                         
 18       -0.0024440797                                                         
 19        0.0000000000                                                         
 20        0.0006591150                                                         
 21       -0.0003805403                                                         
 22        0.0000000000                                                         
 23       -0.0010716680                                                         
 24        0.0006187282                                                         
 25        0.0000313571                                                         
 26       -0.0000391186                                                         
 27        0.0000077615                                                         
 28        0.0000000000                                                         
 29        0.0000000000                                                         
 30        0.0000811988                                                         
 31        0.5776879980                                                         
 32        0.0014477041                                                         
 33       -0.0024440826                                                         
 34        0.0000000000                                                         
 35        0.0000000000                                                         
 36        0.0007610821                                                         
 37        0.0000000000                                                         
 38        0.0000000000                                                         
 39       -0.0012374575                                                         
 40        0.0000313571                                                         
 41        0.0000312016                                                         
 42       -0.0000625587                                                         
 43        0.0000000000                                                         
 44        0.0000000000                                                         
 45        0.0000000000                                                         
 46        0.5776869129                                                         
 47        0.0014477020                                                         
 48       -0.0024440797                                                         
 49        0.0000000000                                                         
 50       -0.0006591150                                                         
 51       -0.0003805403                                                         
 52        0.0000000000                                                         
 53        0.0010716680                                                         
 54        0.0006187282                                                         
 55        0.0000313571                                                         
 56       -0.0000391186                                                         
 57        0.0000077615                                                         
 58        0.0000000000                                                         
 59        0.0000000000                                                         
 60       -0.0000811988                                                         
 Sym= A                                                                         
 Ene=  -7.81028830136352                                                        
 Spin= Alpha                                                                    
 Occup= 1.0                                                                     
  1        1.0017771210                                                         
  2        0.0108552905                                                         
  3       -0.0056048494                                                         
  4        0.0000000000                                                         
  5        0.0000000000                                                         
  6       -0.0000000000                                                         
  7        0.0000000000                                                         
  8        0.0000000000                                                         
  9        0.0000000000                                                         
 10       -0.0010113219                                                         
 11        0.0005056610                                                         
 12        0.0005056610                                                         
 13        0.0000000000                                                         
 14        0.0000000000                                                         
 15        0.0000000000                                                         
 16        0.0000491043                                                         
 17        0.0020069228                                                         
 18       -0.0027513340                                                         
 19        0.0000000000                                                         
 20        0.0016003599                                                         
 21       -0.0009239682                                                         
 22        0.0000000000                                                         
 23       -0.0018685765                                                         
 24        0.0010788231                                                         
 25       -0.0001161537                                                         
 26        0.0001821446                                                         
 27       -0.0000659909                                                         
 28        0.0000000000                                                         
 29        0.0000000000                                                         
 30       -0.0004297832                                                         
 31        0.0000491043                                                         
 32        0.0020069228                                                         
 33       -0.0027513340                                                         
 34        0.0000000000                                                         
 35        0.0000000000                                                         
 36        0.0018479365                                                         
 37        0.0000000000                                                         
 38        0.0000000000                                                         
 39       -0.0021576463                                                         
 40       -0.0001161537                                                         
 41       -0.0001900586                                                         
 42        0.0003062123                                                         
 43        0.0000000000                                                         
 44        0.0000000000                                                         
 45        0.0000000000                                                         
 46        0.0000491043                                                         
 47        0.0020069228                                                         
 48       -0.0027513340                                                         
 49        0.0000000000                                                         
 50       -0.0016003599                                                         
 51       -0.0009239682                                                         
 52        0.0000000000                                                         
 53        0.0018685765                                                         