
 Primary working directories    : /tmp/999602.583.gen6.q
 Secondary working directories  : /tmp/999602.583.gen6.q
 Wavefunction directory         : /home/vulcan/jj04645/wfu/
 Main file repository           : /tmp/999602.583.gen6.q/

 ARCHNAME  : Linux/x86_64
 FC        : /opt/intel/compilers_and_libraries_2016.1.150/linux/bin/intel64/ifort
 FCVERSION : 16.0.1
 BLASLIB   : -mkl
 id        : ccgc

 Nodes     nprocs
 n088         1
 ga_uses_ma=false, calling ma_init with nominal heap.
 GA-space will be limited to   8.0 MW (determined by -G option)

 Using customized tuning parameters: mindgm=10; mindgv=16; mindgc=4; mindgr=1; noblas=0; mincuda=1000; minvec=7
 default implementation of scratch files=df  

 ***,Optimization of 1,3-difluorobenzene
 memory,1000,m
 gthresh,energy=1.0d-12,orbital=1.0d-10,oneint=1.0d-16,twoint=1.0d-16,optgrad=1.0d-6,compress=1.0d-13
 geomtyp=xyz
 
 bohr
 geometry = {
  F    0.0044117699    4.4345164997   -1.7608650145
  C    0.0030413606    2.2428098635   -0.4816291085
  C    0.0002279370   -2.2970651299    2.1446294149
  C    0.0045104505    0.0010128981   -1.8515810017
  C    0.0002264772    2.2991581281    2.1445907674
  C   -0.0011641636    0.0010574140    3.4427345162
  C    0.0030427846   -2.2407610294   -0.4815914082
  H   -0.0137152358    0.0009957278   -3.8928956272
  H   -0.0008176190    4.0865467402    3.1181697511
  H   -0.0033560768    0.0010746089    5.4877512305
  F    0.0044145862   -4.4324891775   -1.7607904557
  H   -0.0008222708   -4.0968565436    3.1250033713
 }
 
 basis=VDZ
 {rhf;maxit,200}
 {ccsd(t);maxit,200}

 Variables initialized (661), CPU time= 0.01 sec
 Commands  initialized (458), CPU time= 0.00 sec, 486 directives.
 Default parameters read. Elapsed time= 0.04 sec

 Checking input...
 Passed
1


                                         ***  PROGRAM SYSTEM MOLPRO  ***
                         Copyright, University College Cardiff Consultants Limited, 2008

                                    Version 2010.1 linked May 16 2016 07:17:05


 **********************************************************************************************************************************
 LABEL *   Optimization of 1,3-difluorobenzene                                           
 Linux-4.4.3/n088(x86_64) 64 bit mpp version                                             DATE: 07-Feb-24          TIME: 16:50:07  
 **********************************************************************************************************************************

 SHA1:             9e8077add272b0f3cad6f7df79ec5211205f459d
 **********************************************************************************************************************************

 THRESHOLDS:

 ZERO    =  1.00D-12  ONEINT  =  1.00D-16  TWOINT  =  1.00D-16  PREFAC  =  1.00D-14  LOCALI  =  1.00D-09  EORDER  =  1.00D-04
 ENERGY  =  1.00D-12  ETEST   =  0.00D+00  EDENS   =  0.00D+00  THRDEDEF=  1.00D-06  GRADIENT=  1.00D-02  STEP    =  1.00D-03
 ORBITAL =  1.00D-10  CIVEC   =  1.00D-05  COEFF   =  1.00D-04  PRINTCI =  5.00D-02  PUNCHCI =  9.90D+01  OPTGRAD =  1.00D-06
 OPTENERG=  1.00D-06  OPTSTEP =  3.00D-04  THRGRAD =  1.00D-10  COMPRESS=  1.00D-13  VARMIN  =  1.00D-07  VARMAX  =  1.00D-03
 THRDOUB =  0.00D+00  THRDIV  =  1.00D-05  THRRED  =  1.00D-07  THRPSP  =  1.00D+00  THRDC   =  1.00D-10  THRCS   =  1.00D-10
 THRNRM  =  1.00D-08  THREQ   =  0.00D+00  THRDE   =  1.00D+00  THRREF  =  1.00D-05  SPARFAC =  1.00D+00  THRDLP  =  1.00D-07
 THRDIA  =  1.00D-10  THRDLS  =  1.00D-07  THRGPS  =  0.00D+00  THRKEX  =  0.00D+00  THRDIS  =  2.00D-01  THRVAR  =  1.00D-10
 THRLOC  =  1.00D-06  THRGAP  =  1.00D-06  THRLOCT = -1.00D+00  THRGAPT = -1.00D+00  THRORB  =  1.00D-06  THRMLTP =  0.00D+00
 THRCPQCI=  1.00D-10  KEXTA   =  0.00D+00  THRCOARS=  0.00D+00  SYMTOL  =  1.00D-06  GRADTOL =  1.00D-06  THROVL  =  1.00D-08
 THRORTH =  1.00D-08  GRID    =  1.00D-06  GRIDMAX =  1.00D-03  DTMAX   =  0.00D+00

 SETTING GEOMTYP        =    XYZ
 ZUNIT=BOHR
 

 Variable memory set to 1000000000 words,  buffer space   230000 words

 SETTING BASIS          =    VDZ


 Recomputing integrals since basis changed


 Using spherical harmonics

 Library entry F      S cc-pVDZ              selected for orbital group  1
 Library entry F      P cc-pVDZ              selected for orbital group  1
 Library entry F      D cc-pVDZ              selected for orbital group  1
 Library entry C      S cc-pVDZ              selected for orbital group  2
 Library entry C      P cc-pVDZ              selected for orbital group  2
 Library entry C      D cc-pVDZ              selected for orbital group  2
 Library entry H      S cc-pVDZ              selected for orbital group  3
 Library entry H      P cc-pVDZ              selected for orbital group  3

1PROGRAM * SEWARD (Integral evaluation for generally contracted gaussian basis sets)     Author: Roland Lindh, 1990

 Geometry written to block  1 of record 700


 Point group  C1  



 ATOMIC COORDINATES

 NR  ATOM    CHARGE       X              Y              Z

   1  F       9.00    0.004411770    4.434516500   -1.760865014
   2  C       6.00    0.003041361    2.242809863   -0.481629109
   3  C       6.00    0.000227937   -2.297065130    2.144629415
   4  C       6.00    0.004510450    0.001012898   -1.851581002
   5  C       6.00    0.000226477    2.299158128    2.144590767
   6  C       6.00   -0.001164164    0.001057414    3.442734516
   7  C       6.00    0.003042785   -2.240761029   -0.481591408
   8  H       1.00   -0.013715236    0.000995728   -3.892895627
   9  H       1.00   -0.000817619    4.086546740    3.118169751
  10  H       1.00   -0.003356077    0.001074609    5.487751230
  11  F       9.00    0.004414586   -4.432489177   -1.760790456
  12  H       1.00   -0.000822271   -4.096856544    3.125003371

 Bond lengths in Bohr (Angstrom)

 1-2  2.537720308  2-4  2.627246464  2-5  2.626825820  3-6  2.639402587  3-7  2.626825820
     ( 1.342903750)     ( 1.390278951)     ( 1.390056356)     ( 1.396711695)     ( 1.390056356)

  3-12  2.049483674   4- 7  2.627246464   4- 8  2.041395987   5- 6  2.639402587   5- 9  2.035341538
       ( 1.084540051)       ( 1.390278951)       ( 1.080260231)       ( 1.396711695)       ( 1.077056355)

  6-10  2.045017889   7-11  2.537720308
       ( 1.082176859)       ( 1.342903750)

 Bond angles

  1-2-4  118.30018344   1-2-5  119.04173929   2-4-7  117.14118381   2-4-8  121.42765744

  2- 5- 6  118.23195985   2- 5- 9  119.80600813   3- 6- 5  121.07874194   3- 6-10  119.46062903

  3- 7- 4  122.65807726   3- 7-11  119.04173929   4- 2- 5  122.65807727   4- 7-11  118.30018345

  5- 6-10  119.46062903   6- 3- 7  118.23195987   6- 3-12  121.96203202   6- 5- 9  121.96203202

  7- 3-12  119.80600812   7- 4- 8  121.42765743

 NUCLEAR CHARGE:                   58
 NUMBER OF PRIMITIVE AOS:         244
 NUMBER OF SYMMETRY AOS:          236
 NUMBER OF CONTRACTIONS:          132   ( 132A   )
 NUMBER OF CORE ORBITALS:           8   (   8A   )
 NUMBER OF VALENCE ORBITALS:       36   (  36A   )


 NUCLEAR REPULSION ENERGY  342.36925321


 Eigenvalues of metric

         1 0.394E-03 0.120E-02 0.169E-02 0.263E-02 0.305E-02 0.316E-02 0.125E-01 0.130E-01


 Contracted 2-electron integrals neglected if value below      1.0D-16
 AO integral compression algorithm  1   Integral accuracy      1.0D-16

     263.455 MB (compressed) written to integral file ( 79.0%)

     Node minimum: 263.455 MB, node maximum: 263.455 MB


 NUMBER OF SORTED TWO-ELECTRON INTEGRALS:   38531031.     BUFFER LENGTH:  32768
 NUMBER OF SEGMENTS:   3  SEGMENT LENGTH:   15998004      RECORD LENGTH: 524288

 Memory used in sort:      16.56 MW

 SORT1 READ    41688165. AND WROTE    37149571. INTEGRALS IN    108 RECORDS. CPU TIME:     0.40 SEC, REAL TIME:     0.61 SEC
 SORT2 READ    37149571. AND WROTE    38531031. INTEGRALS IN   1005 RECORDS. CPU TIME:     0.36 SEC, REAL TIME:     0.50 SEC

 FILE SIZES:   FILE 1:   243.6 MBYTE,  FILE 4:   453.0 MBYTE,   TOTAL:    696.6 MBYTE

 OPERATOR DM      FOR CENTER  0  COORDINATES:    0.000000    0.000000    0.000000


 **********************************************************************************************************************************
 DATASETS  * FILE   NREC   LENGTH (MB)   RECORD NAMES
              1      19      243.81       500      610      700      900      950      970     1000      129      960     1100   
                                          VAR    BASINP    GEOM    SYMINP    ZMAT    AOBASIS   BASIS     P2S    ABASIS      S 
                                         1400     1410     1200     1210     1080     1600     1650     1300     1700   
                                           T        V       H0       H01     AOSYM     SMH    MOLCAS    ERIS     OPER   

 PROGRAMS   *        TOTAL       INT
 CPU TIMES  *         3.50      3.46
 REAL TIME  *         4.16 SEC
 DISK USED  *       960.93 MB      
 GA USED    *         0.00 MB       (max)       0.00 MB       (current)
 **********************************************************************************************************************************

1PROGRAM * RHF-SCF (CLOSED SHELL)       Authors: W. Meyer, H.-J. Werner


 NUMBER OF ELECTRONS:      29+   29-    SPACE SYMMETRY=1    SPIN SYMMETRY: Singlet 
 CONVERGENCE THRESHOLDS:    1.00E-10 (Density)    1.00E-13 (Energy)
 MAX. NUMBER OF ITERATIONS:      200
 INTERPOLATION TYPE:            DIIS
 INTERPOLATION STEPS:              2 (START)      1 (STEP)
 LEVEL SHIFTS:                  0.00 (CLOSED)  0.00 (OPEN) 



 Orbital guess generated from atomic densities. Full valence occupancy:   44

 Molecular orbital dump at record        2100.2

 ITERATION    DDIFF          GRAD             ENERGY        2-EL.EN.            DIPOLE MOMENTS         DIIS
    1      0.000D+00      0.000D+00      -428.34389594    993.073600   -0.00498   -0.00666    0.47566    0
    2      0.000D+00      0.606D-02      -428.41801251    992.609004   -0.00465    0.00147    0.92448    1
    3      0.124D-01      0.275D-02      -428.43188110    992.943391   -0.00457   -0.00046    0.62088    2
    4      0.395D-02      0.729D-03      -428.43343762    993.000021   -0.00485    0.00045    0.73433    3
    5      0.148D-02      0.221D-03      -428.43357272    992.964849   -0.00472    0.00044    0.70111    4
    6      0.373D-03      0.461D-04      -428.43358044    992.974065   -0.00475    0.00048    0.70545    5
    7      0.979D-04      0.139D-04      -428.43358149    992.977404   -0.00474    0.00048    0.70381    6
    8      0.333D-04      0.496D-05      -428.43358162    992.976741   -0.00474    0.00049    0.70423    7
    9      0.110D-04      0.226D-05      -428.43358165    992.977132   -0.00474    0.00049    0.70396    8
   10      0.599D-05      0.869D-06      -428.43358166    992.977694   -0.00474    0.00049    0.70402    8
   11      0.270D-05      0.487D-06      -428.43358166    992.977605   -0.00474    0.00049    0.70399    8
   12      0.166D-05      0.193D-06      -428.43358166    992.977702   -0.00474    0.00049    0.70400    8
   13      0.947D-06      0.324D-07      -428.43358166    992.977729   -0.00474    0.00049    0.70400    8
   14      0.106D-06      0.123D-07      -428.43358166    992.977723   -0.00474    0.00049    0.70400    9
   15      0.418D-07      0.289D-08      -428.43358166    992.977723   -0.00474    0.00049    0.70400    9
   16      0.870D-08      0.111D-08      -428.43358166    992.977723   -0.00474    0.00049    0.70400    9
   17      0.346D-08      0.419D-09      -428.43358166    992.977723   -0.00474    0.00049    0.70400    8
   18      0.124D-08      0.871D-10      -428.43358166    992.977723   -0.00474    0.00049    0.70400    7
   19      0.225D-09      0.303D-10      -428.43358166    992.977723   -0.00474    0.00049    0.70400    7
   20      0.805D-10      0.115D-10      -428.43358166    992.977723   -0.00474    0.00049    0.70400    8
   21      0.224D-10      0.361D-11      -428.43358166    992.977723   -0.00474    0.00049    0.70400    8
   22      0.788D-11      0.192D-11      -428.43358166    992.977723   -0.00474    0.00049    0.70400    8
   23      0.581D-11      0.882D-12      -428.43358166    992.977723   -0.00474    0.00049    0.70400    8
   24      0.328D-11      0.303D-12      -428.43358166    992.977723   -0.00474    0.00049    0.70400    8
   25      0.202D-11      0.124D-12      -428.43358166    992.977723   -0.00474    0.00049    0.70400    9
   26      0.963D-12      0.695D-13      -428.43358166    992.977723   -0.00474    0.00049    0.70400    9
   27      0.727D-12      0.611D-13      -428.43358166    992.977723   -0.00474    0.00049    0.70400    0

 Final occupancy:  29

 !RHF STATE 1.1 Energy               -428.433581661325
 Nuclear energy                       342.36925321
 One-electron energy                -1267.29169655
 Two-electron energy                  496.48886169
 Virial quotient                       -1.00060092
 !RHF STATE 1.1 Dipole moment          -0.00473590     0.00048533     0.70400064
 Dipole moment /Debye                  -0.01203668     0.00123351     1.78927394

 Orbital energies:

         1.1          2.1          3.1          4.1          5.1          6.1          7.1          8.1          9.1         10.1
    -26.320922   -26.320894   -11.349547   -11.349507   -11.272877   -11.258807   -11.256220   -11.255498    -1.639523    -1.638922

        11.1         12.1         13.1         14.1         15.1         16.1         17.1         18.1         19.1         20.1
     -1.178970    -1.046826    -1.036944    -0.875041    -0.865058    -0.774642    -0.740948    -0.703917    -0.702924    -0.695884

        21.1         22.1         23.1         24.1         25.1         26.1         27.1         28.1         29.1         30.1
     -0.685070    -0.668331    -0.623050    -0.586225    -0.555056    -0.532880    -0.513776    -0.360322    -0.348407     0.113800

        31.1
      0.131881


 **********************************************************************************************************************************
 DATASETS  * FILE   NREC   LENGTH (MB)   RECORD NAMES
              1      19      243.81       500      610      700      900      950      970     1000      129      960     1100   
                                          VAR    BASINP    GEOM    SYMINP    ZMAT    AOBASIS   BASIS     P2S    ABASIS      S 
                                         1400     1410     1200     1210     1080     1600     1650     1300     1700   
                                           T        V       H0       H01     AOSYM     SMH    MOLCAS    ERIS     OPER   

              2       3        0.82       700     1000     2100   
                                         GEOM     BASIS     RHF  

 PROGRAMS   *        TOTAL       RHF       INT
 CPU TIMES  *        11.33      7.83      3.46
 REAL TIME  *        12.66 SEC
 DISK USED  *       960.93 MB      
 GA USED    *         0.00 MB       (max)       0.00 MB       (current)
 **********************************************************************************************************************************


1PROGRAM * CCSD (Closed-shell coupled cluster)     Authors: C. Hampel, H.-J. Werner, 1991, M. Deegan, P.J. Knowles, 1992


 Convergence thresholds:  THRVAR = 1.00D-08  THRDEN = 1.00D-12

 CCSD(T)     terms to be evaluated (factor= 1.000)


 Number of core orbitals:           8 (   8 )
 Number of closed-shell orbitals:  21 (  21 )
 Number of external orbitals:     103 ( 103 )

 Molecular orbitals read from record     2100.2  Type=RHF/CANONICAL (state 1.1)

 Number of N-1 electron functions:              21
 Number of N-2 electron functions:             231
 Number of singly external CSFs:              2163
 Number of doubly external CSFs:           2340366
 Total number of CSFs:                     2342530

 Length of J-op  integral file:               0.00 MB
 Length of K-op  integral file:               1.24 MB
 Length of 3-ext integral record:             0.00 MB

 Memory could be reduced to 31.86 Mwords without degradation in triples

 Integral transformation finished. Total CPU:   2.02 sec, npass=  1  Memory used:  32.41 MW

 Reference energy:                   -428.43358166

 MP2 singlet pair energy:              -0.67263998
 MP2 triplet pair energy:              -0.46573126
 MP2 correlation energy:               -1.13837124
 MP2 total energy:                   -429.57195290

 SCS-MP2 correlation energy:           -1.09695631   (PS=  1.200000  PT=  0.333333)
 SCS-MP2 total energy:               -429.53053798

 ITER.      SQ.NORM     CORR.ENERGY   TOTAL ENERGY   ENERGY CHANGE        DEN1      VAR(S)    VAR(P)  DIIS     TIME
   1      1.36210598    -1.16811623  -429.60169789    -0.02974498     0.00049054  0.67D-02  0.73D-02  1  1    11.09
   2      1.38857154    -1.17164828  -429.60522994    -0.00353205    -0.02699744  0.13D-03  0.11D-02  2  2    20.28
   3      1.39936755    -1.17224976  -429.60583142    -0.00060148    -0.00538177  0.86D-04  0.10D-03  3  3    29.48
   4      1.40339868    -1.17217527  -429.60575693     0.00007450    -0.00142396  0.48D-05  0.20D-04  4  4    38.67
   5      1.40523900    -1.17220585  -429.60578751    -0.00003059    -0.00045067  0.91D-06  0.22D-05  5  5    47.88
   6      1.40571464    -1.17221158  -429.60579325    -0.00000573    -0.00006797  0.12D-06  0.24D-06  6  6    57.08
   7      1.40580165    -1.17220656  -429.60578823     0.00000502     0.00000029  0.28D-07  0.22D-07  6  1    66.28
   8      1.40582657    -1.17220769  -429.60578935    -0.00000112    -0.00000755  0.61D-08  0.30D-08  6  2    75.49
   9      1.40582788    -1.17220835  -429.60579001    -0.00000066     0.00000228  0.18D-08  0.34D-09  6  3    84.69
  10      1.40583024    -1.17220812  -429.60578978     0.00000023    -0.00000121  0.38D-09  0.76D-10  6  4    93.88
  11      1.40583030    -1.17220835  -429.60579002    -0.00000024     0.00000032  0.45D-10  0.20D-10  6  5   103.10
  12      1.40583049    -1.17220834  -429.60579000     0.00000002    -0.00000007  0.11D-10  0.24D-11  6  6   112.31
  13      1.40583049    -1.17220836  -429.60579002    -0.00000002     0.00000005  0.57D-12  0.56D-12  6  1   121.52
  14      1.40583048    -1.17220836  -429.60579002    -0.00000001     0.00000002  0.15D-12  0.86D-13  6  2   130.72
  15      1.40583048    -1.17220836  -429.60579002     0.00000000     0.00000000  0.40D-13  0.14D-13  6  3   139.93
  16      1.40583048    -1.17220836  -429.60579003    -0.00000000     0.00000000  0.63D-14  0.42D-14  6  4   149.13
  17      1.40583048    -1.17220836  -429.60579003    -0.00000000    -0.00000000  0.16D-14  0.72D-15  6  5   158.33
  18      1.40583048    -1.17220836  -429.60579003    -0.00000000    -0.00000000  0.21D-15  0.11D-15  6  6   167.52
  19      1.40583048    -1.17220836  -429.60579003    -0.00000000    -0.00000000  0.32D-16  0.23D-16  6  1   176.73
  20      1.40583049    -1.17220836  -429.60579003     0.00000000    -0.00000000  0.13D-16  0.30D-17  6  2   185.94
  21      1.40583049    -1.17220836  -429.60579003    -0.00000000    -0.00000000  0.15D-17  0.70D-18  6  3   195.15
  22      1.40583049    -1.17220836  -429.60579003    -0.00000000    -0.00000000  0.48D-18  0.15D-18  6  4   204.35
  23      1.40583049    -1.17220836  -429.60579003     0.00000000    -0.00000000  0.10D-18  0.27D-19  6  5   213.58
  24      1.40583049    -1.17220836  -429.60579003    -0.00000000    -0.00000000  0.14D-19  0.65D-20  6  6   222.79
  25      1.40583049    -1.17220836  -429.60579003    -0.00000000     0.00000000  0.44D-20  0.18D-20  6  1   231.98

 Norm of t1 vector:      0.10829404      S-energy:     0.00000000      T1 diagnostic:  0.01181585
                                                                       D1 diagnostic:  0.03167221

 Doubles amplitudes (print threshold =  0.500E-01):

         I         J         SYM. A    SYM. B    A         B      T(IJ, AB)

        20        20         1         1         1         1     -0.08681950
        21        20         1         1         1         2     -0.05130694
        21        21         1         1         2         2     -0.08401337


 Total CPU time for triples:    135.97 sec


 RESULTS
 =======

  Reference energy                   -428.433581661324
  CCSD singlet pair energy             -0.756720144486
  CCSD triplet pair energy             -0.415488219998
  CCSD correlation energy              -1.172208364483

  Triples (T) contribution             -0.043065959555
  Total correlation energy             -1.215274324039

  CCSD total energy                  -429.605790025807
  CCSD[T] energy                     -429.650856115284
  CCSD-T energy                      -429.648131574087
 !CCSD(T) total energy               -429.648855985362

 Timing summary (sec):

 STEP                 CPU(USER)    SYS     CPU(TOT)    WALL
 Transformation          2.13      0.26      2.39      2.39
 CCSD iterations       229.86      3.36    233.22    233.48
 Triples               135.97      2.38    138.35    138.38

 Program statistics:

 Available memory in ccsd:               999998136
 Min. memory needed in ccsd:               6063316
 Max. memory used in ccsd:                 8147482
 Max. memory used in cckext:               8418193 (25 integral passes)



 **********************************************************************************************************************************
 DATASETS  * FILE   NREC   LENGTH (MB)   RECORD NAMES
              1      20      385.44       500      610      700      900      950      970     1000      129      960     1100   
                                          VAR    BASINP    GEOM    SYMINP    ZMAT    AOBASIS   BASIS     P2S    ABASIS      S 
                                         1400     1410     1200     1210     1080     1600     1650     1300     1700     1380   
                                           T        V       H0       H01     AOSYM     SMH    MOLCAS    ERIS     OPER     JKOP   

              2       3        0.82       700     1000     2100   
                                         GEOM     BASIS     RHF  

 PROGRAMS   *        TOTAL   CCSD(T)       RHF       INT
 CPU TIMES  *       379.31    367.98      7.83      3.46
 REAL TIME  *       386.96 SEC
 DISK USED  *         1.05 GB      
 GA USED    *         0.00 MB       (max)       0.00 MB       (current)
 **********************************************************************************************************************************

        CCSD(T)         RHF-SCF 
   -429.64885599   -428.43358166
 **********************************************************************************************************************************
 Variable memory released
