
 Primary working directories    : /tmp/985636.1108.gen6.q
 Secondary working directories  : /tmp/985636.1108.gen6.q
 Wavefunction directory         : /home/vulcan/jj04645/wfu/
 Main file repository           : /tmp/985636.1108.gen6.q/

 ARCHNAME  : Linux/x86_64
 FC        : /opt/intel/compilers_and_libraries_2016.1.150/linux/bin/intel64/ifort
 FCVERSION : 16.0.1
 BLASLIB   : -mkl
 id        : ccgc

 Nodes     nprocs
 n085         1
 ga_uses_ma=false, calling ma_init with nominal heap.
 GA-space will be limited to   8.0 MW (determined by -G option)

 Using customized tuning parameters: mindgm=10; mindgv=16; mindgc=4; mindgr=1; noblas=0; mincuda=1000; minvec=7
 default implementation of scratch files=df  

 ***,Optimization of tetrahydrothiopyran
 memory,1000,m
 gthresh,energy=1.0d-12,orbital=1.0d-10,oneint=1.0d-16,twoint=1.0d-16,optgrad=1.0d-6,compress=1.0d-13
 geomtyp=xyz
 
 bohr
 geometry = {
  S    0.3539881101    2.6844495351    0.0000000000
  C   -0.3291741254   -3.3622902128   -0.0000000000
  C   -0.6651646652    0.6683666453   -2.5911864407
  C   -0.6651646652    0.6683666453    2.5911864407
  C    0.4710996066   -1.9810854049   -2.4159051955
  C    0.4710996066   -1.9810854049    2.4159051955
  H   -2.7314917404    0.5720417792   -2.5979804566
  H   -2.7314917404    0.5720417792    2.5979804566
  H   -0.0696724602    1.6253015576   -4.3184097886
  H   -0.0696724602    1.6253015576    4.3184097886
  H    2.5330210335   -1.8342178049   -2.4826410202
  H    2.5330210335   -1.8342178049    2.4826410202
  H   -0.1268013139   -3.0781060391   -4.0655853069
  H   -0.1268013139   -3.0781060391    4.0655853069
  H    0.4660199594   -5.2691745003    0.0000000000
  H   -2.3915498815   -3.5774077053   -0.0000000000
 }
 
 basis=VDZ
 {rhf;maxit,200}
 {ccsd(t);maxit,200}

 Variables initialized (661), CPU time= 0.01 sec
 Commands  initialized (458), CPU time= 0.00 sec, 486 directives.
 Default parameters read. Elapsed time= 0.05 sec

 Checking input...
 Passed
1


                                         ***  PROGRAM SYSTEM MOLPRO  ***
                         Copyright, University College Cardiff Consultants Limited, 2008

                                    Version 2010.1 linked May 16 2016 07:17:05


 **********************************************************************************************************************************
 LABEL *   Optimization of tetrahydrothiopyran                                           
 Linux-4.4.3/n085(x86_64) 64 bit mpp version                                             DATE: 26-Jan-24          TIME: 16:17:45  
 **********************************************************************************************************************************

 SHA1:             9e8077add272b0f3cad6f7df79ec5211205f459d
 **********************************************************************************************************************************

 THRESHOLDS:

 ZERO    =  1.00D-12  ONEINT  =  1.00D-16  TWOINT  =  1.00D-16  PREFAC  =  1.00D-14  LOCALI  =  1.00D-09  EORDER  =  1.00D-04
 ENERGY  =  1.00D-12  ETEST   =  0.00D+00  EDENS   =  0.00D+00  THRDEDEF=  1.00D-06  GRADIENT=  1.00D-02  STEP    =  1.00D-03
 ORBITAL =  1.00D-10  CIVEC   =  1.00D-05  COEFF   =  1.00D-04  PRINTCI =  5.00D-02  PUNCHCI =  9.90D+01  OPTGRAD =  1.00D-06
 OPTENERG=  1.00D-06  OPTSTEP =  3.00D-04  THRGRAD =  1.00D-10  COMPRESS=  1.00D-13  VARMIN  =  1.00D-07  VARMAX  =  1.00D-03
 THRDOUB =  0.00D+00  THRDIV  =  1.00D-05  THRRED  =  1.00D-07  THRPSP  =  1.00D+00  THRDC   =  1.00D-10  THRCS   =  1.00D-10
 THRNRM  =  1.00D-08  THREQ   =  0.00D+00  THRDE   =  1.00D+00  THRREF  =  1.00D-05  SPARFAC =  1.00D+00  THRDLP  =  1.00D-07
 THRDIA  =  1.00D-10  THRDLS  =  1.00D-07  THRGPS  =  0.00D+00  THRKEX  =  0.00D+00  THRDIS  =  2.00D-01  THRVAR  =  1.00D-10
 THRLOC  =  1.00D-06  THRGAP  =  1.00D-06  THRLOCT = -1.00D+00  THRGAPT = -1.00D+00  THRORB  =  1.00D-06  THRMLTP =  0.00D+00
 THRCPQCI=  1.00D-10  KEXTA   =  0.00D+00  THRCOARS=  0.00D+00  SYMTOL  =  1.00D-06  GRADTOL =  1.00D-06  THROVL  =  1.00D-08
 THRORTH =  1.00D-08  GRID    =  1.00D-06  GRIDMAX =  1.00D-03  DTMAX   =  0.00D+00

 SETTING GEOMTYP        =    XYZ
 ZUNIT=BOHR
 

 Variable memory set to 1000000000 words,  buffer space   230000 words

 SETTING BASIS          =    VDZ


 Recomputing integrals since basis changed


 Using spherical harmonics

 Library entry S      S cc-pVDZ              selected for orbital group  1
 Library entry S      P cc-pVDZ              selected for orbital group  1
 Library entry S      D cc-pVDZ              selected for orbital group  1
 Library entry C      S cc-pVDZ              selected for orbital group  2
 Library entry C      P cc-pVDZ              selected for orbital group  2
 Library entry C      D cc-pVDZ              selected for orbital group  2
 Library entry H      S cc-pVDZ              selected for orbital group  3
 Library entry H      P cc-pVDZ              selected for orbital group  3

1PROGRAM * SEWARD (Integral evaluation for generally contracted gaussian basis sets)     Author: Roland Lindh, 1990

 Geometry written to block  1 of record 700


 Point group  Cs  



 ATOMIC COORDINATES

 NR  ATOM    CHARGE       X              Y              Z

   1  S      16.00    0.353988110    2.684449535    0.000000000
   2  C       6.00   -0.329174125   -3.362290213    0.000000000
   3  C       6.00   -0.665164665    0.668366645   -2.591186441
   4  C       6.00   -0.665164665    0.668366645    2.591186441
   5  C       6.00    0.471099607   -1.981085405   -2.415905196
   6  C       6.00    0.471099607   -1.981085405    2.415905196
   7  H       1.00   -2.731491740    0.572041779   -2.597980457
   8  H       1.00   -2.731491740    0.572041779    2.597980457
   9  H       1.00   -0.069672460    1.625301558   -4.318409789
  10  H       1.00   -0.069672460    1.625301558    4.318409789
  11  H       1.00    2.533021033   -1.834217805   -2.482641020
  12  H       1.00    2.533021033   -1.834217805    2.482641020
  13  H       1.00   -0.126801314   -3.078106039   -4.065585307
  14  H       1.00   -0.126801314   -3.078106039    4.065585307
  15  H       1.00    0.466019959   -5.269174500    0.000000000
  16  H       1.00   -2.391549882   -3.577407705    0.000000000

 Bond lengths in Bohr (Angstrom)

  1- 3  3.437660508   1- 4  3.437660508   2- 5  2.895645469   2- 6  2.895645469   2-15  2.066044849
       ( 1.819131593)       ( 1.819131593)       ( 1.532309587)       ( 1.532309587)       ( 1.093303847)

  2-16  2.073564394   3- 5  2.888150996   3- 7  2.068582176   3- 9  2.062434456   4- 6  2.888150996
       ( 1.097283019)       ( 1.528343683)       ( 1.094646543)       ( 1.091393309)       ( 1.528343683)

  4- 8  2.068582176   4-10  2.062434456   5-11  2.068222361   5-13  2.069392242   6-12  2.068222361
       ( 1.094646543)       ( 1.091393309)       ( 1.094456136)       ( 1.095075211)       ( 1.094456136)

  6-14  2.069392242
       ( 1.095075211)

 Bond angles

  1-3-5  112.06242006   1-3-7  109.02185229   1-3-9  105.87515514   1-4-6  112.06242006

  1- 4- 8  109.02185229   1- 4-10  105.87515514   2- 5- 3  112.30119361   2- 5-11  109.65299899

  2- 5-13  109.41410676   2- 6- 4  112.30119361   2- 6-12  109.65299899   2- 6-14  109.41410676

  3- 1- 4   97.83506193   3- 5-11  108.97304454   3- 5-13  108.92036112   4- 6-12  108.97304454

  4- 6-14  108.92036112   5- 2- 6  113.09093350   5- 2-15  109.50420750   5- 2-16  108.92710117

  5- 3- 7  110.51643615   5- 3- 9  111.27642369   6- 2-15  109.50420750   6- 2-16  108.92710117

  6- 4- 8  110.51643615   6- 4-10  111.27642369   7- 3- 9  107.89496618   8- 4-10  107.89496618

 11- 5-13  107.45563498  12- 6-14  107.45563498  15- 2-16  106.68199175

 NUCLEAR CHARGE:                   56
 NUMBER OF PRIMITIVE AOS:         247
 NUMBER OF SYMMETRY AOS:          241
 NUMBER OF CONTRACTIONS:          138   (  79A'  +  59A"  )
 NUMBER OF CORE ORBITALS:          10   (   7A'  +   3A"  )
 NUMBER OF VALENCE ORBITALS:       34   (  20A'  +  14A"  )


 NUCLEAR REPULSION ENERGY  312.19164124


 Eigenvalues of metric

         1 0.305E-02 0.425E-02 0.636E-02 0.157E-01 0.197E-01 0.237E-01 0.284E-01 0.342E-01
         2 0.287E-02 0.702E-02 0.152E-01 0.197E-01 0.220E-01 0.344E-01 0.351E-01 0.358E-01


 Contracted 2-electron integrals neglected if value below      1.0D-16
 AO integral compression algorithm  1   Integral accuracy      1.0D-16

     207.094 MB (compressed) written to integral file ( 97.7%)

     Node minimum: 207.094 MB, node maximum: 207.094 MB


 NUMBER OF SORTED TWO-ELECTRON INTEGRALS:   23341315.     BUFFER LENGTH:  32768
 NUMBER OF SEGMENTS:   2  SEGMENT LENGTH:   15994315      RECORD LENGTH: 524288

 Memory used in sort:      16.55 MW

 SORT1 READ    26508670. AND WROTE    23262039. INTEGRALS IN     68 RECORDS. CPU TIME:     0.28 SEC, REAL TIME:     0.74 SEC
 SORT2 READ    23262039. AND WROTE    23341315. INTEGRALS IN    790 RECORDS. CPU TIME:     0.21 SEC, REAL TIME:     0.31 SEC

 FILE SIZES:   FILE 1:   188.0 MBYTE,  FILE 4:   285.2 MBYTE,   TOTAL:    473.2 MBYTE

 OPERATOR DM      FOR CENTER  0  COORDINATES:    0.000000    0.000000    0.000000


 **********************************************************************************************************************************
 DATASETS  * FILE   NREC   LENGTH (MB)   RECORD NAMES
              1      19      188.07       500      610      700      900      950      970     1000      129      960     1100   
                                          VAR    BASINP    GEOM    SYMINP    ZMAT    AOBASIS   BASIS     P2S    ABASIS      S 
                                         1400     1410     1200     1210     1080     1600     1650     1300     1700   
                                           T        V       H0       H01     AOSYM     SMH    MOLCAS    ERIS     OPER   

 PROGRAMS   *        TOTAL       INT
 CPU TIMES  *         2.99      2.95
 REAL TIME  *         3.84 SEC
 DISK USED  *       681.30 MB      
 GA USED    *         0.00 MB       (max)       0.00 MB       (current)
 **********************************************************************************************************************************

1PROGRAM * RHF-SCF (CLOSED SHELL)       Authors: W. Meyer, H.-J. Werner


 NUMBER OF ELECTRONS:      28+   28-
 CONVERGENCE THRESHOLDS:    1.00E-10 (Density)    1.00E-13 (Energy)
 MAX. NUMBER OF ITERATIONS:      200
 INTERPOLATION TYPE:            DIIS
 INTERPOLATION STEPS:              2 (START)      1 (STEP)
 LEVEL SHIFTS:                  0.00 (CLOSED)  0.00 (OPEN) 



 Orbital guess generated from atomic densities. Full valence occupancy:   27  17

 Molecular orbital dump at record        2100.2

 Initial alpha occupancy:  18  10
 Initial beta  occupancy:  18  10
 Wave function symmetry:    1

 ITERATION    DDIFF          GRAD             ENERGY        2-EL.EN.            DIPOLE MOMENTS         DIIS
    1      0.000D+00      0.000D+00      -592.64388619   1056.958670   -0.41217   -0.80612    0.00000    0
    2      0.000D+00      0.552D-02      -592.70494377   1054.370574   -0.20891   -0.73938    0.00000    1
    3      0.109D-01      0.185D-02      -592.71087952   1055.807355   -0.28324   -0.67761    0.00000    2
    4      0.375D-02      0.752D-03      -592.71188783   1055.188810   -0.25534   -0.71023    0.00000    3
    5      0.130D-02      0.108D-03      -592.71191341   1055.251674   -0.25151   -0.70185    0.00000    4
    6      0.252D-03      0.368D-04      -592.71191588   1055.220840   -0.25323   -0.70212    0.00000    5
    7      0.696D-04      0.859D-05      -592.71191608   1055.224066   -0.25256   -0.70200    0.00000    6
    8      0.228D-04      0.239D-05      -592.71191610   1055.223219   -0.25255   -0.70187    0.00000    7
    9      0.738D-05      0.625D-06      -592.71191610   1055.223099   -0.25254   -0.70182    0.00000    7
   10      0.174D-05      0.224D-06      -592.71191610   1055.223137   -0.25253   -0.70182    0.00000    7
   11      0.668D-06      0.477D-07      -592.71191610   1055.223123   -0.25253   -0.70182    0.00000    7
   12      0.159D-06      0.959D-08      -592.71191610   1055.223128   -0.25253   -0.70182    0.00000    7
   13      0.254D-07      0.399D-08      -592.71191610   1055.223125   -0.25253   -0.70182    0.00000    7
   14      0.879D-08      0.117D-08      -592.71191610   1055.223126   -0.25253   -0.70182    0.00000    7
   15      0.313D-08      0.380D-09      -592.71191610   1055.223126   -0.25253   -0.70182    0.00000    7
   16      0.904D-09      0.116D-09      -592.71191610   1055.223126   -0.25253   -0.70182    0.00000    8
   17      0.280D-09      0.248D-10      -592.71191610   1055.223126   -0.25253   -0.70182    0.00000    7
   18      0.656D-10      0.726D-11      -592.71191610   1055.223126   -0.25253   -0.70182    0.00000    7
   19      0.221D-10      0.233D-11      -592.71191610   1055.223126   -0.25253   -0.70182    0.00000    8
   20      0.638D-11      0.676D-12      -592.71191610   1055.223126   -0.25253   -0.70182    0.00000    7
   21      0.199D-11      0.229D-12      -592.71191610   1055.223126   -0.25253   -0.70182    0.00000    7
   22      0.785D-12      0.875D-13      -592.71191610   1055.223126   -0.25253   -0.70182    0.00000    8
   23      0.351D-12      0.475D-13      -592.71191610   1055.223126   -0.25253   -0.70182    0.00000    8
   24      0.186D-12      0.325D-13      -592.71191610   1055.223126   -0.25253   -0.70182    0.00000    0

 Final occupancy:  18  10

 !RHF STATE 1.1 Energy               -592.711916098149
 Nuclear energy                       312.19164124
 One-electron energy                -1432.51512039
 Two-electron energy                  527.61156305
 Virial quotient                       -1.00019523
 !RHF STATE 1.1 Dipole moment          -0.25252566    -0.70181757     0.00000000
 Dipole moment /Debye                  -0.64181417    -1.78372550     0.00000000

 Orbital energies:

         1.1          2.1          3.1          4.1          5.1          6.1          7.1          8.1          9.1         10.1
    -91.929375   -11.255156   -11.230986   -11.229175    -8.933308    -6.613771    -6.611576    -1.119550    -1.006186    -0.835638

        11.1         12.1         13.1         14.1         15.1         16.1         17.1         18.1         19.1         20.1
     -0.755735    -0.646630    -0.609617    -0.578491    -0.495401    -0.472727    -0.410827    -0.328421     0.176841     0.201254

         1.2          2.2          3.2          4.2          5.2          6.2          7.2          8.2          9.2         10.2
    -11.255170   -11.230898    -6.615208    -1.020241    -0.842574    -0.614766    -0.547426    -0.523743    -0.498216    -0.435186

        11.2         12.2
      0.190759     0.223497


 **********************************************************************************************************************************
 DATASETS  * FILE   NREC   LENGTH (MB)   RECORD NAMES
              1      19      188.07       500      610      700      900      950      970     1000      129      960     1100   
                                          VAR    BASINP    GEOM    SYMINP    ZMAT    AOBASIS   BASIS     P2S    ABASIS      S 
                                         1400     1410     1200     1210     1080     1600     1650     1300     1700   
                                           T        V       H0       H01     AOSYM     SMH    MOLCAS    ERIS     OPER   

              2       3        0.73       700     1000     2100   
                                         GEOM     BASIS     RHF  

 PROGRAMS   *        TOTAL       RHF       INT
 CPU TIMES  *         5.21      2.22      2.95
 REAL TIME  *         6.53 SEC
 DISK USED  *       681.30 MB      
 GA USED    *         0.00 MB       (max)       0.00 MB       (current)
 **********************************************************************************************************************************


1PROGRAM * CCSD (Closed-shell coupled cluster)     Authors: C. Hampel, H.-J. Werner, 1991, M. Deegan, P.J. Knowles, 1992


 Convergence thresholds:  THRVAR = 1.00D-08  THRDEN = 1.00D-12

 CCSD(T)     terms to be evaluated (factor= 1.000)


 Number of core orbitals:          10 (   7   3 )
 Number of closed-shell orbitals:  18 (  11   7 )
 Number of external orbitals:     110 (  61  49 )

 Molecular orbitals read from record     2100.2  Type=RHF/CANONICAL (state 1.1)

 Number of N-1 electron functions:              18
 Number of N-2 electron functions:             171
 Number of singly external CSFs:              1014
 Number of doubly external CSFs:            981666
 Total number of CSFs:                      982681

 Length of J-op  integral file:               0.00 MB
 Length of K-op  integral file:               0.70 MB
 Length of 3-ext integral record:             0.00 MB

 Memory could be reduced to 16.31 Mwords without degradation in triples

 Integral transformation finished. Total CPU:   0.74 sec, npass=  1  Memory used:  10.63 MW

 Reference energy:                   -592.71191610

 MP2 singlet pair energy:              -0.53941956
 MP2 triplet pair energy:              -0.30432838
 MP2 correlation energy:               -0.84374793
 MP2 total energy:                   -593.55566403

 SCS-MP2 correlation energy:           -0.83666335   (PS=  1.200000  PT=  0.333333)
 SCS-MP2 total energy:               -593.54857945

 ITER.      SQ.NORM     CORR.ENERGY   TOTAL ENERGY   ENERGY CHANGE        DEN1      VAR(S)    VAR(P)  DIIS     TIME
   1      1.33967627    -0.91073650  -593.62265260    -0.06698857    -0.04303385  0.26D-02  0.55D-02  1  1     2.29
   2      1.36666966    -0.91608492  -593.62800102    -0.00534842    -0.02577556  0.69D-04  0.46D-03  2  2     3.90
   3      1.37200051    -0.91621271  -593.62812881    -0.00012779    -0.00303656  0.16D-04  0.28D-04  3  3     5.51
   4      1.37349254    -0.91627073  -593.62818683    -0.00005802    -0.00059359  0.76D-06  0.20D-05  4  4     7.12
   5      1.37373294    -0.91627735  -593.62819345    -0.00000662    -0.00007083  0.17D-06  0.16D-06  5  5     8.74
   6      1.37377850    -0.91627291  -593.62818900     0.00000444    -0.00001392  0.30D-07  0.14D-07  6  6    10.35
   7      1.37378606    -0.91627279  -593.62818889     0.00000011     0.00000064  0.53D-08  0.23D-08  6  2    11.96
   8      1.37379214    -0.91627248  -593.62818858     0.00000031    -0.00000125  0.73D-09  0.27D-09  6  1    13.56
   9      1.37379296    -0.91627242  -593.62818852     0.00000006     0.00000051  0.65D-10  0.44D-10  6  4    15.17
  10      1.37379384    -0.91627238  -593.62818848     0.00000003    -0.00000011  0.47D-11  0.35D-11  6  3    16.80
  11      1.37379385    -0.91627239  -593.62818848    -0.00000000     0.00000004  0.12D-11  0.54D-12  6  5    18.42
  12      1.37379382    -0.91627239  -593.62818849    -0.00000000     0.00000002  0.17D-12  0.77D-13  6  6    20.02
  13      1.37379376    -0.91627239  -593.62818849    -0.00000000     0.00000002  0.25D-13  0.11D-13  6  1    21.64
  14      1.37379375    -0.91627239  -593.62818849    -0.00000000     0.00000000  0.32D-14  0.12D-14  6  2    23.26
  15      1.37379375    -0.91627239  -593.62818849     0.00000000    -0.00000000  0.70D-15  0.32D-15  6  4    24.86
  16      1.37379376    -0.91627239  -593.62818849     0.00000000    -0.00000000  0.34D-16  0.24D-16  6  5    26.47
  17      1.37379376    -0.91627239  -593.62818849     0.00000000    -0.00000000  0.61D-17  0.26D-17  6  3    28.09
  18      1.37379376    -0.91627239  -593.62818849     0.00000000    -0.00000000  0.20D-17  0.53D-18  6  6    29.72
  19      1.37379376    -0.91627239  -593.62818849     0.00000000    -0.00000000  0.40D-18  0.12D-18  6  1    31.34
  20      1.37379376    -0.91627239  -593.62818849     0.00000000     0.00000000  0.49D-19  0.18D-19  6  2    32.97
  21      1.37379376    -0.91627239  -593.62818849    -0.00000000     0.00000000  0.88D-20  0.37D-20  6  4    34.58

 Norm of t1 vector:      0.07013647      S-energy:    -0.00000000      T1 diagnostic:  0.00826566
                                                                       D1 diagnostic:  0.02110774


 Total CPU time for triples:     29.98 sec


 RESULTS
 =======

  Reference energy                   -592.711916098149
  CCSD singlet pair energy             -0.634174241339
  CCSD triplet pair energy             -0.282098148105
  CCSD correlation energy              -0.916272389444

  Triples (T) contribution             -0.029861618946
  Total correlation energy             -0.946134008391

  CCSD total energy                  -593.628188487593
  CCSD[T] energy                     -593.658669390883
  CCSD-T energy                      -593.657738871102
 !CCSD(T) total energy               -593.658050106539

 Timing summary (sec):

 STEP                 CPU(USER)    SYS     CPU(TOT)    WALL
 Transformation          0.77      0.11      0.88      0.89
 CCSD iterations        33.81      1.27     35.08     35.40
 Triples                29.98      0.96     30.94     30.95

 Program statistics:

 Available memory in ccsd:               999998604
 Min. memory needed in ccsd:               2548392
 Max. memory used in ccsd:                 3412984
 Max. memory used in cckext:               3730705 (21 integral passes)



 **********************************************************************************************************************************
 DATASETS  * FILE   NREC   LENGTH (MB)   RECORD NAMES
              1      20      256.24       500      610      700      900      950      970     1000      129      960     1100   
                                          VAR    BASINP    GEOM    SYMINP    ZMAT    AOBASIS   BASIS     P2S    ABASIS      S 
                                         1400     1410     1200     1210     1080     1600     1650     1300     1700     1380   
                                           T        V       H0       H01     AOSYM     SMH    MOLCAS    ERIS     OPER     JKOP   

              2       3        0.73       700     1000     2100   
                                         GEOM     BASIS     RHF  

 PROGRAMS   *        TOTAL   CCSD(T)       RHF       INT
 CPU TIMES  *        69.78     64.57      2.22      2.95
 REAL TIME  *        73.81 SEC
 DISK USED  *       681.30 MB      
 GA USED    *         0.00 MB       (max)       0.00 MB       (current)
 **********************************************************************************************************************************

        CCSD(T)         RHF-SCF 
   -593.65805011   -592.71191610
 **********************************************************************************************************************************
 Variable memory released
