
    -----------------------------------------------------------------------
          Psi4: An Open-Source Ab Initio Electronic Structure Package
                               Psi4 1.4a2.dev629 

                         Git: Rev {master} 2938fc2 dirty


    D. G. A. Smith, L. A. Burns, A. C. Simmonett, R. M. Parrish,
    M. C. Schieber, R. Galvelis, P. Kraus, H. Kruse, R. Di Remigio,
    A. Alenaizan, A. M. James, S. Lehtola, J. P. Misiewicz, M. Scheurer,
    R. A. Shaw, J. B. Schriber, Y. Xie, Z. L. Glick, D. A. Sirianni,
    J. S. O'Brien, J. M. Waldrop, A. Kumar, E. G. Hohenstein,
    B. P. Pritchard, B. R. Brooks, H. F. Schaefer III, A. Yu. Sokolov,
    K. Patkowski, A. E. DePrince III, U. Bozkaya, R. A. King,
    F. A. Evangelista, J. M. Turney, T. D. Crawford, C. D. Sherrill,
    J. Chem. Phys. 152(18) 184108 (2020). https://doi.org/10.1063/5.0006002

                            Additional Code Authors
    E. T. Seidl, C. L. Janssen, E. F. Valeev, M. L. Leininger,
    J. F. Gonthier, R. M. Richard, H. R. McAlexander, M. Saitow, X. Wang,
    P. Verma, and M. H. Lechner

             Previous Authors, Complete List of Code Contributors,
                       and Citations for Specific Modules
    https://github.com/psi4/psi4/blob/master/codemeta.json
    https://github.com/psi4/psi4/graphs/contributors
    http://psicode.org/psi4manual/master/introduction.html#citing-psifour

    -----------------------------------------------------------------------


    Psi4 started on: Thursday, 04 November 2021 02:50PM

    Process ID: 15291
    Host:       n090
    PSIDATADIR: /opt/psi/4/master/share/psi4
    Memory:     500.0 MiB
    Threads:    1
    
  ==> Input File <==

--------------------------------------------------------------------------
import os
memory 14 GB 
 
molecule {
 C   -0.2599226275    0.8048041933   -0.0004683488
 O   -2.1906566540   -0.3367278071    0.0000964385
 C    2.4097457445   -0.2442864940   -0.0015378395
 H    2.3868981004   -2.3045072306   -0.0043265238
 H    3.3881575007    0.4715521473   -1.6608318927
 H    3.3923758859    0.4792998112    1.6670679863
units bohr
0 2
}

basis {

assign 6-31g_2dfp_

[ 6-31g_2dfp_ ]

spherical

!----------------------------------------------------------------------
! Basis Set Exchange
! Version v0.8.13
! https://www.basissetexchange.org
!----------------------------------------------------------------------
!   Basis set: 6-31G(2df,p)
! Description: 6-31G(2df,p)
!        Role: orbital
!     Version: 0  (Data from the original Basis Set Exchange)
!----------------------------------------------------------------------


****
H     0
S    3   1.00
     18.7311370              0.03349460
      2.8253937              0.23472695
      0.6401217              0.81375733
S    1   1.00
      0.1612778              1.00000000
P    1   1.00
      1.5000000              1.0000000
P    1   1.00
      0.3750000              1.0000000
****
B     0
S    6   1.00
   2068.8823000              0.0018663
    310.6495700              0.0142515
     70.6830330              0.0695516
     19.8610800              0.2325729
      6.2993048              0.4670787
      2.1270270              0.3634314
SP   3   1.00
      4.7279710             -0.1303938              0.0745976
      1.1903377             -0.1307889              0.3078467
      0.3594117              1.1309444              0.7434568
SP   1   1.00
      0.1267512              1.0000000              1.0000000
D    1   1.00
      0.8020000              1.0000000
D    1   1.00
      0.2005000              1.0000000
F    1   1.00
      0.5000000              1.0000000
****
C     0
S    6   1.00
   3047.5249000              0.0018347
    457.3695100              0.0140373
    103.9486900              0.0688426
     29.2101550              0.2321844
      9.2866630              0.4679413
      3.1639270              0.3623120
SP   3   1.00
      7.8682724             -0.1193324              0.0689991
      1.8812885             -0.1608542              0.3164240
      0.5442493              1.1434564              0.7443083
SP   1   1.00
      0.1687144              1.0000000              1.0000000
D    1   1.00
      1.2520000              1.0000000
D    1   1.00
      0.3130000              1.0000000
F    1   1.00
      0.8000000              1.0000000
****
N     0
S    6   1.00
   4173.5110000              0.0018348
    627.4579000              0.0139950
    142.9021000              0.0685870
     40.2343300              0.2322410
     12.8202100              0.4690700
      4.3904370              0.3604550
SP   3   1.00
     11.6263580             -0.1149610              0.0675800
      2.7162800             -0.1691180              0.3239070
      0.7722180              1.1458520              0.7408950
SP   1   1.00
      0.2120313              1.0000000              1.0000000
D    1   1.00
      1.8260000              1.0000000
D    1   1.00
      0.4565000              1.0000000
F    1   1.00
      1.0000000              1.0000000
****
O     0
S    6   1.00
   5484.6717000              0.0018311
    825.2349500              0.0139501
    188.0469600              0.0684451
     52.9645000              0.2327143
     16.8975700              0.4701930
      5.7996353              0.3585209
SP   3   1.00
     15.5396160             -0.1107775              0.0708743
      3.5999336             -0.1480263              0.3397528
      1.0137618              1.1307670              0.7271586
SP   1   1.00
      0.2700058              1.0000000              1.0000000
D    1   1.00
      2.5840000              1.0000000
D    1   1.00
      0.6460000              1.0000000
F    1   1.00
      1.4000000              1.0000000
****
F     0
S    6   1.00
   7001.7130900              0.0018196169
   1051.3660900              0.0139160796
    239.2856900              0.0684053245
     67.3974453              0.233185760
     21.5199573              0.471267439
      7.40310130             0.356618546
SP   3   1.00
     20.8479528             -0.108506975            0.0716287243
      4.80830834            -0.146451658            0.3459121030
      1.34406986             1.128688580            0.7224699570
SP   1   1.00
      0.358151393            1.0000000              1.0000000
D    1   1.00
      3.5000000              1.0000000
D    1   1.00
      0.8750000              1.0000000
F    1   1.00
      1.8500000              1.0000000
****
Al     0
S    6   1.00
  13983.1000000              0.00194267
   2098.7500000              0.0148599
    477.7050000              0.0728494
    134.3600000              0.2468300
     42.8709000              0.4872580
     14.5189000              0.3234960
SP   6   1.00
    239.6680000             -0.00292619             0.00460285
     57.4419000             -0.0374080              0.0331990
     18.2859000             -0.1144870              0.1362820
      6.5991400              0.1156350              0.3304760
      2.4904900              0.6125950              0.4491460
      0.9445400              0.3937990              0.2657040
SP   3   1.00
      1.2779000             -0.2276060             -0.0175130
      0.3975900              0.00144583             0.2445330
      0.1600950              1.0927900              0.8049340
SP   1   1.00
      0.0556577              1.0000000              1.0000000
D    1   1.00
      0.6500000              1.0000000
D    1   1.00
      0.1625000              1.0000000
F    1   1.00
      0.2500000              1.0000000
****
Si     0
S    6   1.00
  16115.9000000              0.00195948
   2425.5800000              0.01492880
    553.8670000              0.07284780
    156.3400000              0.24613000
     50.0683000              0.48591400
     17.0178000              0.32500200
SP   6   1.00
    292.7180000             -0.00278094             0.00443826
     69.8731000             -0.03571460             0.03266790
     22.3363000             -0.11498500             0.13472100
      8.1503900              0.09356340             0.32867800
      3.1345800              0.60301700             0.44964000
      1.2254300              0.41895900             0.26137200
SP   3   1.00
      1.7273800             -0.24463000            -0.01779510
      0.5729220              0.00431572             0.25353900
      0.2221920              1.09818000             0.80066900
SP   1   1.00
      0.0778369              1.00000000             1.00000000
D    1   1.00
      0.9000000              1.0000000
D    1   1.00
      0.2250000              1.0000000
F    1   1.00
      0.3200000              1.0000000
****
P     0
S    6   1.00
  19413.3000000              0.0018516
   2909.4200000              0.0142062
    661.3640000              0.0699995
    185.7590000              0.2400790
     59.1943000              0.4847620
     20.0310000              0.3352000
SP   6   1.00
    339.4780000             -0.00278217             0.00456462
     81.0101000             -0.0360499              0.03369360
     25.8780000             -0.1166310              0.13975500
      9.4522100              0.0968328              0.33936200
      3.6656600              0.6144180              0.45092100
      1.4674600              0.4037980              0.23858600
SP   3   1.00
      2.1562300             -0.2529230             -0.01776530
      0.7489970              0.0328517              0.27405800
      0.2831450              1.0812500              0.78542100
SP   1   1.00
      0.0998317              1.0000000              1.00000000
D    1   1.00
      1.1000000              1.0000000
D    1   1.00
      0.2750000              1.0000000
F    1   1.00
      0.4500000              1.0000000
****
S     0
S    6   1.00
  21917.1000000              0.0018690
   3301.4900000              0.0142300
    754.1460000              0.0696960
    212.7110000              0.2384870
     67.9896000              0.4833070
     23.0515000              0.3380740
SP   6   1.00
    423.7350000             -0.0023767              0.0040610
    100.7100000             -0.0316930              0.0306810
     32.1599000             -0.1133170              0.1304520
     11.8079000              0.0560900              0.3272050
      4.6311000              0.5922550              0.4528510
      1.8702500              0.4550060              0.2560420
SP   3   1.00
      2.6158400             -0.2503740             -0.0145110
      0.9221670              0.0669570              0.3102630
      0.3412870              1.0545100              0.7544830
SP   1   1.00
      0.1171670              1.0000000              1.0000000
D    1   1.00
      1.3000000              1.0000000
D    1   1.00
      0.3250000              1.0000000
F    1   1.00
      0.5500000              1.0000000
****
Cl     0
S    6   1.00
  25180.1000000              0.0018330
   3780.3500000              0.0140340
    860.4740000              0.0690970
    242.1450000              0.2374520
     77.3349000              0.4830340
     26.2470000              0.3398560
SP   6   1.00
    491.7650000             -0.0022974              0.0039894
    116.9840000             -0.0307140              0.0303180
     37.4153000             -0.1125280              0.1298800
     13.7834000              0.0450160              0.3279510
      5.4521500              0.5893530              0.4535270
      2.2258800              0.4652060              0.2521540
SP   3   1.00
      3.1864900             -0.2518300             -0.0142990
      1.1442700              0.0615890              0.3235720
      0.4203770              1.0601800              0.7435070
SP   1   1.00
      0.1426570              1.0000000              1.0000000
D    1   1.00
      1.5000000              1.0000000
D    1   1.00
      0.3750000              1.0000000
F    1   1.00
      0.7000000              1.0000000
****
}


set {
reference uhf                          
freeze_core true
e_convergence 10                       
d_convergence 10                      
dft_spherical_points 1202
dft_radial_points 99
}

e = energy('b3lyp')

print_out('Grab this energy {0}'.format(e))
--------------------------------------------------------------------------

  Memory set to  13.039 GiB by Python driver.

Scratch directory: /tmp/

*** tstart() called on n090
*** at Thu Nov  4 14:50:02 2021

   => Loading Basis Set <=

    Name: ANONYMOUS742418CB
    Role: ORBITAL
    Keyword: BASIS
    atoms 1, 3 entry C          line    48 inputblock 6-31g_2dfp_ 
    atoms 2    entry O          line    90 inputblock 6-31g_2dfp_ 
    atoms 4-6  entry H          line    15 inputblock 6-31g_2dfp_ 


         ---------------------------------------------------------
                                   SCF
               by Justin Turney, Rob Parrish, Andy Simmonett
                          and Daniel G. A. Smith
                              UKS Reference
                        1 Threads,  13351 MiB Core
         ---------------------------------------------------------

  ==> Geometry <==

    Molecular point group: c1
    Full point group: C1

    Geometry (in Bohr), charge = 0, multiplicity = 2:

       Center              X                  Y                   Z               Mass       
    ------------   -----------------  -----------------  -----------------  -----------------
         C           -0.259868655148     0.805361345750     0.000010684049    12.000000000000
         O           -2.190602681648    -0.336170654650     0.000575471349    15.994914619570
         C            2.409799716852    -0.243729341550    -0.001058806651    12.000000000000
         H            2.386952072752    -2.303950078150    -0.003847490951     1.007825032230
         H            3.388211473052     0.472109299750    -1.660352859851     1.007825032230
         H            3.392429858252     0.479856963650     1.667547019149     1.007825032230

  Running in c1 symmetry.

  Rotational constants: A =      2.77534  B =      0.33124  C =      0.31310 [cm^-1]
  Rotational constants: A =  83202.46053  B =   9930.19254  C =   9386.38591 [MHz]
  Nuclear repulsion =   62.784536668765810

  Charge       = 0
  Multiplicity = 2
  Electrons    = 23
  Nalpha       = 12
  Nbeta        = 11

  ==> Algorithm <==

  SCF Algorithm Type is DF.
  DIIS enabled.
  MOM disabled.
  Fractional occupation disabled.
  Guess Type is SAD.
  Energy threshold   = 1.00e-10
  Density threshold  = 1.00e-10
  Integral threshold = 0.00e+00

  ==> Primary Basis <==

  Basis Set: ANONYMOUS742418CB
    Blend: 6-31G_2DFP_
    Number of shells: 36
    Number of basis function: 102
    Number of Cartesian functions: 117
    Spherical Harmonics?: true
    Max angular momentum: 3

  ==> DFT Potential <==

   => Composite Functional: B3LYP <= 

    B3LYP Hyb-GGA Exchange-Correlation Functional

    P. J. Stephens, F. J. Devlin, C. F. Chabalowski, and M. J. Frisch, J. Phys. Chem. 98, 11623 (1994)

    Deriv               =              1
    GGA                 =           TRUE
    Meta                =          FALSE

    Exchange Hybrid     =           TRUE
    MP2 Hybrid          =          FALSE

   => Exchange Functionals <=

    0.0800   Slater exchange
    0.7200         Becke 88

   => Exact (HF) Exchange <=

    0.2000               HF 

   => Correlation Functionals <=

    0.1900   Vosko, Wilk & Nusair (VWN5_RPA)
    0.8100   Lee, Yang & Parr

   => Molecular Quadrature <=

    Radial Scheme          =       TREUTLER
    Pruning Scheme         =           NONE
    Nuclear Scheme         =       TREUTLER

    BS radius alpha        =              1
    Pruning alpha          =              1
    Radial Points          =             99
    Spherical Points       =           1202
    Total Points           =         674052
    Total Blocks           =           4717
    Max Points             =            256
    Max Functions          =            102
    Weights Tolerance      =       1.00E-15

   => Loading Basis Set <=

    Name: (ANONYMOUS742418CB AUX)
    Role: JKFIT
    Keyword: DF_BASIS_SCF
    atoms 1, 3 entry C          line   198 file /opt/psi/4/master/share/psi4/basis/def2-universal-jkfit.gbs 
    atoms 2    entry O          line   318 file /opt/psi/4/master/share/psi4/basis/def2-universal-jkfit.gbs 
    atoms 4-6  entry H          line    18 file /opt/psi/4/master/share/psi4/basis/def2-universal-jkfit.gbs 

  ==> Integral Setup <==

  DFHelper Memory: AOs need 0.024 GiB; user supplied 8.089 GiB. Using in-core AOs.

  ==> MemDFJK: Density-Fitted J/K Matrices <==

    J tasked:                   Yes
    K tasked:                   Yes
    wK tasked:                   No
    OpenMP threads:               1
    Memory [MiB]:              8283
    Algorithm:                 Core
    Schwarz Cutoff:           1E-12
    Mask sparsity (%):       0.6920
    Fitting Condition:        1E-10

   => Auxiliary Basis Set <=

  Basis Set: (ANONYMOUS742418CB AUX)
    Blend: DEF2-UNIVERSAL-JKFIT
    Number of shells: 93
    Number of basis function: 281
    Number of Cartesian functions: 331
    Spherical Harmonics?: true
    Max angular momentum: 4

  Cached 100.0% of DFT collocation blocks in 1.690 [GiB].

  Minimum eigenvalue in the overlap matrix is 1.9079499278E-03.
  Reciprocal condition number of the overlap matrix is 3.6170114916E-04.
    Using symmetric orthogonalization.

  ==> Pre-Iterations <==

  SCF Guess: Superposition of Atomic Densities via on-the-fly atomic UHF (no occupation information).

   -------------------------
    Irrep   Nso     Nmo    
   -------------------------
     A        102     102 
   -------------------------
    Total     102     102
   -------------------------

  ==> Iterations <==

                           Total Energy        Delta E     RMS |[F,P]|

   @DF-UKS iter SAD:  -152.61760211503739   -1.52618e+02   0.00000e+00 
   @DF-UKS iter   1:  -153.01803763936343   -4.00436e-01   5.97550e-03 DIIS
   @DF-UKS iter   2:  -152.86294677148615    1.55091e-01   8.55675e-03 DIIS
   @DF-UKS iter   3:  -153.15513255903144   -2.92186e-01   2.71677e-03 DIIS
   @DF-UKS iter   4:  -153.18797403739404   -3.28415e-02   2.99505e-04 DIIS
   @DF-UKS iter   5:  -153.18834655517750   -3.72518e-04   1.15364e-04 DIIS
   @DF-UKS iter   6:  -153.18841565342697   -6.90982e-05   2.14501e-05 DIIS
   @DF-UKS iter   7:  -153.18841796147461   -2.30805e-06   4.37299e-06 DIIS
   @DF-UKS iter   8:  -153.18841807663435   -1.15160e-07   9.65711e-07 DIIS
   @DF-UKS iter   9:  -153.18841808464219   -8.00785e-09   2.70263e-07 DIIS
   @DF-UKS iter  10:  -153.18841808581809   -1.17589e-09   1.27507e-07 DIIS
   @DF-UKS iter  11:  -153.18841808602539   -2.07308e-10   3.66814e-08 DIIS
   @DF-UKS iter  12:  -153.18841808605626   -3.08660e-11   1.31689e-08 DIIS
   @DF-UKS iter  13:  -153.18841808606061   -4.34852e-12   3.83303e-09 DIIS
   @DF-UKS iter  14:  -153.18841808606106   -4.54747e-13   9.23778e-10 DIIS
   @DF-UKS iter  15:  -153.18841808606106    0.00000e+00   3.57766e-10 DIIS
   @DF-UKS iter  16:  -153.18841808606112   -5.68434e-14   5.88460e-11 DIIS
  Energy and wave function converged.


  ==> Post-Iterations <==

   @Spin Contamination Metric:   2.641167545E-03
   @S^2 Expected:                7.500000000E-01
   @S^2 Observed:                7.526411675E-01
   @S   Expected:                5.000000000E-01
   @S   Observed:                5.000000000E-01

    Orbital Energies [Eh]
    ---------------------

    Alpha Occupied:                                                       

       1A    -19.186892     2A    -10.271622     3A    -10.210389  
       4A     -1.081152     5A     -0.761943     6A     -0.543929  
       7A     -0.466617     8A     -0.457538     9A     -0.455999  
      10A     -0.387336    11A     -0.386125    12A     -0.192304  

    Alpha Virtual:                                                        

      13A     -0.018894    14A      0.091686    15A      0.137281  
      16A      0.140985    17A      0.217687    18A      0.268150  
      19A      0.427898    20A      0.431961    21A      0.443560  
      22A      0.493655    23A      0.506284    24A      0.530511  
      25A      0.562826    26A      0.577600    27A      0.608326  
      28A      0.615609    29A      0.644213    30A      0.717620  
      31A      0.766194    32A      0.785318    33A      0.832256  
      34A      0.917356    35A      0.926940    36A      0.935785  
      37A      1.023273    38A      1.085666    39A      1.107903  
      40A      1.152819    41A      1.220458    42A      1.306531  
      43A      1.315918    44A      1.327830    45A      1.404278  
      46A      1.407777    47A      1.467999    48A      1.560495  
      49A      1.630330    50A      1.653762    51A      1.720471  
      52A      1.812588    53A      1.834577    54A      1.902025  
      55A      2.065103    56A      2.165795    57A      2.495227  
      58A      2.679753    59A      2.743843    60A      2.784032  
      61A      2.842411    62A      2.894127    63A      2.973129  
      64A      3.032242    65A      3.058826    66A      3.105388  
      67A      3.114270    68A      3.182689    69A      3.314194  
      70A      3.369508    71A      3.393286    72A      3.440447  
      73A      3.465133    74A      3.485708    75A      3.570904  
      76A      3.739034    77A      3.762079    78A      3.941805  
      79A      3.983187    80A      4.055061    81A      4.110656  
      82A      4.119503    83A      4.188607    84A      4.386223  
      85A      4.434550    86A      4.450565    87A      4.533197  
      88A      4.919388    89A      5.036991    90A      5.042181  
      91A      5.195870    92A      5.209957    93A      5.473305  
      94A      5.481909    95A      5.826625    96A      5.930009  
      97A      6.103700    98A      6.770619    99A      6.772735  
     100A      7.070899   101A      7.135174   102A      7.529682  

    Beta Occupied:                                                        

       1A    -19.178817     2A    -10.261565     3A    -10.207006  
       4A     -1.065209     5A     -0.750145     6A     -0.524190  
       7A     -0.451477     8A     -0.447279     9A     -0.438739  
      10A     -0.382158    11A     -0.347826  

    Beta Virtual:                                                         

      12A     -0.052828    13A     -0.002617    14A      0.094375  
      15A      0.142939    16A      0.144134    17A      0.228126  
      18A      0.273847    19A      0.433845    20A      0.435182  
      21A      0.465592    22A      0.500339    23A      0.527676  
      24A      0.539417    25A      0.569159    26A      0.581813  
      27A      0.622829    28A      0.626946    29A      0.649883  
      30A      0.739536    31A      0.777330    32A      0.795312  
      33A      0.833023    34A      0.922205    35A      0.943417  
      36A      0.951009    37A      1.027470    38A      1.091797  
      39A      1.109949    40A      1.159034    41A      1.229713  
      42A      1.312174    43A      1.318712    44A      1.334608  
      45A      1.413191    46A      1.414821    47A      1.480362  
      48A      1.571534    49A      1.643642    50A      1.668166  
      51A      1.726726    52A      1.815767    53A      1.848644  
      54A      1.908696    55A      2.071832    56A      2.187210  
      57A      2.507903    58A      2.694044    59A      2.758280  
      60A      2.805164    61A      2.857751    62A      2.895753  
      63A      2.982645    64A      3.048918    65A      3.067433  
      66A      3.122302    67A      3.124363    68A      3.217386  
      69A      3.357833    70A      3.381022    71A      3.399613  
      72A      3.448489    73A      3.481059    74A      3.508614  
      75A      3.584285    76A      3.764743    77A      3.771529  
      78A      3.950475    79A      3.992476    80A      4.071480  
      81A      4.122113    82A      4.125404    83A      4.200389  
      84A      4.388516    85A      4.440706    86A      4.454730  
      87A      4.544085    88A      4.923236    89A      5.054527  
      90A      5.060216    91A      5.198434    92A      5.215295  
      93A      5.485958    94A      5.495811    95A      5.839877  
      96A      5.935600    97A      6.126914    98A      6.799943  
      99A      6.802401   100A      7.075204   101A      7.164582  
     102A      7.541358  

    Final Occupation by Irrep:
              A 
    DOCC [    11 ]
    SOCC [     1 ]

  @DF-UKS Final Energy:  -153.18841808606112

   => Energetics <=

    Nuclear Repulsion Energy =             62.7845366687658100
    One-Electron Energy =                -331.5696155759428052
    Two-Electron Energy =                 132.1769795402084071
    DFT Exchange-Correlation Energy =     -16.5803187190925456
    Empirical Dispersion Energy =           0.0000000000000000
    VV10 Nonlocal Energy =                  0.0000000000000000
    Total Energy =                       -153.1884180860611195

  UHF NO Occupations:
  HONO-2 :   10  A 1.9997842
  HONO-1 :   11  A 1.9992008
  HONO-0 :   12  A 1.0000000
  LUNO+0 :   13  A 0.0007992
  LUNO+1 :   14  A 0.0002158
  LUNO+2 :   15  A 0.0001796
  LUNO+3 :   16  A 0.0000617


Computation Completed


Properties will be evaluated at   0.000000,   0.000000,   0.000000 [a0]

Properties computed using the SCF density matrix

  Nuclear Dipole Moment: [e a0]
     X:     4.5424      Y:    -0.6716      Z:     0.0017

  Electronic Dipole Moment: [e a0]
     X:    -3.6108      Y:     0.6223      Z:    -0.0026

  Dipole Moment: [e a0]
     X:     0.9316      Y:    -0.0492      Z:    -0.0010     Total:     0.9329

  Dipole Moment: [D]
     X:     2.3678      Y:    -0.1251      Z:    -0.0025     Total:     2.3711


*** tstop() called on n090 at Thu Nov  4 14:50:47 2021
Module time:
	user time   =      44.26 seconds =       0.74 minutes
	system time =       0.49 seconds =       0.01 minutes
	total time  =         45 seconds =       0.75 minutes
Total time:
	user time   =      44.26 seconds =       0.74 minutes
	system time =       0.49 seconds =       0.01 minutes
	total time  =         45 seconds =       0.75 minutes
Grab this energy -153.18841808606112
    Psi4 stopped on: Thursday, 04 November 2021 02:50PM
    Psi4 wall time for execution: 0:00:44.78

*** Psi4 exiting successfully. Buy a developer a beer!
