
    -----------------------------------------------------------------------
          Psi4: An Open-Source Ab Initio Electronic Structure Package
                               Psi4 1.4a2.dev629 

                         Git: Rev {master} 2938fc2 dirty


    D. G. A. Smith, L. A. Burns, A. C. Simmonett, R. M. Parrish,
    M. C. Schieber, R. Galvelis, P. Kraus, H. Kruse, R. Di Remigio,
    A. Alenaizan, A. M. James, S. Lehtola, J. P. Misiewicz, M. Scheurer,
    R. A. Shaw, J. B. Schriber, Y. Xie, Z. L. Glick, D. A. Sirianni,
    J. S. O'Brien, J. M. Waldrop, A. Kumar, E. G. Hohenstein,
    B. P. Pritchard, B. R. Brooks, H. F. Schaefer III, A. Yu. Sokolov,
    K. Patkowski, A. E. DePrince III, U. Bozkaya, R. A. King,
    F. A. Evangelista, J. M. Turney, T. D. Crawford, C. D. Sherrill,
    J. Chem. Phys. 152(18) 184108 (2020). https://doi.org/10.1063/5.0006002

                            Additional Code Authors
    E. T. Seidl, C. L. Janssen, E. F. Valeev, M. L. Leininger,
    J. F. Gonthier, R. M. Richard, H. R. McAlexander, M. Saitow, X. Wang,
    P. Verma, and M. H. Lechner

             Previous Authors, Complete List of Code Contributors,
                       and Citations for Specific Modules
    https://github.com/psi4/psi4/blob/master/codemeta.json
    https://github.com/psi4/psi4/graphs/contributors
    http://psicode.org/psi4manual/master/introduction.html#citing-psifour

    -----------------------------------------------------------------------


    Psi4 started on: Thursday, 04 November 2021 02:49PM

    Process ID: 10856
    Host:       n080
    PSIDATADIR: /opt/psi/4/master/share/psi4
    Memory:     500.0 MiB
    Threads:    1
    
  ==> Input File <==

--------------------------------------------------------------------------
import os
memory 14 GB 
 
molecule {
 C   -0.2629279068    0.7996210147   -0.0009879024
 O   -2.2025708186   -0.3293765053    0.0002628343
 C    2.4131001076   -0.2431442418    0.0026007314
 H    2.3965212258   -2.3072497862   -0.0010187560
 H    3.3910534102    0.4750125759   -1.6652257665
 H    3.3914219318    0.4752715626    1.6643686792
units bohr
0 2
}

basis {

assign 6-31g_2dfp_

[ 6-31g_2dfp_ ]

spherical

!----------------------------------------------------------------------
! Basis Set Exchange
! Version v0.8.13
! https://www.basissetexchange.org
!----------------------------------------------------------------------
!   Basis set: 6-31G(2df,p)
! Description: 6-31G(2df,p)
!        Role: orbital
!     Version: 0  (Data from the original Basis Set Exchange)
!----------------------------------------------------------------------


****
H     0
S    3   1.00
     18.7311370              0.03349460
      2.8253937              0.23472695
      0.6401217              0.81375733
S    1   1.00
      0.1612778              1.00000000
P    1   1.00
      1.5000000              1.0000000
P    1   1.00
      0.3750000              1.0000000
****
B     0
S    6   1.00
   2068.8823000              0.0018663
    310.6495700              0.0142515
     70.6830330              0.0695516
     19.8610800              0.2325729
      6.2993048              0.4670787
      2.1270270              0.3634314
SP   3   1.00
      4.7279710             -0.1303938              0.0745976
      1.1903377             -0.1307889              0.3078467
      0.3594117              1.1309444              0.7434568
SP   1   1.00
      0.1267512              1.0000000              1.0000000
D    1   1.00
      0.8020000              1.0000000
D    1   1.00
      0.2005000              1.0000000
F    1   1.00
      0.5000000              1.0000000
****
C     0
S    6   1.00
   3047.5249000              0.0018347
    457.3695100              0.0140373
    103.9486900              0.0688426
     29.2101550              0.2321844
      9.2866630              0.4679413
      3.1639270              0.3623120
SP   3   1.00
      7.8682724             -0.1193324              0.0689991
      1.8812885             -0.1608542              0.3164240
      0.5442493              1.1434564              0.7443083
SP   1   1.00
      0.1687144              1.0000000              1.0000000
D    1   1.00
      1.2520000              1.0000000
D    1   1.00
      0.3130000              1.0000000
F    1   1.00
      0.8000000              1.0000000
****
N     0
S    6   1.00
   4173.5110000              0.0018348
    627.4579000              0.0139950
    142.9021000              0.0685870
     40.2343300              0.2322410
     12.8202100              0.4690700
      4.3904370              0.3604550
SP   3   1.00
     11.6263580             -0.1149610              0.0675800
      2.7162800             -0.1691180              0.3239070
      0.7722180              1.1458520              0.7408950
SP   1   1.00
      0.2120313              1.0000000              1.0000000
D    1   1.00
      1.8260000              1.0000000
D    1   1.00
      0.4565000              1.0000000
F    1   1.00
      1.0000000              1.0000000
****
O     0
S    6   1.00
   5484.6717000              0.0018311
    825.2349500              0.0139501
    188.0469600              0.0684451
     52.9645000              0.2327143
     16.8975700              0.4701930
      5.7996353              0.3585209
SP   3   1.00
     15.5396160             -0.1107775              0.0708743
      3.5999336             -0.1480263              0.3397528
      1.0137618              1.1307670              0.7271586
SP   1   1.00
      0.2700058              1.0000000              1.0000000
D    1   1.00
      2.5840000              1.0000000
D    1   1.00
      0.6460000              1.0000000
F    1   1.00
      1.4000000              1.0000000
****
F     0
S    6   1.00
   7001.7130900              0.0018196169
   1051.3660900              0.0139160796
    239.2856900              0.0684053245
     67.3974453              0.233185760
     21.5199573              0.471267439
      7.40310130             0.356618546
SP   3   1.00
     20.8479528             -0.108506975            0.0716287243
      4.80830834            -0.146451658            0.3459121030
      1.34406986             1.128688580            0.7224699570
SP   1   1.00
      0.358151393            1.0000000              1.0000000
D    1   1.00
      3.5000000              1.0000000
D    1   1.00
      0.8750000              1.0000000
F    1   1.00
      1.8500000              1.0000000
****
Al     0
S    6   1.00
  13983.1000000              0.00194267
   2098.7500000              0.0148599
    477.7050000              0.0728494
    134.3600000              0.2468300
     42.8709000              0.4872580
     14.5189000              0.3234960
SP   6   1.00
    239.6680000             -0.00292619             0.00460285
     57.4419000             -0.0374080              0.0331990
     18.2859000             -0.1144870              0.1362820
      6.5991400              0.1156350              0.3304760
      2.4904900              0.6125950              0.4491460
      0.9445400              0.3937990              0.2657040
SP   3   1.00
      1.2779000             -0.2276060             -0.0175130
      0.3975900              0.00144583             0.2445330
      0.1600950              1.0927900              0.8049340
SP   1   1.00
      0.0556577              1.0000000              1.0000000
D    1   1.00
      0.6500000              1.0000000
D    1   1.00
      0.1625000              1.0000000
F    1   1.00
      0.2500000              1.0000000
****
Si     0
S    6   1.00
  16115.9000000              0.00195948
   2425.5800000              0.01492880
    553.8670000              0.07284780
    156.3400000              0.24613000
     50.0683000              0.48591400
     17.0178000              0.32500200
SP   6   1.00
    292.7180000             -0.00278094             0.00443826
     69.8731000             -0.03571460             0.03266790
     22.3363000             -0.11498500             0.13472100
      8.1503900              0.09356340             0.32867800
      3.1345800              0.60301700             0.44964000
      1.2254300              0.41895900             0.26137200
SP   3   1.00
      1.7273800             -0.24463000            -0.01779510
      0.5729220              0.00431572             0.25353900
      0.2221920              1.09818000             0.80066900
SP   1   1.00
      0.0778369              1.00000000             1.00000000
D    1   1.00
      0.9000000              1.0000000
D    1   1.00
      0.2250000              1.0000000
F    1   1.00
      0.3200000              1.0000000
****
P     0
S    6   1.00
  19413.3000000              0.0018516
   2909.4200000              0.0142062
    661.3640000              0.0699995
    185.7590000              0.2400790
     59.1943000              0.4847620
     20.0310000              0.3352000
SP   6   1.00
    339.4780000             -0.00278217             0.00456462
     81.0101000             -0.0360499              0.03369360
     25.8780000             -0.1166310              0.13975500
      9.4522100              0.0968328              0.33936200
      3.6656600              0.6144180              0.45092100
      1.4674600              0.4037980              0.23858600
SP   3   1.00
      2.1562300             -0.2529230             -0.01776530
      0.7489970              0.0328517              0.27405800
      0.2831450              1.0812500              0.78542100
SP   1   1.00
      0.0998317              1.0000000              1.00000000
D    1   1.00
      1.1000000              1.0000000
D    1   1.00
      0.2750000              1.0000000
F    1   1.00
      0.4500000              1.0000000
****
S     0
S    6   1.00
  21917.1000000              0.0018690
   3301.4900000              0.0142300
    754.1460000              0.0696960
    212.7110000              0.2384870
     67.9896000              0.4833070
     23.0515000              0.3380740
SP   6   1.00
    423.7350000             -0.0023767              0.0040610
    100.7100000             -0.0316930              0.0306810
     32.1599000             -0.1133170              0.1304520
     11.8079000              0.0560900              0.3272050
      4.6311000              0.5922550              0.4528510
      1.8702500              0.4550060              0.2560420
SP   3   1.00
      2.6158400             -0.2503740             -0.0145110
      0.9221670              0.0669570              0.3102630
      0.3412870              1.0545100              0.7544830
SP   1   1.00
      0.1171670              1.0000000              1.0000000
D    1   1.00
      1.3000000              1.0000000
D    1   1.00
      0.3250000              1.0000000
F    1   1.00
      0.5500000              1.0000000
****
Cl     0
S    6   1.00
  25180.1000000              0.0018330
   3780.3500000              0.0140340
    860.4740000              0.0690970
    242.1450000              0.2374520
     77.3349000              0.4830340
     26.2470000              0.3398560
SP   6   1.00
    491.7650000             -0.0022974              0.0039894
    116.9840000             -0.0307140              0.0303180
     37.4153000             -0.1125280              0.1298800
     13.7834000              0.0450160              0.3279510
      5.4521500              0.5893530              0.4535270
      2.2258800              0.4652060              0.2521540
SP   3   1.00
      3.1864900             -0.2518300             -0.0142990
      1.1442700              0.0615890              0.3235720
      0.4203770              1.0601800              0.7435070
SP   1   1.00
      0.1426570              1.0000000              1.0000000
D    1   1.00
      1.5000000              1.0000000
D    1   1.00
      0.3750000              1.0000000
F    1   1.00
      0.7000000              1.0000000
****
}


set {
reference uhf                          
freeze_core true
e_convergence 10                       
d_convergence 10                      
dft_spherical_points 1202
dft_radial_points 99
}

e = energy('b3lyp')

print_out('Grab this energy {0}'.format(e))
--------------------------------------------------------------------------

  Memory set to  13.039 GiB by Python driver.

Scratch directory: /tmp/

*** tstart() called on n080
*** at Thu Nov  4 14:49:02 2021

   => Loading Basis Set <=

    Name: ANONYMOUSAB237EF7
    Role: ORBITAL
    Keyword: BASIS
    atoms 1, 3 entry C          line    48 inputblock 6-31g_2dfp_ 
    atoms 2    entry O          line    90 inputblock 6-31g_2dfp_ 
    atoms 4-6  entry H          line    15 inputblock 6-31g_2dfp_ 


         ---------------------------------------------------------
                                   SCF
               by Justin Turney, Rob Parrish, Andy Simmonett
                          and Daniel G. A. Smith
                              UKS Reference
                        1 Threads,  13351 MiB Core
         ---------------------------------------------------------

  ==> Geometry <==

    Molecular point group: c1
    Full point group: C1

    Geometry (in Bohr), charge = 0, multiplicity = 2:

       Center              X                  Y                   Z               Mass       
    ------------   -----------------  -----------------  -----------------  -----------------
         C           -0.258812381629     0.798649610436    -0.001491580908    12.000000000000
         O           -2.198455293429    -0.330347909564    -0.000240844208    15.994914619570
         C            2.417215632771    -0.244115646064     0.002097052892    12.000000000000
         H            2.400636750971    -2.308221190464    -0.001522434508     1.007825032230
         H            3.395168935371     0.474041171636    -1.665729445008     1.007825032230
         H            3.395537456971     0.474300158336     1.663865000692     1.007825032230

  Running in c1 symmetry.

  Rotational constants: A =      2.79692  B =      0.32922  C =      0.31158 [cm^-1]
  Rotational constants: A =  83849.69062  B =   9869.62403  C =   9340.89191 [MHz]
  Nuclear repulsion =   62.700985742652094

  Charge       = 0
  Multiplicity = 2
  Electrons    = 23
  Nalpha       = 12
  Nbeta        = 11

  ==> Algorithm <==

  SCF Algorithm Type is DF.
  DIIS enabled.
  MOM disabled.
  Fractional occupation disabled.
  Guess Type is SAD.
  Energy threshold   = 1.00e-10
  Density threshold  = 1.00e-10
  Integral threshold = 0.00e+00

  ==> Primary Basis <==

  Basis Set: ANONYMOUSAB237EF7
    Blend: 6-31G_2DFP_
    Number of shells: 36
    Number of basis function: 102
    Number of Cartesian functions: 117
    Spherical Harmonics?: true
    Max angular momentum: 3

  ==> DFT Potential <==

   => Composite Functional: B3LYP <= 

    B3LYP Hyb-GGA Exchange-Correlation Functional

    P. J. Stephens, F. J. Devlin, C. F. Chabalowski, and M. J. Frisch, J. Phys. Chem. 98, 11623 (1994)

    Deriv               =              1
    GGA                 =           TRUE
    Meta                =          FALSE

    Exchange Hybrid     =           TRUE
    MP2 Hybrid          =          FALSE

   => Exchange Functionals <=

    0.0800   Slater exchange
    0.7200         Becke 88

   => Exact (HF) Exchange <=

    0.2000               HF 

   => Correlation Functionals <=

    0.1900   Vosko, Wilk & Nusair (VWN5_RPA)
    0.8100   Lee, Yang & Parr

   => Molecular Quadrature <=

    Radial Scheme          =       TREUTLER
    Pruning Scheme         =           NONE
    Nuclear Scheme         =       TREUTLER

    BS radius alpha        =              1
    Pruning alpha          =              1
    Radial Points          =             99
    Spherical Points       =           1202
    Total Points           =         674062
    Total Blocks           =           4721
    Max Points             =            256
    Max Functions          =            102
    Weights Tolerance      =       1.00E-15

   => Loading Basis Set <=

    Name: (ANONYMOUSAB237EF7 AUX)
    Role: JKFIT
    Keyword: DF_BASIS_SCF
    atoms 1, 3 entry C          line   198 file /opt/psi/4/master/share/psi4/basis/def2-universal-jkfit.gbs 
    atoms 2    entry O          line   318 file /opt/psi/4/master/share/psi4/basis/def2-universal-jkfit.gbs 
    atoms 4-6  entry H          line    18 file /opt/psi/4/master/share/psi4/basis/def2-universal-jkfit.gbs 

  ==> Integral Setup <==

  DFHelper Memory: AOs need 0.024 GiB; user supplied 8.090 GiB. Using in-core AOs.

  ==> MemDFJK: Density-Fitted J/K Matrices <==

    J tasked:                   Yes
    K tasked:                   Yes
    wK tasked:                   No
    OpenMP threads:               1
    Memory [MiB]:              8284
    Algorithm:                 Core
    Schwarz Cutoff:           1E-12
    Mask sparsity (%):       0.7113
    Fitting Condition:        1E-10

   => Auxiliary Basis Set <=

  Basis Set: (ANONYMOUSAB237EF7 AUX)
    Blend: DEF2-UNIVERSAL-JKFIT
    Number of shells: 93
    Number of basis function: 281
    Number of Cartesian functions: 331
    Spherical Harmonics?: true
    Max angular momentum: 4

  Cached 100.0% of DFT collocation blocks in 1.689 [GiB].

  Minimum eigenvalue in the overlap matrix is 1.9117673062E-03.
  Reciprocal condition number of the overlap matrix is 3.6274167260E-04.
    Using symmetric orthogonalization.

  ==> Pre-Iterations <==

  SCF Guess: Superposition of Atomic Densities via on-the-fly atomic UHF (no occupation information).

   -------------------------
    Irrep   Nso     Nmo    
   -------------------------
     A        102     102 
   -------------------------
    Total     102     102
   -------------------------

  ==> Iterations <==

                           Total Energy        Delta E     RMS |[F,P]|

   @DF-UKS iter SAD:  -152.61371939195547   -1.52614e+02   0.00000e+00 
   @DF-UKS iter   1:  -153.01845275938692   -4.04733e-01   5.96911e-03 DIIS
   @DF-UKS iter   2:  -152.86321848135509    1.55234e-01   8.55553e-03 DIIS
   @DF-UKS iter   3:  -153.15509727808714   -2.91879e-01   2.71737e-03 DIIS
   @DF-UKS iter   4:  -153.18797166830637   -3.28744e-02   2.99114e-04 DIIS
   @DF-UKS iter   5:  -153.18834345588266   -3.71788e-04   1.15336e-04 DIIS
   @DF-UKS iter   6:  -153.18841262118457   -6.91653e-05   2.12882e-05 DIIS
   @DF-UKS iter   7:  -153.18841490041694   -2.27923e-06   4.28622e-06 DIIS
   @DF-UKS iter   8:  -153.18841500956864   -1.09152e-07   9.46216e-07 DIIS
   @DF-UKS iter   9:  -153.18841501674993   -7.18128e-09   2.49615e-07 DIIS
   @DF-UKS iter  10:  -153.18841501768256   -9.32630e-10   1.16870e-07 DIIS
   @DF-UKS iter  11:  -153.18841501783956   -1.57002e-10   3.31948e-08 DIIS
   @DF-UKS iter  12:  -153.18841501786252   -2.29647e-11   1.13422e-08 DIIS
   @DF-UKS iter  13:  -153.18841501786596   -3.43903e-12   3.57617e-09 DIIS
   @DF-UKS iter  14:  -153.18841501786628   -3.12639e-13   9.49487e-10 DIIS
   @DF-UKS iter  15:  -153.18841501786628    0.00000e+00   3.75449e-10 DIIS
   @DF-UKS iter  16:  -153.18841501786642   -1.42109e-13   7.41663e-11 DIIS
  Energy and wave function converged.


  ==> Post-Iterations <==

   @Spin Contamination Metric:   2.642191453E-03
   @S^2 Expected:                7.500000000E-01
   @S^2 Observed:                7.526421915E-01
   @S   Expected:                5.000000000E-01
   @S   Observed:                5.000000000E-01

    Orbital Energies [Eh]
    ---------------------

    Alpha Occupied:                                                       

       1A    -19.186970     2A    -10.271929     3A    -10.210833  
       4A     -1.080616     5A     -0.761761     6A     -0.543959  
       7A     -0.466040     8A     -0.457347     9A     -0.456039  
      10A     -0.387471    11A     -0.386295    12A     -0.191617  

    Alpha Virtual:                                                        

      13A     -0.019189    14A      0.091491    15A      0.136687  
      16A      0.141184    17A      0.216795    18A      0.267852  
      19A      0.427609    20A      0.431570    21A      0.443601  
      22A      0.493421    23A      0.506426    24A      0.530082  
      25A      0.563276    26A      0.577059    27A      0.608138  
      28A      0.615672    29A      0.643754    30A      0.717942  
      31A      0.764620    32A      0.784770    33A      0.832227  
      34A      0.917532    35A      0.926168    36A      0.933981  
      37A      1.022961    38A      1.085479    39A      1.106930  
      40A      1.152119    41A      1.221309    42A      1.306089  
      43A      1.316605    44A      1.326427    45A      1.401892  
      46A      1.407943    47A      1.467932    48A      1.560203  
      49A      1.632056    50A      1.653608    51A      1.720723  
      52A      1.813012    53A      1.831474    54A      1.900167  
      55A      2.066231    56A      2.169302    57A      2.493167  
      58A      2.680387    59A      2.743482    60A      2.784007  
      61A      2.841147    62A      2.894579    63A      2.975321  
      64A      3.027579    65A      3.056038    66A      3.104725  
      67A      3.113751    68A      3.180633    69A      3.313493  
      70A      3.366171    71A      3.393439    72A      3.439724  
      73A      3.464329    74A      3.483860    75A      3.569519  
      76A      3.737750    77A      3.762424    78A      3.941649  
      79A      3.979920    80A      4.052882    81A      4.106475  
      82A      4.119289    83A      4.186747    84A      4.388089  
      85A      4.430656    86A      4.446818    87A      4.532719  
      88A      4.918462    89A      5.036872    90A      5.042086  
      91A      5.197378    92A      5.205993    93A      5.471322  
      94A      5.480694    95A      5.827550    96A      5.928875  
      97A      6.103245    98A      6.770397    99A      6.772691  
     100A      7.071584   101A      7.134622   102A      7.529115  

    Beta Occupied:                                                        

       1A    -19.178931     2A    -10.261847     3A    -10.207467  
       4A     -1.064714     5A     -0.749998     6A     -0.524201  
       7A     -0.451537     8A     -0.446654     9A     -0.438679  
      10A     -0.382275    11A     -0.348093  

    Beta Virtual:                                                         

      12A     -0.052119    13A     -0.002919    14A      0.094188  
      15A      0.142390    16A      0.144311    17A      0.227303  
      18A      0.273545    19A      0.433575    20A      0.435085  
      21A      0.465060    22A      0.500105    23A      0.527704  
      24A      0.539369    25A      0.569588    26A      0.581294  
      27A      0.623000    28A      0.626728    29A      0.649529  
      30A      0.740017    31A      0.775751    32A      0.794779  
      33A      0.833011    34A      0.922366    35A      0.940142  
      36A      0.951590    37A      1.027140    38A      1.091507  
      39A      1.109054    40A      1.158302    41A      1.230666  
      42A      1.311598    43A      1.319442    44A      1.333191  
      45A      1.411540    46A      1.413973    47A      1.480085  
      48A      1.571325    49A      1.645499    50A      1.667876  
      51A      1.726948    52A      1.816236    53A      1.845666  
      54A      1.906794    55A      2.072920    56A      2.190641  
      57A      2.505845    58A      2.694594    59A      2.757918  
      60A      2.805276    61A      2.856861    62A      2.896235  
      63A      2.984718    64A      3.044517    65A      3.064703  
      66A      3.121892    67A      3.123561    68A      3.215464  
      69A      3.357277    70A      3.377878    71A      3.399645  
      72A      3.448362    73A      3.479522    74A      3.506686  
      75A      3.582740    76A      3.763333    77A      3.771992  
      78A      3.950235    79A      3.989201    80A      4.069184  
      81A      4.121373    82A      4.122428    83A      4.198007  
      84A      4.390345    85A      4.436795    86A      4.451007  
      87A      4.543621    88A      4.922328    89A      5.054328  
      90A      5.059999    91A      5.199532    92A      5.211693  
      93A      5.483989    94A      5.494544    95A      5.840761  
      96A      5.934463    97A      6.126360    98A      6.799551  
      99A      6.802178   100A      7.075883   101A      7.163909  
     102A      7.540762  

    Final Occupation by Irrep:
              A 
    DOCC [    11 ]
    SOCC [     1 ]

  @DF-UKS Final Energy:  -153.18841501786642

   => Energetics <=

    Nuclear Repulsion Energy =             62.7009857426520938
    One-Electron Energy =                -331.4045611931435360
    Two-Electron Energy =                 132.0939066815649312
    DFT Exchange-Correlation Energy =     -16.5787462489399218
    Empirical Dispersion Energy =           0.0000000000000000
    VV10 Nonlocal Energy =                  0.0000000000000000
    Total Energy =                       -153.1884150178664186

  UHF NO Occupations:
  HONO-2 :   10  A 1.9997844
  HONO-1 :   11  A 1.9992030
  HONO-0 :   12  A 1.0000000
  LUNO+0 :   13  A 0.0007970
  LUNO+1 :   14  A 0.0002156
  LUNO+2 :   15  A 0.0001825
  LUNO+3 :   16  A 0.0000613


Computation Completed


Properties will be evaluated at   0.000000,   0.000000,   0.000000 [a0]

Properties computed using the SCF density matrix

  Nuclear Dipole Moment: [e a0]
     X:     4.5541      Y:    -0.6755      Z:    -0.0017

  Electronic Dipole Moment: [e a0]
     X:    -3.6186      Y:     0.6248      Z:     0.0020

  Dipole Moment: [e a0]
     X:     0.9355      Y:    -0.0507      Z:     0.0004     Total:     0.9368

  Dipole Moment: [D]
     X:     2.3777      Y:    -0.1288      Z:     0.0009     Total:     2.3812


*** tstop() called on n080 at Thu Nov  4 14:49:47 2021
Module time:
	user time   =      44.14 seconds =       0.74 minutes
	system time =       0.56 seconds =       0.01 minutes
	total time  =         45 seconds =       0.75 minutes
Total time:
	user time   =      44.14 seconds =       0.74 minutes
	system time =       0.56 seconds =       0.01 minutes
	total time  =         45 seconds =       0.75 minutes
Grab this energy -153.18841501786642
    Psi4 stopped on: Thursday, 04 November 2021 02:49PM
    Psi4 wall time for execution: 0:00:44.74

*** Psi4 exiting successfully. Buy a developer a beer!
