
    -----------------------------------------------------------------------
          Psi4: An Open-Source Ab Initio Electronic Structure Package
                               Psi4 1.4a2.dev629 

                         Git: Rev {master} 2938fc2 dirty


    D. G. A. Smith, L. A. Burns, A. C. Simmonett, R. M. Parrish,
    M. C. Schieber, R. Galvelis, P. Kraus, H. Kruse, R. Di Remigio,
    A. Alenaizan, A. M. James, S. Lehtola, J. P. Misiewicz, M. Scheurer,
    R. A. Shaw, J. B. Schriber, Y. Xie, Z. L. Glick, D. A. Sirianni,
    J. S. O'Brien, J. M. Waldrop, A. Kumar, E. G. Hohenstein,
    B. P. Pritchard, B. R. Brooks, H. F. Schaefer III, A. Yu. Sokolov,
    K. Patkowski, A. E. DePrince III, U. Bozkaya, R. A. King,
    F. A. Evangelista, J. M. Turney, T. D. Crawford, C. D. Sherrill,
    J. Chem. Phys. 152(18) 184108 (2020). https://doi.org/10.1063/5.0006002

                            Additional Code Authors
    E. T. Seidl, C. L. Janssen, E. F. Valeev, M. L. Leininger,
    J. F. Gonthier, R. M. Richard, H. R. McAlexander, M. Saitow, X. Wang,
    P. Verma, and M. H. Lechner

             Previous Authors, Complete List of Code Contributors,
                       and Citations for Specific Modules
    https://github.com/psi4/psi4/blob/master/codemeta.json
    https://github.com/psi4/psi4/graphs/contributors
    http://psicode.org/psi4manual/master/introduction.html#citing-psifour

    -----------------------------------------------------------------------


    Psi4 started on: Tuesday, 15 March 2022 10:29AM

    Process ID: 18130
    Host:       n065
    PSIDATADIR: /opt/psi/4/master/share/psi4
    Memory:     500.0 MiB
    Threads:    1
    
  ==> Input File <==

--------------------------------------------------------------------------
import os
memory 14 GB 
 
molecule {
 C   -0.2613540155    0.8008368185    0.0000000000
 O   -2.2031586065   -0.3256682750    0.0000000000
 C    2.4122934144   -0.2501205663   -0.0000000000
 H    2.3926018799   -2.3110692510    0.0000000000
 H    3.3921276550    0.4701934608   -1.6645329711
 H    3.3921276550    0.4701934608    1.6645329711
units bohr
0 2
}

basis {

assign 6-31g_2dfp_

[ 6-31g_2dfp_ ]

spherical

!----------------------------------------------------------------------
! Basis Set Exchange
! Version v0.8.13
! https://www.basissetexchange.org
!----------------------------------------------------------------------
!   Basis set: 6-31G(2df,p)
! Description: 6-31G(2df,p)
!        Role: orbital
!     Version: 0  (Data from the original Basis Set Exchange)
!----------------------------------------------------------------------


****
H     0
S    3   1.00
     18.7311370              0.03349460
      2.8253937              0.23472695
      0.6401217              0.81375733
S    1   1.00
      0.1612778              1.00000000
P    1   1.00
      1.5000000              1.0000000
P    1   1.00
      0.3750000              1.0000000
****
B     0
S    6   1.00
   2068.8823000              0.0018663
    310.6495700              0.0142515
     70.6830330              0.0695516
     19.8610800              0.2325729
      6.2993048              0.4670787
      2.1270270              0.3634314
SP   3   1.00
      4.7279710             -0.1303938              0.0745976
      1.1903377             -0.1307889              0.3078467
      0.3594117              1.1309444              0.7434568
SP   1   1.00
      0.1267512              1.0000000              1.0000000
D    1   1.00
      0.8020000              1.0000000
D    1   1.00
      0.2005000              1.0000000
F    1   1.00
      0.5000000              1.0000000
****
C     0
S    6   1.00
   3047.5249000              0.0018347
    457.3695100              0.0140373
    103.9486900              0.0688426
     29.2101550              0.2321844
      9.2866630              0.4679413
      3.1639270              0.3623120
SP   3   1.00
      7.8682724             -0.1193324              0.0689991
      1.8812885             -0.1608542              0.3164240
      0.5442493              1.1434564              0.7443083
SP   1   1.00
      0.1687144              1.0000000              1.0000000
D    1   1.00
      1.2520000              1.0000000
D    1   1.00
      0.3130000              1.0000000
F    1   1.00
      0.8000000              1.0000000
****
N     0
S    6   1.00
   4173.5110000              0.0018348
    627.4579000              0.0139950
    142.9021000              0.0685870
     40.2343300              0.2322410
     12.8202100              0.4690700
      4.3904370              0.3604550
SP   3   1.00
     11.6263580             -0.1149610              0.0675800
      2.7162800             -0.1691180              0.3239070
      0.7722180              1.1458520              0.7408950
SP   1   1.00
      0.2120313              1.0000000              1.0000000
D    1   1.00
      1.8260000              1.0000000
D    1   1.00
      0.4565000              1.0000000
F    1   1.00
      1.0000000              1.0000000
****
O     0
S    6   1.00
   5484.6717000              0.0018311
    825.2349500              0.0139501
    188.0469600              0.0684451
     52.9645000              0.2327143
     16.8975700              0.4701930
      5.7996353              0.3585209
SP   3   1.00
     15.5396160             -0.1107775              0.0708743
      3.5999336             -0.1480263              0.3397528
      1.0137618              1.1307670              0.7271586
SP   1   1.00
      0.2700058              1.0000000              1.0000000
D    1   1.00
      2.5840000              1.0000000
D    1   1.00
      0.6460000              1.0000000
F    1   1.00
      1.4000000              1.0000000
****
F     0
S    6   1.00
   7001.7130900              0.0018196169
   1051.3660900              0.0139160796
    239.2856900              0.0684053245
     67.3974453              0.233185760
     21.5199573              0.471267439
      7.40310130             0.356618546
SP   3   1.00
     20.8479528             -0.108506975            0.0716287243
      4.80830834            -0.146451658            0.3459121030
      1.34406986             1.128688580            0.7224699570
SP   1   1.00
      0.358151393            1.0000000              1.0000000
D    1   1.00
      3.5000000              1.0000000
D    1   1.00
      0.8750000              1.0000000
F    1   1.00
      1.8500000              1.0000000
****
Al     0
S    6   1.00
  13983.1000000              0.00194267
   2098.7500000              0.0148599
    477.7050000              0.0728494
    134.3600000              0.2468300
     42.8709000              0.4872580
     14.5189000              0.3234960
SP   6   1.00
    239.6680000             -0.00292619             0.00460285
     57.4419000             -0.0374080              0.0331990
     18.2859000             -0.1144870              0.1362820
      6.5991400              0.1156350              0.3304760
      2.4904900              0.6125950              0.4491460
      0.9445400              0.3937990              0.2657040
SP   3   1.00
      1.2779000             -0.2276060             -0.0175130
      0.3975900              0.00144583             0.2445330
      0.1600950              1.0927900              0.8049340
SP   1   1.00
      0.0556577              1.0000000              1.0000000
D    1   1.00
      0.6500000              1.0000000
D    1   1.00
      0.1625000              1.0000000
F    1   1.00
      0.2500000              1.0000000
****
Si     0
S    6   1.00
  16115.9000000              0.00195948
   2425.5800000              0.01492880
    553.8670000              0.07284780
    156.3400000              0.24613000
     50.0683000              0.48591400
     17.0178000              0.32500200
SP   6   1.00
    292.7180000             -0.00278094             0.00443826
     69.8731000             -0.03571460             0.03266790
     22.3363000             -0.11498500             0.13472100
      8.1503900              0.09356340             0.32867800
      3.1345800              0.60301700             0.44964000
      1.2254300              0.41895900             0.26137200
SP   3   1.00
      1.7273800             -0.24463000            -0.01779510
      0.5729220              0.00431572             0.25353900
      0.2221920              1.09818000             0.80066900
SP   1   1.00
      0.0778369              1.00000000             1.00000000
D    1   1.00
      0.9000000              1.0000000
D    1   1.00
      0.2250000              1.0000000
F    1   1.00
      0.3200000              1.0000000
****
P     0
S    6   1.00
  19413.3000000              0.0018516
   2909.4200000              0.0142062
    661.3640000              0.0699995
    185.7590000              0.2400790
     59.1943000              0.4847620
     20.0310000              0.3352000
SP   6   1.00
    339.4780000             -0.00278217             0.00456462
     81.0101000             -0.0360499              0.03369360
     25.8780000             -0.1166310              0.13975500
      9.4522100              0.0968328              0.33936200
      3.6656600              0.6144180              0.45092100
      1.4674600              0.4037980              0.23858600
SP   3   1.00
      2.1562300             -0.2529230             -0.01776530
      0.7489970              0.0328517              0.27405800
      0.2831450              1.0812500              0.78542100
SP   1   1.00
      0.0998317              1.0000000              1.00000000
D    1   1.00
      1.1000000              1.0000000
D    1   1.00
      0.2750000              1.0000000
F    1   1.00
      0.4500000              1.0000000
****
S     0
S    6   1.00
  21917.1000000              0.0018690
   3301.4900000              0.0142300
    754.1460000              0.0696960
    212.7110000              0.2384870
     67.9896000              0.4833070
     23.0515000              0.3380740
SP   6   1.00
    423.7350000             -0.0023767              0.0040610
    100.7100000             -0.0316930              0.0306810
     32.1599000             -0.1133170              0.1304520
     11.8079000              0.0560900              0.3272050
      4.6311000              0.5922550              0.4528510
      1.8702500              0.4550060              0.2560420
SP   3   1.00
      2.6158400             -0.2503740             -0.0145110
      0.9221670              0.0669570              0.3102630
      0.3412870              1.0545100              0.7544830
SP   1   1.00
      0.1171670              1.0000000              1.0000000
D    1   1.00
      1.3000000              1.0000000
D    1   1.00
      0.3250000              1.0000000
F    1   1.00
      0.5500000              1.0000000
****
Cl     0
S    6   1.00
  25180.1000000              0.0018330
   3780.3500000              0.0140340
    860.4740000              0.0690970
    242.1450000              0.2374520
     77.3349000              0.4830340
     26.2470000              0.3398560
SP   6   1.00
    491.7650000             -0.0022974              0.0039894
    116.9840000             -0.0307140              0.0303180
     37.4153000             -0.1125280              0.1298800
     13.7834000              0.0450160              0.3279510
      5.4521500              0.5893530              0.4535270
      2.2258800              0.4652060              0.2521540
SP   3   1.00
      3.1864900             -0.2518300             -0.0142990
      1.1442700              0.0615890              0.3235720
      0.4203770              1.0601800              0.7435070
SP   1   1.00
      0.1426570              1.0000000              1.0000000
D    1   1.00
      1.5000000              1.0000000
D    1   1.00
      0.3750000              1.0000000
F    1   1.00
      0.7000000              1.0000000
****
}


set {
reference uhf                          
freeze_core true
e_convergence 10                       
d_convergence 10                      
dft_spherical_points 1202
dft_radial_points 99
}

e = energy('b3lyp')

print_out('Grab this energy {0}'.format(e))
--------------------------------------------------------------------------

  Memory set to  13.039 GiB by Python driver.

Scratch directory: /tmp/

*** tstart() called on n065
*** at Tue Mar 15 10:29:48 2022

   => Loading Basis Set <=

    Name: ANONYMOUS41874789
    Role: ORBITAL
    Keyword: BASIS
    atoms 1, 3 entry C          line    48 inputblock 6-31g_2dfp_ 
    atoms 2    entry O          line    90 inputblock 6-31g_2dfp_ 
    atoms 4-6  entry H          line    15 inputblock 6-31g_2dfp_ 


         ---------------------------------------------------------
                                   SCF
               by Justin Turney, Rob Parrish, Andy Simmonett
                          and Daniel G. A. Smith
                              UKS Reference
                        1 Threads,  13351 MiB Core
         ---------------------------------------------------------

  ==> Geometry <==

    Molecular point group: cs
    Full point group: Cs

    Geometry (in Bohr), charge = 0, multiplicity = 2:

       Center              X                  Y                   Z               Mass       
    ------------   -----------------  -----------------  -----------------  -----------------
         C           -0.257183830945     0.800414887071     0.000000000000    12.000000000000
         O           -2.198988421945    -0.326090206429     0.000000000000    15.994914619570
         C            2.416463598955    -0.250542497729     0.000000000000    12.000000000000
         H            2.396772064455    -2.311491182429     0.000000000000     1.007825032230
         H            3.396297839555     0.469771529371    -1.664532971100     1.007825032230
         H            3.396297839555     0.469771529371     1.664532971100     1.007825032230

  Running in cs symmetry.

  Rotational constants: A =      2.79299  B =      0.32925  C =      0.31156 [cm^-1]
  Rotational constants: A =  83731.61232  B =   9870.80118  C =   9340.30389 [MHz]
  Nuclear repulsion =   62.693439519652209

  Charge       = 0
  Multiplicity = 2
  Electrons    = 23
  Nalpha       = 12
  Nbeta        = 11

  ==> Algorithm <==

  SCF Algorithm Type is DF.
  DIIS enabled.
  MOM disabled.
  Fractional occupation disabled.
  Guess Type is SAD.
  Energy threshold   = 1.00e-10
  Density threshold  = 1.00e-10
  Integral threshold = 0.00e+00

  ==> Primary Basis <==

  Basis Set: ANONYMOUS41874789
    Blend: 6-31G_2DFP_
    Number of shells: 36
    Number of basis function: 102
    Number of Cartesian functions: 117
    Spherical Harmonics?: true
    Max angular momentum: 3

  ==> DFT Potential <==

   => Composite Functional: B3LYP <= 

    B3LYP Hyb-GGA Exchange-Correlation Functional

    P. J. Stephens, F. J. Devlin, C. F. Chabalowski, and M. J. Frisch, J. Phys. Chem. 98, 11623 (1994)

    Deriv               =              1
    GGA                 =           TRUE
    Meta                =          FALSE

    Exchange Hybrid     =           TRUE
    MP2 Hybrid          =          FALSE

   => Exchange Functionals <=

    0.0800   Slater exchange
    0.7200         Becke 88

   => Exact (HF) Exchange <=

    0.2000               HF 

   => Correlation Functionals <=

    0.1900   Vosko, Wilk & Nusair (VWN5_RPA)
    0.8100   Lee, Yang & Parr

   => Molecular Quadrature <=

    Radial Scheme          =       TREUTLER
    Pruning Scheme         =           NONE
    Nuclear Scheme         =       TREUTLER

    BS radius alpha        =              1
    Pruning alpha          =              1
    Radial Points          =             99
    Spherical Points       =           1202
    Total Points           =         674059
    Total Blocks           =           4691
    Max Points             =            256
    Max Functions          =            102
    Weights Tolerance      =       1.00E-15

   => Loading Basis Set <=

    Name: (ANONYMOUS41874789 AUX)
    Role: JKFIT
    Keyword: DF_BASIS_SCF
    atoms 1, 3 entry C          line   198 file /opt/psi/4/master/share/psi4/basis/def2-universal-jkfit.gbs 
    atoms 2    entry O          line   318 file /opt/psi/4/master/share/psi4/basis/def2-universal-jkfit.gbs 
    atoms 4-6  entry H          line    18 file /opt/psi/4/master/share/psi4/basis/def2-universal-jkfit.gbs 

  ==> Integral Setup <==

  DFHelper Memory: AOs need 0.024 GiB; user supplied 8.090 GiB. Using in-core AOs.

  ==> MemDFJK: Density-Fitted J/K Matrices <==

    J tasked:                   Yes
    K tasked:                   Yes
    wK tasked:                   No
    OpenMP threads:               1
    Memory [MiB]:              8283
    Algorithm:                 Core
    Schwarz Cutoff:           1E-12
    Mask sparsity (%):       0.7113
    Fitting Condition:        1E-10

   => Auxiliary Basis Set <=

  Basis Set: (ANONYMOUS41874789 AUX)
    Blend: DEF2-UNIVERSAL-JKFIT
    Number of shells: 93
    Number of basis function: 281
    Number of Cartesian functions: 331
    Spherical Harmonics?: true
    Max angular momentum: 4

  Cached 100.0% of DFT collocation blocks in 1.689 [GiB].

  Minimum eigenvalue in the overlap matrix is 1.9124426574E-03.
  Reciprocal condition number of the overlap matrix is 3.8760081153E-04.
    Using symmetric orthogonalization.

  ==> Pre-Iterations <==

  SCF Guess: Superposition of Atomic Densities via on-the-fly atomic UHF (no occupation information).

   -------------------------
    Irrep   Nso     Nmo    
   -------------------------
     A'        65      65 
     A"        37      37 
   -------------------------
    Total     102     102
   -------------------------

  ==> Iterations <==

                           Total Energy        Delta E     RMS |[F,P]|

   @DF-UKS iter SAD:  -152.61296287461334   -1.52613e+02   0.00000e+00 
   @DF-UKS iter   1:  -153.01841939377039   -4.05457e-01   8.14140e-03 DIIS
   @DF-UKS iter   2:  -152.86235751731050    1.56062e-01   1.16830e-02 DIIS
   @DF-UKS iter   3:  -153.15498130114770   -2.92624e-01   3.71151e-03 DIIS
   @DF-UKS iter   4:  -153.18796560320391   -3.29843e-02   4.08948e-04 DIIS
   @DF-UKS iter   5:  -153.18833929521787   -3.73692e-04   1.57703e-04 DIIS
   @DF-UKS iter   6:  -153.18840883800320   -6.95428e-05   2.91757e-05 DIIS
   @DF-UKS iter   7:  -153.18841113822032   -2.30022e-06   5.88923e-06 DIIS
   @DF-UKS iter   8:  -153.18841124939371   -1.11173e-07   1.30056e-06 DIIS
   @DF-UKS iter   9:  -153.18841125681652   -7.42281e-09   3.47504e-07 DIIS
   @DF-UKS iter  10:  -153.18841125781049   -9.93964e-10   1.63316e-07 DIIS
   @DF-UKS iter  11:  -153.18841125797965   -1.69166e-10   4.65126e-08 DIIS
   @DF-UKS iter  12:  -153.18841125800466   -2.50111e-11   1.61398e-08 DIIS
   @DF-UKS iter  13:  -153.18841125800836   -3.69482e-12   4.96232e-09 DIIS
   @DF-UKS iter  14:  -153.18841125800864   -2.84217e-13   1.14793e-09 DIIS
   @DF-UKS iter  15:  -153.18841125800861    2.84217e-14   3.52227e-10 DIIS
   @DF-UKS iter  16:  -153.18841125800867   -5.68434e-14   9.35720e-11 DIIS
  Energy and wave function converged.


  ==> Post-Iterations <==

   @Spin Contamination Metric:   2.644574933E-03
   @S^2 Expected:                7.500000000E-01
   @S^2 Observed:                7.526445749E-01
   @S   Expected:                5.000000000E-01
   @S   Observed:                5.000000000E-01

    Orbital Energies [Eh]
    ---------------------

    Alpha Occupied:                                                       

       1Ap   -19.186981     2Ap   -10.271998     3Ap   -10.210834  
       4Ap    -1.080460     5Ap    -0.761708     6Ap    -0.543955  
       7Ap    -0.466077     8Ap    -0.457446     1App   -0.455769  
       2App   -0.387262     9Ap    -0.386374    10Ap    -0.191859  

    Alpha Virtual:                                                        

       3App   -0.019237    11Ap     0.091448    12Ap     0.137098  
       4App    0.140880    13Ap     0.216591    14Ap     0.267791  
      15Ap     0.427429     5App    0.431790    16Ap     0.443441  
       6App    0.493474    17Ap     0.506469    18Ap     0.530313  
       7App    0.563178    19Ap     0.577159    20Ap     0.607916  
       8App    0.615384    21Ap     0.643851    22Ap     0.717878  
       9App    0.764700    23Ap     0.784755    10App    0.832215  
      11App    0.917612    24Ap     0.926032    25Ap     0.934064  
      12App    1.022999    26Ap     1.085792    27Ap     1.107174  
      13App    1.151542    28Ap     1.220033    29Ap     1.306200  
      14App    1.315850    30Ap     1.326694    31Ap     1.402892  
      15App    1.408015    32Ap     1.467799    33Ap     1.560687  
      34Ap     1.631817    16App    1.653503    35Ap     1.720931  
      17App    1.812307    36Ap     1.831384    37Ap     1.900836  
      18App    2.065917    38Ap     2.168558    39Ap     2.492786  
      19App    2.679895    40Ap     2.743207    41Ap     2.784058  
      20App    2.841434    21App    2.894148    42Ap     2.974961  
      43Ap     3.028641    22App    3.056518    23App    3.105251  
      44Ap     3.112864    45Ap     3.181016    24App    3.313344  
      46Ap     3.366297    25App    3.393518    26App    3.439884  
      27App    3.463787    47Ap     3.483622    48Ap     3.569886  
      49Ap     3.737120    50Ap     3.762408    51Ap     3.940585  
      28App    3.980644    52Ap     4.052204    53Ap     4.107046  
      29App    4.118936    54Ap     4.186175    30App    4.385172  
      55Ap     4.430997    31App    4.448762    56Ap     4.533087  
      57Ap     4.918774    58Ap     5.036831    32App    5.042008  
      33App    5.196814    59Ap     5.206710    60Ap     5.470837  
      34App    5.480024    61Ap     5.827492    35App    5.928337  
      62Ap     6.102575    63Ap     6.770327    36App    6.772573  
      37App    7.071443    64Ap     7.134723    65Ap     7.528810  

    Beta Occupied:                                                        

       1Ap   -19.178932     2Ap   -10.261920     3Ap   -10.207462  
       4Ap    -1.064542     5Ap    -0.749939     6Ap    -0.524169  
       1App   -0.451238     7Ap    -0.447072     8Ap    -0.438509  
       2App   -0.382092     9Ap    -0.348036  

    Beta Virtual:                                                         

      10Ap    -0.052357     3App   -0.002964    11Ap     0.094127  
      12Ap     0.142797     4App    0.143995    13Ap     0.227110  
      14Ap     0.273498     5App    0.433782    15Ap     0.434924  
      16Ap     0.464890     6App    0.500148    17Ap     0.527785  
      18Ap     0.539564     7App    0.569463    19Ap     0.581398  
       8App    0.622739    20Ap     0.626526    21Ap     0.649585  
      22Ap     0.739889     9App    0.775824    23Ap     0.794779  
      10App    0.832985    11App    0.922451    24Ap     0.940111  
      25Ap     0.951585    12App    1.027183    26Ap     1.091824  
      27Ap     1.109256    13App    1.157737    28Ap     1.229395  
      29Ap     1.311779    14App    1.318644    30Ap     1.333455  
      31Ap     1.413150    15App    1.413508    32Ap     1.479999  
      33Ap     1.571682    34Ap     1.645288    16App    1.667794  
      35Ap     1.727176    17App    1.815495    36Ap     1.845557  
      37Ap     1.907472    18App    2.072621    38Ap     2.189899  
      39Ap     2.505463    19App    2.694125    40Ap     2.757622  
      41Ap     2.805366    20App    2.857114    21App    2.895778  
      42Ap     2.984395    43Ap     3.045496    22App    3.065201  
      44Ap     3.121270    23App    3.123728    45Ap     3.215832  
      24App    3.357127    46Ap     3.378046    25App    3.399789  
      26App    3.448377    27App    3.479139    47Ap     3.506322  
      48Ap     3.583227    49Ap     3.762667    50Ap     3.772024  
      51Ap     3.949148    28App    3.989924    52Ap     4.068560  
      29App    4.121758    53Ap     4.122178    54Ap     4.197476  
      30App    4.387462    55Ap     4.437115    31App    4.452895  
      56Ap     4.544003    57Ap     4.922613    58Ap     5.054321  
      32App    5.059948    33App    5.198963    59Ap     5.212422  
      60Ap     5.483515    34App    5.493888    61Ap     5.840712  
      35App    5.933927    62Ap     6.125705    63Ap     6.799521  
      36App    6.802101    37App    7.075747    64Ap     7.164043  
      65Ap     7.540469  

    Final Occupation by Irrep:
             Ap   App 
    DOCC [     9,    2 ]
    SOCC [     1,    0 ]

  @DF-UKS Final Energy:  -153.18841125800867

   => Energetics <=

    Nuclear Repulsion Energy =             62.6934395196522090
    One-Electron Energy =                -331.3902729952166055
    Two-Electron Energy =                 132.0869175722869215
    DFT Exchange-Correlation Energy =     -16.5784953547311993
    Empirical Dispersion Energy =           0.0000000000000000
    VV10 Nonlocal Energy =                  0.0000000000000000
    Total Energy =                       -153.1884112580086708

  UHF NO Occupations:
  HONO-2 :    8 Ap 1.9997839
  HONO-1 :    9 Ap 1.9992020
  HONO-0 :   10 Ap 1.0000000
  LUNO+0 :   11 Ap 0.0007980
  LUNO+1 :   12 Ap 0.0002161
  LUNO+2 :    3App 0.0001821
  LUNO+3 :   13 Ap 0.0000615


Computation Completed


Properties will be evaluated at   0.000000,   0.000000,   0.000000 [a0]

Properties computed using the SCF density matrix

  Nuclear Dipole Moment: [e a0]
     X:     4.5531      Y:    -0.6814      Z:     0.0000

  Electronic Dipole Moment: [e a0]
     X:    -3.6177      Y:     0.6287      Z:     0.0000

  Dipole Moment: [e a0]
     X:     0.9354      Y:    -0.0527      Z:     0.0000     Total:     0.9369

  Dipole Moment: [D]
     X:     2.3776      Y:    -0.1340      Z:     0.0000     Total:     2.3814


*** tstop() called on n065 at Tue Mar 15 10:30:39 2022
Module time:
	user time   =      50.54 seconds =       0.84 minutes
	system time =       0.52 seconds =       0.01 minutes
	total time  =         51 seconds =       0.85 minutes
Total time:
	user time   =      50.54 seconds =       0.84 minutes
	system time =       0.52 seconds =       0.01 minutes
	total time  =         51 seconds =       0.85 minutes
Grab this energy -153.18841125800867
    Psi4 stopped on: Tuesday, 15 March 2022 10:30AM
    Psi4 wall time for execution: 0:00:51.10

*** Psi4 exiting successfully. Buy a developer a beer!
