
 Primary working directories    : /tmp/984684.154.gen6.q
 Secondary working directories  : /tmp/984684.154.gen6.q
 Wavefunction directory         : /home/vulcan/mel64643/wfu/
 Main file repository           : /tmp/984684.154.gen6.q/

 ARCHNAME  : Linux/x86_64
 FC        : /opt/intel/compilers_and_libraries_2016.1.150/linux/bin/intel64/ifort
 FCVERSION : 16.0.1
 BLASLIB   : -mkl
 id        : ccgc

 Nodes     nprocs
 n081         1
 ga_uses_ma=false, calling ma_init with nominal heap.
 GA-space will be limited to   8.0 MW (determined by -G option)

 Using customized tuning parameters: mindgm=10; mindgv=16; mindgc=4; mindgr=1; noblas=0; mincuda=1000; minvec=7
 default implementation of scratch files=df  

 ***,Optimization of nh3_h20
 memory,1000,m
 gthresh,energy=1.0d-12,orbital=1.0d-10,oneint=1.0d-16,twoint=1.0d-16,optgrad=1.0d-6,compress=1.0d-13
 geomtyp=xyz
 
 
 
 bohr
 geometry = {
  O   -3.2230885666    0.0685772439   -0.0000000000
  H   -1.3977834013   -0.1576486007   -0.0000000000
  H   -3.9143714815   -1.6100413915   -0.0000000000
  N    2.3303815281   -0.0265319307   -0.0000000000
  H    2.7062314488    1.8550570983    0.0000000000
  H    3.2067311723   -0.7518552922   -1.5440401310
  H    3.2067311723   -0.7518552922    1.5440401310
 }
 
 basis=cc-pvdz
 {rhf;maxit,200}
 {mp2}

 Variables initialized (661), CPU time= 0.00 sec
 Commands  initialized (458), CPU time= 0.01 sec, 486 directives.
 Default parameters read. Elapsed time= 0.04 sec

 Checking input...
 Passed
1


                                         ***  PROGRAM SYSTEM MOLPRO  ***
                         Copyright, University College Cardiff Consultants Limited, 2008

                                    Version 2010.1 linked May 16 2016 07:17:05


 **********************************************************************************************************************************
 LABEL *   Optimization of nh3_h20                                                       
 Linux-4.4.3/n081(x86_64) 64 bit mpp version                                             DATE: 22-Jan-24          TIME: 10:56:15  
 **********************************************************************************************************************************

 SHA1:             9e8077add272b0f3cad6f7df79ec5211205f459d
 **********************************************************************************************************************************

 THRESHOLDS:

 ZERO    =  1.00D-12  ONEINT  =  1.00D-16  TWOINT  =  1.00D-16  PREFAC  =  1.00D-14  LOCALI  =  1.00D-09  EORDER  =  1.00D-04
 ENERGY  =  1.00D-12  ETEST   =  0.00D+00  EDENS   =  0.00D+00  THRDEDEF=  1.00D-06  GRADIENT=  1.00D-02  STEP    =  1.00D-03
 ORBITAL =  1.00D-10  CIVEC   =  1.00D-05  COEFF   =  1.00D-04  PRINTCI =  5.00D-02  PUNCHCI =  9.90D+01  OPTGRAD =  1.00D-06
 OPTENERG=  1.00D-06  OPTSTEP =  3.00D-04  THRGRAD =  1.00D-10  COMPRESS=  1.00D-13  VARMIN  =  1.00D-07  VARMAX  =  1.00D-03
 THRDOUB =  0.00D+00  THRDIV  =  1.00D-05  THRRED  =  1.00D-07  THRPSP  =  1.00D+00  THRDC   =  1.00D-10  THRCS   =  1.00D-10
 THRNRM  =  1.00D-08  THREQ   =  0.00D+00  THRDE   =  1.00D+00  THRREF  =  1.00D-05  SPARFAC =  1.00D+00  THRDLP  =  1.00D-07
 THRDIA  =  1.00D-10  THRDLS  =  1.00D-07  THRGPS  =  0.00D+00  THRKEX  =  0.00D+00  THRDIS  =  2.00D-01  THRVAR  =  1.00D-10
 THRLOC  =  1.00D-06  THRGAP  =  1.00D-06  THRLOCT = -1.00D+00  THRGAPT = -1.00D+00  THRORB  =  1.00D-06  THRMLTP =  0.00D+00
 THRCPQCI=  1.00D-10  KEXTA   =  0.00D+00  THRCOARS=  0.00D+00  SYMTOL  =  1.00D-06  GRADTOL =  1.00D-06  THROVL  =  1.00D-08
 THRORTH =  1.00D-08  GRID    =  1.00D-06  GRIDMAX =  1.00D-03  DTMAX   =  0.00D+00

 SETTING GEOMTYP        =    XYZ
 ZUNIT=BOHR
 

 Variable memory set to 1000000000 words,  buffer space   230000 words

 SETTING BASIS          =    CC-PVDZ


 Recomputing integrals since basis changed


 Using spherical harmonics

 Library entry O      S cc-pVDZ              selected for orbital group  1
 Library entry O      P cc-pVDZ              selected for orbital group  1
 Library entry O      D cc-pVDZ              selected for orbital group  1
 Library entry H      S cc-pVDZ              selected for orbital group  2
 Library entry H      P cc-pVDZ              selected for orbital group  2
 Library entry N      S cc-pVDZ              selected for orbital group  3
 Library entry N      P cc-pVDZ              selected for orbital group  3
 Library entry N      D cc-pVDZ              selected for orbital group  3

1PROGRAM * SEWARD (Integral evaluation for generally contracted gaussian basis sets)     Author: Roland Lindh, 1990

 Geometry written to block  1 of record 700


 Point group  Cs  



 ATOMIC COORDINATES

 NR  ATOM    CHARGE       X              Y              Z

   1  O       8.00   -3.223088567    0.068577244    0.000000000
   2  H       1.00   -1.397783401   -0.157648601    0.000000000
   3  H       1.00   -3.914371481   -1.610041392    0.000000000
   4  N       7.00    2.330381528   -0.026531931    0.000000000
   5  H       1.00    2.706231449    1.855057098    0.000000000
   6  H       1.00    3.206731172   -0.751855292   -1.544040131
   7  H       1.00    3.206731172   -0.751855292    1.544040131

 Bond lengths in Bohr (Angstrom)

 1-2  1.839270801  1-3  1.815387725  4-5  1.918760130  4-6  1.917848431  4-7  1.917848431
     ( 0.973300189)     ( 0.960661809)     ( 1.015364130)     ( 1.014881680)     ( 1.014881680)

 Bond angles

  2-1-3  105.31754143   5-4-6  106.34155885   5-4-7  106.34155885   6-4-7  107.23784946

 NUCLEAR CHARGE:                   20
 NUMBER OF PRIMITIVE AOS:          89
 NUMBER OF SYMMETRY AOS:           87
 NUMBER OF CONTRACTIONS:           53   (  37A'  +  16A"  )
 NUMBER OF CORE ORBITALS:           2   (   2A'  +   0A"  )
 NUMBER OF VALENCE ORBITALS:       13   (  10A'  +   3A"  )


 NUCLEAR REPULSION ENERGY   38.79594216


 Eigenvalues of metric

         1 0.155E-01 0.165E-01 0.392E-01 0.423E-01 0.452E-01 0.464E-01 0.664E-01 0.769E-01
         2 0.406E-01 0.768E-01 0.149E+00 0.183E+00 0.410E+00 0.531E+00 0.609E+00 0.633E+00


 Contracted 2-electron integrals neglected if value below      1.0D-16
 AO integral compression algorithm  1   Integral accuracy      1.0D-16

     4.981 MB (compressed) written to integral file ( 95.0%)

     Node minimum: 4.981 MB, node maximum: 4.981 MB


 NUMBER OF SORTED TWO-ELECTRON INTEGRALS:     543596.     BUFFER LENGTH:  32768
 NUMBER OF SEGMENTS:   1  SEGMENT LENGTH:     543596      RECORD LENGTH: 524288

 Memory used in sort:       1.10 MW

 SORT1 READ      652572. AND WROTE      537483. INTEGRALS IN      2 RECORDS. CPU TIME:     0.00 SEC, REAL TIME:     0.01 SEC
 SORT2 READ      537483. AND WROTE      543596. INTEGRALS IN     19 RECORDS. CPU TIME:     0.02 SEC, REAL TIME:     0.02 SEC

 FILE SIZES:   FILE 1:     6.7 MBYTE,  FILE 4:     8.4 MBYTE,   TOTAL:     15.1 MBYTE

 OPERATOR DM      FOR CENTER  0  COORDINATES:    0.000000    0.000000    0.000000


 **********************************************************************************************************************************
 DATASETS  * FILE   NREC   LENGTH (MB)   RECORD NAMES
              1      19        6.74       500      610      700      900      950      970     1000      129      960     1100   
                                          VAR    BASINP    GEOM    SYMINP    ZMAT    AOBASIS   BASIS     P2S    ABASIS      S 
                                         1400     1410     1200     1210     1080     1600     1650     1300     1700   
                                           T        V       H0       H01     AOSYM     SMH    MOLCAS    ERIS     OPER   

 PROGRAMS   *        TOTAL       INT
 CPU TIMES  *         0.20      0.16
 REAL TIME  *         0.40 SEC
 DISK USED  *        20.79 MB      
 GA USED    *         0.00 MB       (max)       0.00 MB       (current)
 **********************************************************************************************************************************

1PROGRAM * RHF-SCF (CLOSED SHELL)       Authors: W. Meyer, H.-J. Werner


 NUMBER OF ELECTRONS:      10+   10-
 CONVERGENCE THRESHOLDS:    1.00E-10 (Density)    1.00E-13 (Energy)
 MAX. NUMBER OF ITERATIONS:      200
 INTERPOLATION TYPE:            DIIS
 INTERPOLATION STEPS:              2 (START)      1 (STEP)
 LEVEL SHIFTS:                  0.00 (CLOSED)  0.00 (OPEN) 



 Orbital guess generated from atomic densities. Full valence occupancy:   12   3

 Molecular orbital dump at record        2100.2

 Initial alpha occupancy:   8   2
 Initial beta  occupancy:   8   2
 Wave function symmetry:    1

 ITERATION    DDIFF          GRAD             ENERGY        2-EL.EN.            DIPOLE MOMENTS         DIIS
    1      0.000D+00      0.000D+00      -132.17174105    177.628787    1.76925   -0.80329    0.00000    0
    2      0.000D+00      0.178D-01      -132.21975691    172.701813    1.38119   -0.47930    0.00000    1
    3      0.336D-01      0.880D-02      -132.23120541    174.644531    1.41829   -0.55072    0.00000    2
    4      0.108D-01      0.124D-02      -132.23167322    174.494737    1.39667   -0.53918    0.00000    3
    5      0.260D-02      0.299D-03      -132.23170164    174.492056    1.38944   -0.53780    0.00000    4
    6      0.626D-03      0.876D-04      -132.23170360    174.499824    1.38838   -0.53710    0.00000    5
    7      0.163D-03      0.275D-04      -132.23170386    174.497511    1.38768   -0.53707    0.00000    6
    8      0.539D-04      0.406D-05      -132.23170387    174.497489    1.38754   -0.53702    0.00000    7
    9      0.116D-04      0.657D-06      -132.23170387    174.497476    1.38752   -0.53702    0.00000    6
   10      0.148D-05      0.167D-06      -132.23170387    174.497473    1.38752   -0.53702    0.00000    6
   11      0.394D-06      0.470D-07      -132.23170387    174.497478    1.38752   -0.53702    0.00000    6
   12      0.124D-06      0.131D-07      -132.23170387    174.497475    1.38752   -0.53702    0.00000    6
   13      0.277D-07      0.499D-08      -132.23170387    174.497476    1.38752   -0.53702    0.00000    6
   14      0.945D-08      0.108D-08      -132.23170387    174.497476    1.38752   -0.53702    0.00000    7
   15      0.237D-08      0.359D-09      -132.23170387    174.497476    1.38752   -0.53702    0.00000    7
   16      0.705D-09      0.118D-09      -132.23170387    174.497476    1.38752   -0.53702    0.00000    7
   17      0.259D-09      0.242D-10      -132.23170387    174.497476    1.38752   -0.53702    0.00000    7
   18      0.703D-10      0.386D-11      -132.23170387    174.497476    1.38752   -0.53702    0.00000    7
   19      0.817D-11      0.878D-12      -132.23170387    174.497476    1.38752   -0.53702    0.00000    6
   20      0.176D-11      0.246D-12      -132.23170387    174.497476    1.38752   -0.53702    0.00000    7
   21      0.505D-12      0.986D-13      -132.23170387    174.497476    1.38752   -0.53702    0.00000    7
   22      0.194D-12      0.331D-13      -132.23170387    174.497476    1.38752   -0.53702    0.00000    7
   23      0.716D-13      0.812D-14      -132.23170387    174.497476    1.38752   -0.53702    0.00000    0

 Final occupancy:   8   2

 !RHF STATE 1.1 Energy               -132.231703869158
 Nuclear energy                        38.79594216
 One-electron energy                 -258.27638417
 Two-electron energy                   87.24873814
 Virial quotient                       -1.00120576
 !RHF STATE 1.1 Dipole moment           1.38752044    -0.53702331     0.00000000
 Dipole moment /Debye                   3.52649421    -1.36488770     0.00000000

 Orbital energies:

         1.1          2.1          3.1          4.1          5.1          6.1          7.1          8.1          9.1         10.1
    -20.502505   -15.568217    -1.287789    -1.161172    -0.659027    -0.641608    -0.527976    -0.446192     0.166274     0.237485

         1.2          2.2          3.2          4.2
     -0.645985    -0.448983     0.251763     0.702848


 **********************************************************************************************************************************
 DATASETS  * FILE   NREC   LENGTH (MB)   RECORD NAMES
              1      19        6.74       500      610      700      900      950      970     1000      129      960     1100   
                                          VAR    BASINP    GEOM    SYMINP    ZMAT    AOBASIS   BASIS     P2S    ABASIS      S 
                                         1400     1410     1200     1210     1080     1600     1650     1300     1700   
                                           T        V       H0       H01     AOSYM     SMH    MOLCAS    ERIS     OPER   

              2       3        0.39       700     1000     2100   
                                         GEOM     BASIS     RHF  

 PROGRAMS   *        TOTAL       RHF       INT
 CPU TIMES  *         0.27      0.07      0.16
 REAL TIME  *         0.50 SEC
 DISK USED  *        20.79 MB      
 GA USED    *         0.00 MB       (max)       0.00 MB       (current)
 **********************************************************************************************************************************


1PROGRAM * MP2 (Closed-shell)     Authors: C. Hampel, H.-J. Werner, 1991, M. Deegan, P.J. Knowles, 1992


 Convergence thresholds:  THRVAR = 1.00D-08  THRDEN = 1.00D-12

 Number of core orbitals:           2 (   2   0 )
 Number of closed-shell orbitals:   8 (   6   2 )
 Number of external orbitals:      43 (  29  14 )

 Molecular orbitals read from record     2100.2  Type=RHF/CANONICAL (state 1.1)

 Number of N-1 electron functions:               8
 Number of N-2 electron functions:              36
 Number of singly external CSFs:               202
 Number of doubly external CSFs:             30656
 Total number of CSFs:                       30859

 Length of J-op  integral file:               0.00 MB
 Length of K-op  integral file:               0.14 MB

 Integral transformation finished. Total CPU:   0.01 sec, npass=  1  Memory used:   0.14 MW

 Memory needed for MP2:                      0.01 MW

 SCS-MP2 correlation energy:           -0.387703091862   (PS=  1.200000  PT=  0.333333)
 SCS-MP2 total energy:               -132.619406961020


  Reference energy                   -132.231703869158
  MP2 singlet pair energy              -0.249250994100
  MP2 triplet pair energy              -0.142395909014
  MP2 correlation energy               -0.391646903114

 !MP2 total energy                   -132.623350772272


 **********************************************************************************************************************************
 DATASETS  * FILE   NREC   LENGTH (MB)   RECORD NAMES
              1      20        7.43       500      610      700      900      950      970     1000      129      960     1100   
                                          VAR    BASINP    GEOM    SYMINP    ZMAT    AOBASIS   BASIS     P2S    ABASIS      S 
                                         1400     1410     1200     1210     1080     1600     1650     1300     1700     1380   
                                           T        V       H0       H01     AOSYM     SMH    MOLCAS    ERIS     OPER     JKOP   

              2       3        0.39       700     1000     2100   
                                         GEOM     BASIS     RHF  

 PROGRAMS   *        TOTAL       MP2       RHF       INT
 CPU TIMES  *         0.29      0.01      0.07      0.16
 REAL TIME  *         0.54 SEC
 DISK USED  *        20.79 MB      
 GA USED    *         0.00 MB       (max)       0.00 MB       (current)
 **********************************************************************************************************************************

        MP2             RHF-SCF 
   -132.62335077   -132.23170387
 **********************************************************************************************************************************
 Variable memory released
