
 Primary working directories    : /tmp/1049102.115.gen4.q
 Secondary working directories  : /tmp/1049102.115.gen4.q
 Wavefunction directory         : /home/vulcan/mel64643/wfu/
 Main file repository           : /tmp/1049102.115.gen4.q/

 ARCHNAME  : Linux/x86_64
 FC        : /opt/intel/compilers_and_libraries_2016.1.150/linux/bin/intel64/ifort
 FCVERSION : 16.0.1
 BLASLIB   : -mkl
 id        : ccgc

 Nodes     nprocs
 n061         1
 ga_uses_ma=false, calling ma_init with nominal heap.
 GA-space will be limited to   8.0 MW (determined by -G option)

 Using customized tuning parameters: mindgm=10; mindgv=16; mindgc=4; mindgr=1; noblas=0; mincuda=1000; minvec=7
 default implementation of scratch files=df  

 ***,Optimization of h2o_3
 memory,1000,m
 gthresh,energy=1.0d-12,orbital=1.0d-10,oneint=1.0d-16,twoint=1.0d-16,optgrad=1.0d-6,compress=1.0d-13
 geomtyp=xyz
 
 
 
 bohr
 geometry = {
  C    0.9127589400    1.4073935201   -2.2716459572
  C    0.7373078072    2.7091410353    0.0163264164
  C    0.9962842213    1.4036915706    2.3038507652
  C    1.4283164946   -1.1995311726    2.2963460953
  C    1.6050374411   -2.5048148545    0.0013342283
  C    1.3469166767   -1.2031684929   -2.2789279122
  H    0.7032440711    2.4166506377   -4.0414272515
  H    0.3864482093    4.7266997484    0.0221954814
  H    0.8548469836    2.4136781078    4.0801841388
  H    1.6260992170   -2.2098492032    4.0672870422
  H    1.9383903373   -4.5258192307   -0.0045280385
  H    1.4812617786   -2.2137685956   -4.0557489837
  N   -5.4353086261   -0.3565257726   -0.0707190453
  H   -5.5841377699   -1.5678711906   -1.5511872585
  H   -6.0619461658   -1.3146232088    1.4689287136
  H   -3.5545877491   -0.0730724966    0.1978092426
 }
 
 basis=aug-cc-pvdz, H=cc-pvdz
 {rhf;maxit,200}
 {ccsd(t)}

 Variables initialized (661), CPU time= 0.01 sec
 Commands  initialized (458), CPU time= 0.00 sec, 486 directives.
 Default parameters read. Elapsed time= 0.05 sec

 Checking input...
 Passed
1


                                         ***  PROGRAM SYSTEM MOLPRO  ***
                         Copyright, University College Cardiff Consultants Limited, 2008

                                    Version 2010.1 linked May 16 2016 07:17:05


 **********************************************************************************************************************************
 LABEL *   Optimization of h2o_3                                                         
 Linux-4.4.3/n061(x86_64) 64 bit mpp version                                             DATE: 18-Mar-24          TIME: 15:43:37  
 **********************************************************************************************************************************

 SHA1:             9e8077add272b0f3cad6f7df79ec5211205f459d
 **********************************************************************************************************************************

 THRESHOLDS:

 ZERO    =  1.00D-12  ONEINT  =  1.00D-16  TWOINT  =  1.00D-16  PREFAC  =  1.00D-14  LOCALI  =  1.00D-09  EORDER  =  1.00D-04
 ENERGY  =  1.00D-12  ETEST   =  0.00D+00  EDENS   =  0.00D+00  THRDEDEF=  1.00D-06  GRADIENT=  1.00D-02  STEP    =  1.00D-03
 ORBITAL =  1.00D-10  CIVEC   =  1.00D-05  COEFF   =  1.00D-04  PRINTCI =  5.00D-02  PUNCHCI =  9.90D+01  OPTGRAD =  1.00D-06
 OPTENERG=  1.00D-06  OPTSTEP =  3.00D-04  THRGRAD =  1.00D-10  COMPRESS=  1.00D-13  VARMIN  =  1.00D-07  VARMAX  =  1.00D-03
 THRDOUB =  0.00D+00  THRDIV  =  1.00D-05  THRRED  =  1.00D-07  THRPSP  =  1.00D+00  THRDC   =  1.00D-10  THRCS   =  1.00D-10
 THRNRM  =  1.00D-08  THREQ   =  0.00D+00  THRDE   =  1.00D+00  THRREF  =  1.00D-05  SPARFAC =  1.00D+00  THRDLP  =  1.00D-07
 THRDIA  =  1.00D-10  THRDLS  =  1.00D-07  THRGPS  =  0.00D+00  THRKEX  =  0.00D+00  THRDIS  =  2.00D-01  THRVAR  =  1.00D-10
 THRLOC  =  1.00D-06  THRGAP  =  1.00D-06  THRLOCT = -1.00D+00  THRGAPT = -1.00D+00  THRORB  =  1.00D-06  THRMLTP =  0.00D+00
 THRCPQCI=  1.00D-10  KEXTA   =  0.00D+00  THRCOARS=  0.00D+00  SYMTOL  =  1.00D-06  GRADTOL =  1.00D-06  THROVL  =  1.00D-08
 THRORTH =  1.00D-08  GRID    =  1.00D-06  GRIDMAX =  1.00D-03  DTMAX   =  0.00D+00

 SETTING GEOMTYP        =    XYZ
 ZUNIT=BOHR
 

 Variable memory set to 1000000000 words,  buffer space   230000 words

 SETTING BASIS          =    AUG-CC-PVDZ,H=CC-PVDZ


 Recomputing integrals since basis changed


 Using spherical harmonics

 Library entry C      S aug-cc-pVDZ          selected for orbital group  1
 Library entry C      P aug-cc-pVDZ          selected for orbital group  1
 Library entry C      D aug-cc-pVDZ          selected for orbital group  1
 Library entry H      S cc-pVDZ              selected for orbital group  2
 Library entry H      P cc-pVDZ              selected for orbital group  2
 Library entry N      S aug-cc-pVDZ          selected for orbital group  3
 Library entry N      P aug-cc-pVDZ          selected for orbital group  3
 Library entry N      D aug-cc-pVDZ          selected for orbital group  3

1PROGRAM * SEWARD (Integral evaluation for generally contracted gaussian basis sets)     Author: Roland Lindh, 1990

 Geometry written to block  1 of record 700


 Point group  C1  



 ATOMIC COORDINATES

 NR  ATOM    CHARGE       X              Y              Z

   1  C       6.00    0.912758940    1.407393520   -2.271645957
   2  C       6.00    0.737307807    2.709141035    0.016326416
   3  C       6.00    0.996284221    1.403691571    2.303850765
   4  C       6.00    1.428316495   -1.199531173    2.296346095
   5  C       6.00    1.605037441   -2.504814855    0.001334228
   6  C       6.00    1.346916677   -1.203168493   -2.278927912
   7  H       1.00    0.703244071    2.416650638   -4.041427252
   8  H       1.00    0.386448209    4.726699748    0.022195481
   9  H       1.00    0.854846984    2.413678108    4.080184139
  10  H       1.00    1.626099217   -2.209849203    4.067287042
  11  H       1.00    1.938390337   -4.525819231   -0.004528038
  12  H       1.00    1.481261779   -2.213768596   -4.055748984
  13  N       7.00   -5.435308626   -0.356525773   -0.070719045
  14  H       1.00   -5.584137770   -1.567871191   -1.551187258
  15  H       1.00   -6.061946166   -1.314623209    1.468928714
  16  H       1.00   -3.554587749   -0.073072497    0.197809243

 Bond lengths in Bohr (Angstrom)

 1-2  2.638209104  1-6  2.646427779  1-7  2.048077694  2-3  2.646513694  2-8  2.047847666
     ( 1.396080130)     ( 1.400429266)     ( 1.083796038)     ( 1.400474730)     ( 1.083674312)

  3- 4  2.638840059   3- 9  2.048276727   4- 5  2.646143468   4-10  2.048436566   5- 6  2.638276902
       ( 1.396414017)       ( 1.083901362)       ( 1.400278815)       ( 1.083985945)       ( 1.396116007)

  5-11  2.048320582   6-12  2.048524907  13-14  1.918669843  13-15  1.918629856  13-16  1.920823838
       ( 1.083924569)       ( 1.084032693)       ( 1.015316352)       ( 1.015295192)       ( 1.016456198)

 Bond angles

  1- 2- 3  119.98068058   1- 2- 8  120.00016943   1- 6- 5  120.02354296   1- 6-12  119.98612935

  2-1-6  120.00200951   2-1-7  119.96357398   2-3-4  120.01166823   2-3-9  119.97430433

  3- 2- 8  120.01747298   3- 4- 5  120.00134479   3- 4-10  119.99379282   4- 3- 9  120.01369572

  4- 5- 6  119.98072599   4- 5-11  120.00333699   5- 4-10  120.00485768   5- 6-12  119.99031314

  6- 1- 7  120.03367660   6- 5-11  120.01582302  14-13-15  106.17607578  14-13-16  106.08043224

 15-13-16  106.33745553

 NUCLEAR CHARGE:                   52
 NUMBER OF PRIMITIVE AOS:         322
 NUMBER OF SYMMETRY AOS:          308
 NUMBER OF CONTRACTIONS:          206   ( 206A   )
 NUMBER OF CORE ORBITALS:           7   (   7A   )
 NUMBER OF VALENCE ORBITALS:       37   (  37A   )


 NUCLEAR REPULSION ENERGY  273.78571797


 Eigenvalues of metric

         1 0.861E-05 0.184E-04 0.228E-04 0.532E-04 0.642E-04 0.644E-04 0.107E-03 0.107E-03


 Contracted 2-electron integrals neglected if value below      1.0D-16
 AO integral compression algorithm  1   Integral accuracy      1.0D-16

     1893.728 MB (compressed) written to integral file ( 94.6%)

     Node minimum: 1893.728 MB, node maximum: 1893.728 MB


 NUMBER OF SORTED TWO-ELECTRON INTEGRALS:  227303181.     BUFFER LENGTH:  32768
 NUMBER OF SEGMENTS:  15  SEGMENT LENGTH:   15999503      RECORD LENGTH: 524288

 Memory used in sort:      16.56 MW

 SORT1 READ   250230697. AND WROTE   226415530. INTEGRALS IN    654 RECORDS. CPU TIME:     2.40 SEC, REAL TIME:     6.10 SEC
 SORT2 READ   226415530. AND WROTE   227303181. INTEGRALS IN   7224 RECORDS. CPU TIME:     1.43 SEC, REAL TIME:     2.31 SEC

 FILE SIZES:   FILE 1:  1744.2 MBYTE,  FILE 4:  2743.1 MBYTE,   TOTAL:   4487.3 MBYTE

 OPERATOR DM      FOR CENTER  0  COORDINATES:    0.000000    0.000000    0.000000


 **********************************************************************************************************************************
 DATASETS  * FILE   NREC   LENGTH (MB)   RECORD NAMES
              1      19     1744.73       500      610      700      900      950      970     1000      129      960     1100   
                                          VAR    BASINP    GEOM    SYMINP    ZMAT    AOBASIS   BASIS     P2S    ABASIS      S 
                                         1400     1410     1200     1210     1080     1600     1650     1300     1700   
                                           T        V       H0       H01     AOSYM     SMH    MOLCAS    ERIS     OPER   

 PROGRAMS   *        TOTAL       INT
 CPU TIMES  *        14.69     14.64
 REAL TIME  *        20.34 SEC
 DISK USED  *         6.38 GB      
 GA USED    *         0.01 MB       (max)       0.00 MB       (current)
 **********************************************************************************************************************************

1PROGRAM * RHF-SCF (CLOSED SHELL)       Authors: W. Meyer, H.-J. Werner


 NUMBER OF ELECTRONS:      26+   26-    SPACE SYMMETRY=1    SPIN SYMMETRY: Singlet 
 CONVERGENCE THRESHOLDS:    1.00E-10 (Density)    1.00E-13 (Energy)
 MAX. NUMBER OF ITERATIONS:      200
 INTERPOLATION TYPE:            DIIS
 INTERPOLATION STEPS:              2 (START)      1 (STEP)
 LEVEL SHIFTS:                  0.00 (CLOSED)  0.00 (OPEN) 



 Orbital guess generated from atomic densities. Full valence occupancy:   44

 Molecular orbital dump at record        2100.2

 ITERATION    DDIFF          GRAD             ENERGY        2-EL.EN.            DIPOLE MOMENTS         DIIS
    1      0.000D+00      0.000D+00      -286.85319765    741.033154    0.52001   -0.76791    0.13622    0
    2      0.000D+00      0.322D-02      -286.92075703    735.244117    0.43543   -0.38403    0.06231    1
    3      0.826D-02      0.133D-02      -286.93008376    737.875387    0.45198   -0.52272    0.09239    2
    4      0.218D-02      0.381D-03      -286.93130171    737.355721    0.45047   -0.49591    0.08460    3
    5      0.783D-03      0.526D-04      -286.93132555    737.344453    0.45631   -0.50605    0.08858    4
    6      0.135D-03      0.177D-04      -286.93132800    737.359355    0.45516   -0.50053    0.08649    5
    7      0.511D-04      0.555D-05      -286.93132828    737.356279    0.45581   -0.50275    0.08724    6
    8      0.150D-04      0.132D-05      -286.93132830    737.355269    0.45596   -0.50240    0.08710    7
    9      0.423D-05      0.570D-06      -286.93132831    737.355738    0.45599   -0.50249    0.08714    7
   10      0.155D-05      0.177D-06      -286.93132831    737.355682    0.45600   -0.50249    0.08713    7
   11      0.639D-06      0.644D-07      -286.93132831    737.355667    0.45601   -0.50249    0.08713    7
   12      0.242D-06      0.299D-07      -286.93132831    737.355685    0.45601   -0.50249    0.08713    8
   13      0.114D-06      0.124D-07      -286.93132831    737.355676    0.45601   -0.50249    0.08713    8
   14      0.564D-07      0.451D-08      -286.93132831    737.355680    0.45601   -0.50249    0.08714    8
   15      0.187D-07      0.147D-08      -286.93132831    737.355678    0.45601   -0.50249    0.08713    9
   16      0.538D-08      0.307D-09      -286.93132831    737.355679    0.45601   -0.50249    0.08713    9
   17      0.110D-08      0.109D-09      -286.93132831    737.355679    0.45601   -0.50249    0.08713    8
   18      0.447D-09      0.552D-10      -286.93132831    737.355679    0.45601   -0.50249    0.08713    8
   19      0.219D-09      0.273D-10      -286.93132831    737.355679    0.45601   -0.50249    0.08713    9
   20      0.228D-09      0.114D-10      -286.93132831    737.355679    0.45601   -0.50249    0.08713    9
   21      0.221D-09      0.281D-11      -286.93132831    737.355679    0.45601   -0.50249    0.08713    8
   22      0.153D-09      0.117D-11      -286.93132831    737.355679    0.45601   -0.50249    0.08713    9
   23      0.110D-09      0.733D-12      -286.93132831    737.355679    0.45601   -0.50249    0.08713    9
   24      0.906D-10      0.758D-12      -286.93132831    737.355679    0.45601   -0.50249    0.08713    9
   25      0.756D-10      0.642D-12      -286.93132831    737.355679    0.45601   -0.50249    0.08713    9
   26      0.342D-10      0.536D-12      -286.93132831    737.355679    0.45601   -0.50249    0.08713    9
   27      0.265D-10      0.547D-12      -286.93132831    737.355679    0.45601   -0.50249    0.08713    9
   28      0.341D-10      0.573D-12      -286.93132831    737.355679    0.45601   -0.50249    0.08713    9
   29      0.215D-10      0.458D-12      -286.93132831    737.355679    0.45601   -0.50249    0.08713    9
   30      0.166D-10      0.501D-12      -286.93132831    737.355679    0.45601   -0.50249    0.08713    9
   31      0.117D-10      0.465D-12      -286.93132831    737.355679    0.45601   -0.50249    0.08713    0

 Final occupancy:  26

 !RHF STATE 1.1 Energy               -286.931328308537
 Nuclear energy                       273.78571797
 One-electron energy                 -929.39488555
 Two-electron energy                  368.67783927
 Virial quotient                       -1.00146371
 !RHF STATE 1.1 Dipole moment           0.45600593    -0.50249229     0.08713491
 Dipole moment /Debye                   1.15897554    -1.27712436     0.22146035

 Orbital energies:

         1.1          2.1          3.1          4.1          5.1          6.1          7.1          8.1          9.1         10.1
    -15.534930   -11.250639   -11.250039   -11.249671   -11.248807   -11.248670   -11.247827    -1.157525    -1.125499    -1.022075

        11.1         12.1         13.1         14.1         15.1         16.1         17.1         18.1         19.1         20.1
     -1.021961    -0.830643    -0.830539    -0.714514    -0.650459    -0.623927    -0.611672    -0.609766    -0.593596    -0.593461

        21.1         22.1         23.1         24.1         25.1         26.1         27.1         28.1
     -0.504875    -0.500106    -0.500022    -0.413380    -0.343002    -0.341998     0.063886     0.066421


 **********************************************************************************************************************************
 DATASETS  * FILE   NREC   LENGTH (MB)   RECORD NAMES
              1      19     1744.73       500      610      700      900      950      970     1000      129      960     1100   
                                          VAR    BASINP    GEOM    SYMINP    ZMAT    AOBASIS   BASIS     P2S    ABASIS      S 
                                         1400     1410     1200     1210     1080     1600     1650     1300     1700   
                                           T        V       H0       H01     AOSYM     SMH    MOLCAS    ERIS     OPER   

              2       3        1.40       700     1000     2100   
                                         GEOM     BASIS     RHF  

 PROGRAMS   *        TOTAL       RHF       INT
 CPU TIMES  *        68.61     53.92     14.64
 REAL TIME  *        80.10 SEC
 DISK USED  *         6.38 GB      
 GA USED    *         0.01 MB       (max)       0.00 MB       (current)
 **********************************************************************************************************************************


1PROGRAM * CCSD (Closed-shell coupled cluster)     Authors: C. Hampel, H.-J. Werner, 1991, M. Deegan, P.J. Knowles, 1992


 Convergence thresholds:  THRVAR = 1.00D-08  THRDEN = 1.00D-12

 CCSD(T)     terms to be evaluated (factor= 1.000)


 Number of core orbitals:           7 (   7 )
 Number of closed-shell orbitals:  19 (  19 )
 Number of external orbitals:     180 ( 180 )

 Molecular orbitals read from record     2100.2  Type=RHF/CANONICAL (state 1.1)

 Number of N-1 electron functions:              19
 Number of N-2 electron functions:             190
 Number of singly external CSFs:              3420
 Number of doubly external CSFs:           5849910
 Total number of CSFs:                     5853331

 Length of J-op  integral file:               0.00 MB
 Length of K-op  integral file:               2.96 MB
 Length of 3-ext integral record:             0.00 MB

 Memory could be reduced to 140.12 Mwords without degradation in triples

 Integral transformation finished. Total CPU:  13.97 sec, npass=  1  Memory used: 101.90 MW

 Reference energy:                   -286.93132831

 MP2 singlet pair energy:              -0.62064329
 MP2 triplet pair energy:              -0.38985574
 MP2 correlation energy:               -1.01049903
 MP2 total energy:                   -287.94182734

 SCS-MP2 correlation energy:           -0.98734886   (PS=  1.200000  PT=  0.333333)
 SCS-MP2 total energy:               -287.91867717

 ITER.      SQ.NORM     CORR.ENERGY   TOTAL ENERGY   ENERGY CHANGE        DEN1      VAR(S)    VAR(P)  DIIS     TIME
   1      1.38488477    -1.05478548  -287.98611379    -0.04428645    -0.01720713  0.36D-02  0.80D-02  1  1    50.87
   2      1.41439695    -1.06064748  -287.99197579    -0.00586200    -0.02705289  0.63D-04  0.10D-02  2  2    88.25
   3      1.42352790    -1.06074312  -287.99207143    -0.00009564    -0.00464346  0.27D-04  0.84D-04  3  3   125.64
   4      1.42746485    -1.06091179  -287.99224010    -0.00016867    -0.00121409  0.22D-05  0.11D-04  4  4   163.07
   5      1.42867843    -1.06094275  -287.99227105    -0.00003096    -0.00027320  0.27D-06  0.13D-05  5  5   200.54
   6      1.42898103    -1.06093251  -287.99226082     0.00001023    -0.00004348  0.23D-07  0.80D-07  6  6   237.99
   7      1.42902181    -1.06093414  -287.99226245    -0.00000163    -0.00000103  0.36D-08  0.82D-08  6  2   275.47
   8      1.42903102    -1.06093400  -287.99226231     0.00000014    -0.00000117  0.81D-09  0.77D-09  6  1   312.93
   9      1.42903086    -1.06093413  -287.99226244    -0.00000014     0.00000123  0.23D-09  0.97D-10  6  4   350.41
  10      1.42903208    -1.06093415  -287.99226245    -0.00000001    -0.00000018  0.66D-10  0.17D-10  6  3   387.90
  11      1.42903205    -1.06093416  -287.99226247    -0.00000002     0.00000013  0.16D-10  0.45D-11  6  5   425.39
  12      1.42903201    -1.06093416  -287.99226247    -0.00000000     0.00000003  0.20D-11  0.13D-11  6  6   462.86
  13      1.42903182    -1.06093417  -287.99226248    -0.00000000     0.00000006  0.24D-12  0.27D-12  6  2   500.32
  14      1.42903171    -1.06093417  -287.99226248    -0.00000000     0.00000003  0.67D-13  0.56D-13  6  1   537.78
  15      1.42903164    -1.06093417  -287.99226248    -0.00000000     0.00000002  0.18D-13  0.85D-14  6  3   575.25
  16      1.42903162    -1.06093417  -287.99226248    -0.00000000     0.00000000  0.44D-14  0.12D-14  6  4   612.72
  17      1.42903162    -1.06093417  -287.99226248     0.00000000    -0.00000000  0.14D-14  0.45D-15  6  5   650.22
  18      1.42903162    -1.06093417  -287.99226248     0.00000000    -0.00000000  0.20D-15  0.11D-15  6  6   687.70
  19      1.42903162    -1.06093417  -287.99226248     0.00000000    -0.00000000  0.25D-16  0.19D-16  6  2   725.16
  20      1.42903162    -1.06093417  -287.99226248     0.00000000    -0.00000000  0.85D-17  0.32D-17  6  1   762.65
  21      1.42903162    -1.06093417  -287.99226248     0.00000000    -0.00000000  0.29D-17  0.79D-18  6  3   800.12
  22      1.42903162    -1.06093417  -287.99226248     0.00000000    -0.00000000  0.89D-18  0.26D-18  6  4   837.60
  23      1.42903162    -1.06093417  -287.99226248     0.00000000    -0.00000000  0.28D-18  0.10D-18  6  5   875.06
  24      1.42903162    -1.06093417  -287.99226248     0.00000000    -0.00000000  0.88D-19  0.44D-19  6  6   912.54

 Norm of t1 vector:      0.08386290      S-energy:     0.00000000      T1 diagnostic:  0.00961973
                                                                       D1 diagnostic:  0.02621001

 Doubles amplitudes (print threshold =  0.500E-01):

         I         J         SYM. A    SYM. B    A         B      T(IJ, AB)

        18        18         1         1         6         6     -0.05115222
        19        19         1         1         7         7     -0.05443353


 Total CPU time for triples:    733.37 sec


 RESULTS
 =======

  Reference energy                   -286.931328308538
  CCSD singlet pair energy             -0.711163766621
  CCSD triplet pair energy             -0.349770402610
  CCSD correlation energy              -1.060934169229

  Triples (T) contribution             -0.045606741005
  Total correlation energy             -1.106540910234

  CCSD total energy                  -287.992262477767
  CCSD[T] energy                     -288.038739599269
  CCSD-T energy                      -288.037480557152
 !CCSD(T) total energy               -288.037869218772

 Timing summary (sec):

 STEP                 CPU(USER)    SYS     CPU(TOT)    WALL
 Transformation         14.38      0.85     15.23     15.22
 CCSD iterations       898.18     12.82    911.00    911.25
 Triples               733.37     11.36    744.73    744.81

 Program statistics:

 Available memory in ccsd:               999998456
 Min. memory needed in ccsd:              14392275
 Max. memory used in ccsd:                19775697
 Max. memory used in cckext:              16737545 (24 integral passes)



 **********************************************************************************************************************************
 DATASETS  * FILE   NREC   LENGTH (MB)   RECORD NAMES
              1      20     2288.33       500      610      700      900      950      970     1000      129      960     1100   
                                          VAR    BASINP    GEOM    SYMINP    ZMAT    AOBASIS   BASIS     P2S    ABASIS      S 
                                         1400     1410     1200     1210     1080     1600     1650     1300     1700     1380   
                                           T        V       H0       H01     AOSYM     SMH    MOLCAS    ERIS     OPER     JKOP   

              2       3        1.40       700     1000     2100   
                                         GEOM     BASIS     RHF  

 PROGRAMS   *        TOTAL   CCSD(T)       RHF       INT
 CPU TIMES  *      1714.56   1645.94     53.92     14.64
 REAL TIME  *      1751.50 SEC
 DISK USED  *         6.38 GB      
 GA USED    *         0.01 MB       (max)       0.00 MB       (current)
 **********************************************************************************************************************************

        CCSD(T)         RHF-SCF 
   -288.03786922   -286.93132831
 **********************************************************************************************************************************
 Variable memory released
