
 Primary working directories    : /tmp/943168.509.gen4.q
 Secondary working directories  : /tmp/943168.509.gen4.q
 Wavefunction directory         : /home/vulcan/mel64643/wfu/
 Main file repository           : /tmp/943168.509.gen4.q/

 ARCHNAME  : Linux/x86_64
 FC        : /opt/intel/compilers_and_libraries_2016.1.150/linux/bin/intel64/ifort
 FCVERSION : 16.0.1
 BLASLIB   : -mkl
 id        : ccgc

 Nodes     nprocs
 n056         1
 ga_uses_ma=false, calling ma_init with nominal heap.
 GA-space will be limited to   8.0 MW (determined by -G option)

 Using customized tuning parameters: mindgm=10; mindgv=16; mindgc=4; mindgr=1; noblas=0; mincuda=1000; minvec=7
 default implementation of scratch files=df  

 ***,Optimization of h2o_2
 memory,1000,m
 gthresh,energy=1.0d-12,orbital=1.0d-10,oneint=1.0d-16,twoint=1.0d-16,optgrad=1.0d-6,compress=1.0d-13
 geomtyp=xyz
 
 bohr
 geometry = {
  C    0.0007816532   -3.4200799300    0.0004224768
  H   -0.9701504253   -2.7180634503   -1.6751429310
  H   -0.9604515068   -2.7304129531    1.6866745198
  H    1.9460758721   -2.7426782184   -0.0027013360
  H   -0.0122883076   -5.4798365585   -0.0071062476
  C   -0.0020128314    3.4234169532   -0.0025114786
  H   -0.0140564867    5.4831904425   -0.0061178838
  H    0.9823481861    2.7309406920   -1.6742069326
  H    0.9666410585    2.7367228779    1.6807046631
  H   -1.9368872121    2.7168001448   -0.0000148501
 }
 
 basis=AVDZ
 {rhf;maxit,200}
 {ccsd(t);maxit,200}

 Variables initialized (661), CPU time= 0.01 sec
 Commands  initialized (458), CPU time= 0.00 sec, 486 directives.
 Default parameters read. Elapsed time= 0.05 sec

 Checking input...
 Passed
1


                                         ***  PROGRAM SYSTEM MOLPRO  ***
                         Copyright, University College Cardiff Consultants Limited, 2008

                                    Version 2010.1 linked May 16 2016 07:17:05


 **********************************************************************************************************************************
 LABEL *   Optimization of h2o_2                                                         
 Linux-4.4.3/n056(x86_64) 64 bit mpp version                                             DATE: 23-Oct-23          TIME: 11:12:19  
 **********************************************************************************************************************************

 SHA1:             9e8077add272b0f3cad6f7df79ec5211205f459d
 **********************************************************************************************************************************

 THRESHOLDS:

 ZERO    =  1.00D-12  ONEINT  =  1.00D-16  TWOINT  =  1.00D-16  PREFAC  =  1.00D-14  LOCALI  =  1.00D-09  EORDER  =  1.00D-04
 ENERGY  =  1.00D-12  ETEST   =  0.00D+00  EDENS   =  0.00D+00  THRDEDEF=  1.00D-06  GRADIENT=  1.00D-02  STEP    =  1.00D-03
 ORBITAL =  1.00D-10  CIVEC   =  1.00D-05  COEFF   =  1.00D-04  PRINTCI =  5.00D-02  PUNCHCI =  9.90D+01  OPTGRAD =  1.00D-06
 OPTENERG=  1.00D-06  OPTSTEP =  3.00D-04  THRGRAD =  1.00D-10  COMPRESS=  1.00D-13  VARMIN  =  1.00D-07  VARMAX  =  1.00D-03
 THRDOUB =  0.00D+00  THRDIV  =  1.00D-05  THRRED  =  1.00D-07  THRPSP  =  1.00D+00  THRDC   =  1.00D-10  THRCS   =  1.00D-10
 THRNRM  =  1.00D-08  THREQ   =  0.00D+00  THRDE   =  1.00D+00  THRREF  =  1.00D-05  SPARFAC =  1.00D+00  THRDLP  =  1.00D-07
 THRDIA  =  1.00D-10  THRDLS  =  1.00D-07  THRGPS  =  0.00D+00  THRKEX  =  0.00D+00  THRDIS  =  2.00D-01  THRVAR  =  1.00D-10
 THRLOC  =  1.00D-06  THRGAP  =  1.00D-06  THRLOCT = -1.00D+00  THRGAPT = -1.00D+00  THRORB  =  1.00D-06  THRMLTP =  0.00D+00
 THRCPQCI=  1.00D-10  KEXTA   =  0.00D+00  THRCOARS=  0.00D+00  SYMTOL  =  1.00D-06  GRADTOL =  1.00D-06  THROVL  =  1.00D-08
 THRORTH =  1.00D-08  GRID    =  1.00D-06  GRIDMAX =  1.00D-03  DTMAX   =  0.00D+00

 SETTING GEOMTYP        =    XYZ
 ZUNIT=BOHR
 

 Variable memory set to 1000000000 words,  buffer space   230000 words

 SETTING BASIS          =    AVDZ


 Recomputing integrals since basis changed


 Using spherical harmonics

 Library entry C      S aug-cc-pVDZ          selected for orbital group  1
 Library entry C      P aug-cc-pVDZ          selected for orbital group  1
 Library entry C      D aug-cc-pVDZ          selected for orbital group  1
 Library entry H      S aug-cc-pVDZ          selected for orbital group  2
 Library entry H      P aug-cc-pVDZ          selected for orbital group  2

1PROGRAM * SEWARD (Integral evaluation for generally contracted gaussian basis sets)     Author: Roland Lindh, 1990

 Geometry written to block  1 of record 700


 Point group  C1  



 ATOMIC COORDINATES

 NR  ATOM    CHARGE       X              Y              Z

   1  C       6.00    0.000781653   -3.420079930    0.000422477
   2  H       1.00   -0.970150425   -2.718063450   -1.675142931
   3  H       1.00   -0.960451507   -2.730412953    1.686674520
   4  H       1.00    1.946075872   -2.742678218   -0.002701336
   5  H       1.00   -0.012288308   -5.479836558   -0.007106248
   6  C       6.00   -0.002012831    3.423416953   -0.002511479
   7  H       1.00   -0.014056487    5.483190442   -0.006117884
   8  H       1.00    0.982348186    2.730940692   -1.674206933
   9  H       1.00    0.966641059    2.736722878    1.680704663
  10  H       1.00   -1.936887212    2.716800145   -0.000014850

 Bond lengths in Bohr (Angstrom)

 1-2  2.059867878  1-3  2.059867879  1-4  2.059867092  1-5  2.059811854  6-7  2.059811856
     ( 1.090035135)     ( 1.090035135)     ( 1.090034718)     ( 1.090005488)     ( 1.090005489)

  6- 8  2.059867878   6- 9  2.059867882   6-10  2.059867087
       ( 1.090035135)       ( 1.090035137)       ( 1.090034716)

 Bond angles

  2-1-3  109.37992586   2-1-4  109.37980965   2-1-5  109.56240834   3-1-4  109.37980982

  3-1-5  109.56240821   4-1-5  109.56250043   7-6-8  109.72719274   7-6-9  109.72719279

  7- 6-10  109.72728490   8- 6- 9  109.04851404   8- 6-10  109.54459453   9- 6-10  109.04839816

 NUCLEAR CHARGE:                   20
 NUMBER OF PRIMITIVE AOS:         162
 NUMBER OF SYMMETRY AOS:          158
 NUMBER OF CONTRACTIONS:          118   ( 118A   )
 NUMBER OF CORE ORBITALS:           2   (   2A   )
 NUMBER OF VALENCE ORBITALS:       16   (  16A   )


 NUCLEAR REPULSION ENERGY   41.34617007


 Eigenvalues of metric

         1 0.371E-03 0.569E-03 0.573E-03 0.611E-03 0.726E-03 0.728E-03 0.778E-03 0.101E-02


 Contracted 2-electron integrals neglected if value below      1.0D-16
 AO integral compression algorithm  1   Integral accuracy      1.0D-16

     213.123 MB (compressed) written to integral file ( 93.1%)

     Node minimum: 213.123 MB, node maximum: 213.123 MB


 NUMBER OF SORTED TWO-ELECTRON INTEGRALS:   24650731.     BUFFER LENGTH:  32768
 NUMBER OF SEGMENTS:   2  SEGMENT LENGTH:   15997996      RECORD LENGTH: 524288

 Memory used in sort:      16.56 MW

 SORT1 READ    28594353. AND WROTE    24460023. INTEGRALS IN     71 RECORDS. CPU TIME:     0.27 SEC, REAL TIME:     0.42 SEC
 SORT2 READ    24460023. AND WROTE    24650731. INTEGRALS IN    813 RECORDS. CPU TIME:     0.23 SEC, REAL TIME:     0.33 SEC

 FILE SIZES:   FILE 1:   189.8 MBYTE,  FILE 4:   297.8 MBYTE,   TOTAL:    487.7 MBYTE

 OPERATOR DM      FOR CENTER  0  COORDINATES:    0.000000    0.000000    0.000000


 **********************************************************************************************************************************
 DATASETS  * FILE   NREC   LENGTH (MB)   RECORD NAMES
              1      19      190.01       500      610      700      900      950      970     1000      129      960     1100   
                                          VAR    BASINP    GEOM    SYMINP    ZMAT    AOBASIS   BASIS     P2S    ABASIS      S 
                                         1400     1410     1200     1210     1080     1600     1650     1300     1700   
                                           T        V       H0       H01     AOSYM     SMH    MOLCAS    ERIS     OPER   

 PROGRAMS   *        TOTAL       INT
 CPU TIMES  *         1.60      1.55
 REAL TIME  *         2.14 SEC
 DISK USED  *       701.58 MB      
 GA USED    *         0.00 MB       (max)       0.00 MB       (current)
 **********************************************************************************************************************************

1PROGRAM * RHF-SCF (CLOSED SHELL)       Authors: W. Meyer, H.-J. Werner


 NUMBER OF ELECTRONS:      10+   10-    SPACE SYMMETRY=1    SPIN SYMMETRY: Singlet 
 CONVERGENCE THRESHOLDS:    1.00E-10 (Density)    1.00E-13 (Energy)
 MAX. NUMBER OF ITERATIONS:      200
 INTERPOLATION TYPE:            DIIS
 INTERPOLATION STEPS:              2 (START)      1 (STEP)
 LEVEL SHIFTS:                  0.00 (CLOSED)  0.00 (OPEN) 



 Orbital guess generated from atomic densities. Full valence occupancy:   18

 Molecular orbital dump at record        2100.2

 ITERATION    DDIFF          GRAD             ENERGY        2-EL.EN.            DIPOLE MOMENTS         DIIS
    1      0.000D+00      0.000D+00       -80.36233044    134.800736    0.00097   -0.00262    0.00160    0
    2      0.000D+00      0.368D-02       -80.39422000    132.497222    0.00038   -0.00108    0.00045    1
    3      0.809D-02      0.137D-02       -80.39819360    133.324238    0.00044   -0.00131    0.00065    2
    4      0.256D-02      0.371D-03       -80.39878045    133.193516    0.00036   -0.00116    0.00055    3
    5      0.868D-03      0.458D-04       -80.39878918    133.200418    0.00035   -0.00114    0.00054    4
    6      0.876D-04      0.295D-05       -80.39878922    133.200254    0.00035   -0.00114    0.00054    5
    7      0.107D-04      0.222D-06       -80.39878922    133.200236    0.00035   -0.00114    0.00054    5
    8      0.155D-05      0.348D-07       -80.39878922    133.200236    0.00035   -0.00114    0.00054    4
    9      0.291D-06      0.562D-08       -80.39878922    133.200237    0.00035   -0.00114    0.00054    4
   10      0.194D-07      0.851D-09       -80.39878922    133.200237    0.00035   -0.00114    0.00054    5
   11      0.194D-08      0.199D-09       -80.39878922    133.200237    0.00035   -0.00114    0.00054    5
   12      0.108D-08      0.584D-10       -80.39878922    133.200237    0.00035   -0.00114    0.00054    6
   13      0.201D-09      0.117D-10       -80.39878922    133.200237    0.00035   -0.00114    0.00054    6
   14      0.385D-10      0.247D-11       -80.39878922    133.200237    0.00035   -0.00114    0.00054    6
   15      0.949D-11      0.464D-12       -80.39878922    133.200237    0.00035   -0.00114    0.00054    0

 Final occupancy:  10

 !RHF STATE 1.1 Energy                -80.398789224593
 Nuclear energy                        41.34617007
 One-electron energy                 -188.34507783
 Two-electron energy                   66.60011854
 Virial quotient                       -1.00196202
 !RHF STATE 1.1 Dipole moment           0.00034681    -0.00114059     0.00054070
 Dipole moment /Debye                   0.00088145    -0.00289891     0.00137423

 Orbital energies:

         1.1          2.1          3.1          4.1          5.1          6.1          7.1          8.1          9.1         10.1
    -11.214687   -11.214639    -0.945609    -0.939621    -0.551257    -0.546718    -0.546121    -0.539224    -0.538546    -0.535998

        11.1         12.1
      0.035479     0.045875


 **********************************************************************************************************************************
 DATASETS  * FILE   NREC   LENGTH (MB)   RECORD NAMES
              1      19      190.01       500      610      700      900      950      970     1000      129      960     1100   
                                          VAR    BASINP    GEOM    SYMINP    ZMAT    AOBASIS   BASIS     P2S    ABASIS      S 
                                         1400     1410     1200     1210     1080     1600     1650     1300     1700   
                                           T        V       H0       H01     AOSYM     SMH    MOLCAS    ERIS     OPER   

              2       3        0.70       700     1000     2100   
                                         GEOM     BASIS     RHF  

 PROGRAMS   *        TOTAL       RHF       INT
 CPU TIMES  *         4.47      2.87      1.55
 REAL TIME  *         5.37 SEC
 DISK USED  *       701.58 MB      
 GA USED    *         0.00 MB       (max)       0.00 MB       (current)
 **********************************************************************************************************************************


1PROGRAM * CCSD (Closed-shell coupled cluster)     Authors: C. Hampel, H.-J. Werner, 1991, M. Deegan, P.J. Knowles, 1992


 Convergence thresholds:  THRVAR = 1.00D-08  THRDEN = 1.00D-12

 CCSD(T)     terms to be evaluated (factor= 1.000)


 Number of core orbitals:           2 (   2 )
 Number of closed-shell orbitals:   8 (   8 )
 Number of external orbitals:     108 ( 108 )

 Molecular orbitals read from record     2100.2  Type=RHF/CANONICAL (state 1.1)

 Number of N-1 electron functions:               8
 Number of N-2 electron functions:              36
 Number of singly external CSFs:               864
 Number of doubly external CSFs:            373680
 Total number of CSFs:                      374545

 Length of J-op  integral file:               0.00 MB
 Length of K-op  integral file:               1.00 MB
 Length of 3-ext integral record:             0.00 MB

 Memory could be reduced to 14.62 Mwords without degradation in triples

 Integral transformation finished. Total CPU:   0.72 sec, npass=  1  Memory used:   8.61 MW

 Reference energy:                    -80.39878922

 MP2 singlet pair energy:              -0.24106799
 MP2 triplet pair energy:              -0.09676320
 MP2 correlation energy:               -0.33783119
 MP2 total energy:                    -80.73662041

 SCS-MP2 correlation energy:           -0.34948980   (PS=  1.200000  PT=  0.333333)
 SCS-MP2 total energy:                -80.74827902

 ITER.      SQ.NORM     CORR.ENERGY   TOTAL ENERGY   ENERGY CHANGE        DEN1      VAR(S)    VAR(P)  DIIS     TIME
   1      1.14044203    -0.38148252   -80.78027174    -0.04365133    -0.03251867  0.70D-03  0.24D-02  1  1     1.57
   2      1.15349177    -0.38423809   -80.78302731    -0.00275557    -0.01269444  0.16D-04  0.11D-03  2  2     2.47
   3      1.15560428    -0.38437082   -80.78316005    -0.00013273    -0.00113044  0.25D-05  0.71D-05  3  3     3.38
   4      1.15605129    -0.38438899   -80.78317821    -0.00001816    -0.00017663  0.10D-06  0.45D-06  4  4     4.28
   5      1.15612232    -0.38438568   -80.78317490     0.00000331    -0.00003211  0.39D-08  0.31D-07  5  5     5.19
   6      1.15612622    -0.38438467   -80.78317390     0.00000101    -0.00000143  0.28D-09  0.20D-08  6  6     6.10
   7      1.15612661    -0.38438489   -80.78317412    -0.00000022    -0.00000002  0.24D-10  0.13D-09  6  1     7.01
   8      1.15612668    -0.38438491   -80.78317413    -0.00000002    -0.00000007  0.24D-11  0.96D-11  6  2     7.93
   9      1.15612662    -0.38438491   -80.78317414    -0.00000000     0.00000003  0.45D-12  0.75D-12  6  3     8.84
  10      1.15612658    -0.38438491   -80.78317414    -0.00000000     0.00000002  0.35D-13  0.66D-13  6  4     9.74
  11      1.15612655    -0.38438491   -80.78317414    -0.00000000     0.00000002  0.33D-14  0.71D-14  6  5    10.66
  12      1.15612654    -0.38438492   -80.78317414    -0.00000000     0.00000001  0.28D-15  0.85D-15  6  6    11.55
  13      1.15612654    -0.38438492   -80.78317414    -0.00000000     0.00000000  0.22D-16  0.10D-15  6  1    12.46
  14      1.15612654    -0.38438492   -80.78317414    -0.00000000     0.00000000  0.26D-17  0.11D-16  6  3    13.37
  15      1.15612654    -0.38438492   -80.78317414    -0.00000000     0.00000000  0.20D-18  0.60D-18  6  2    14.28
  16      1.15612654    -0.38438492   -80.78317414    -0.00000000     0.00000000  0.26D-19  0.47D-19  6  4    15.18
  17      1.15612654    -0.38438492   -80.78317414    -0.00000000     0.00000000  0.32D-20  0.59D-20  6  5    16.10
  18      1.15612654    -0.38438492   -80.78317414    -0.00000000     0.00000000  0.36D-21  0.49D-21  6  6    17.01

 Norm of t1 vector:      0.03916512      S-energy:     0.00000000      T1 diagnostic:  0.00692348
                                                                       D1 diagnostic:  0.01253110


 Total CPU time for triples:     10.57 sec


 RESULTS
 =======

  Reference energy                    -80.398789224593
  CCSD singlet pair energy             -0.290158700376
  CCSD triplet pair energy             -0.094226215308
  CCSD correlation energy              -0.384384915684

  Triples (T) contribution             -0.009220334357
  Total correlation energy             -0.393605250041

  CCSD total energy                   -80.783174140277
  CCSD[T] energy                      -80.792615397787
  CCSD-T energy                       -80.792277239655
 !CCSD(T) total energy                -80.792394474634

 Timing summary (sec):

 STEP                 CPU(USER)    SYS     CPU(TOT)    WALL
 Transformation          0.73      0.08      0.81      0.81
 CCSD iterations        16.28      0.72     17.00     17.04
 Triples                10.57      0.21     10.78     10.78

 Program statistics:

 Available memory in ccsd:               999999644
 Min. memory needed in ccsd:               1156281
 Max. memory used in ccsd:                 1468601
 Max. memory used in cckext:               1135046 (18 integral passes)



 **********************************************************************************************************************************
 DATASETS  * FILE   NREC   LENGTH (MB)   RECORD NAMES
              1      20      236.99       500      610      700      900      950      970     1000      129      960     1100   
                                          VAR    BASINP    GEOM    SYMINP    ZMAT    AOBASIS   BASIS     P2S    ABASIS      S 
                                         1400     1410     1200     1210     1080     1600     1650     1300     1700     1380   
                                           T        V       H0       H01     AOSYM     SMH    MOLCAS    ERIS     OPER     JKOP   

              2       3        0.70       700     1000     2100   
                                         GEOM     BASIS     RHF  

 PROGRAMS   *        TOTAL   CCSD(T)       RHF       INT
 CPU TIMES  *        32.06     27.59      2.87      1.55
 REAL TIME  *        34.04 SEC
 DISK USED  *       701.58 MB      
 GA USED    *         0.00 MB       (max)       0.00 MB       (current)
 **********************************************************************************************************************************

        CCSD(T)         RHF-SCF 
    -80.79239447    -80.39878922
 **********************************************************************************************************************************
 Variable memory released
