
 Primary working directories    : /tmp/917057.219.gen4.q
 Secondary working directories  : /tmp/917057.219.gen4.q
 Wavefunction directory         : /home/vulcan/lo21740/wfu/
 Main file repository           : /tmp/917057.219.gen4.q/

 ARCHNAME  : Linux/x86_64
 FC        : /opt/intel/compilers_and_libraries_2016.1.150/linux/bin/intel64/ifort
 FCVERSION : 16.0.1
 BLASLIB   : -mkl
 id        : ccgc

 Nodes     nprocs
 n033         1
 ga_uses_ma=false, calling ma_init with nominal heap.
 GA-space will be limited to   8.0 MW (determined by -G option)

 Using customized tuning parameters: mindgm=10; mindgv=16; mindgc=4; mindgr=1; noblas=0; mincuda=1000; minvec=7
 default implementation of scratch files=df  

 ***,Optimization of h2o_2
 memory,1000,m
 gthresh,energy=1.0d-12,orbital=1.0d-10,oneint=1.0d-16,twoint=1.0d-16,optgrad=1.0d-6,compress=1.0d-13
 geomtyp=xyz
 
 bohr
 geometry = {
  C    0.0007497243   -3.4223817917   -0.0000626128
  H   -0.9705481656   -2.7348382876   -1.6814073203
  H   -0.9705498994   -2.7328001089    1.6804461883
  H    1.9408964743   -2.7303681640   -0.0004811568
  H    0.0031892657   -5.4821918265    0.0011861820
  C   -0.0017195519    3.4251080273    0.0017464822
  H    0.0061409071    5.4799048399    0.0015391728
  H    0.9613543551    2.7332244306   -1.6764274499
  H    0.9662133230    2.7335441973    1.6772545923
  H   -1.9357264326    2.7307986837   -0.0037940778
 }
 
 basis=AVDZ
 {rhf;maxit,200}
 {ccsd(t);maxit,200}

 Variables initialized (661), CPU time= 0.00 sec
 Commands  initialized (458), CPU time= 0.00 sec, 486 directives.
 Default parameters read. Elapsed time= 0.07 sec

 Checking input...
 Passed
1


                                         ***  PROGRAM SYSTEM MOLPRO  ***
                         Copyright, University College Cardiff Consultants Limited, 2008

                                    Version 2010.1 linked May 16 2016 07:17:05


 **********************************************************************************************************************************
 LABEL *   Optimization of h2o_2                                                         
 Linux-4.4.3/n033(x86_64) 64 bit mpp version                                             DATE: 20-Jul-23          TIME: 14:13:42  
 **********************************************************************************************************************************

 SHA1:             9e8077add272b0f3cad6f7df79ec5211205f459d
 **********************************************************************************************************************************

 THRESHOLDS:

 ZERO    =  1.00D-12  ONEINT  =  1.00D-16  TWOINT  =  1.00D-16  PREFAC  =  1.00D-14  LOCALI  =  1.00D-09  EORDER  =  1.00D-04
 ENERGY  =  1.00D-12  ETEST   =  0.00D+00  EDENS   =  0.00D+00  THRDEDEF=  1.00D-06  GRADIENT=  1.00D-02  STEP    =  1.00D-03
 ORBITAL =  1.00D-10  CIVEC   =  1.00D-05  COEFF   =  1.00D-04  PRINTCI =  5.00D-02  PUNCHCI =  9.90D+01  OPTGRAD =  1.00D-06
 OPTENERG=  1.00D-06  OPTSTEP =  3.00D-04  THRGRAD =  1.00D-10  COMPRESS=  1.00D-13  VARMIN  =  1.00D-07  VARMAX  =  1.00D-03
 THRDOUB =  0.00D+00  THRDIV  =  1.00D-05  THRRED  =  1.00D-07  THRPSP  =  1.00D+00  THRDC   =  1.00D-10  THRCS   =  1.00D-10
 THRNRM  =  1.00D-08  THREQ   =  0.00D+00  THRDE   =  1.00D+00  THRREF  =  1.00D-05  SPARFAC =  1.00D+00  THRDLP  =  1.00D-07
 THRDIA  =  1.00D-10  THRDLS  =  1.00D-07  THRGPS  =  0.00D+00  THRKEX  =  0.00D+00  THRDIS  =  2.00D-01  THRVAR  =  1.00D-10
 THRLOC  =  1.00D-06  THRGAP  =  1.00D-06  THRLOCT = -1.00D+00  THRGAPT = -1.00D+00  THRORB  =  1.00D-06  THRMLTP =  0.00D+00
 THRCPQCI=  1.00D-10  KEXTA   =  0.00D+00  THRCOARS=  0.00D+00  SYMTOL  =  1.00D-06  GRADTOL =  1.00D-06  THROVL  =  1.00D-08
 THRORTH =  1.00D-08  GRID    =  1.00D-06  GRIDMAX =  1.00D-03  DTMAX   =  0.00D+00

 SETTING GEOMTYP        =    XYZ
 ZUNIT=BOHR
 

 Variable memory set to 1000000000 words,  buffer space   230000 words

 SETTING BASIS          =    AVDZ


 Recomputing integrals since basis changed


 Using spherical harmonics

 Library entry C      S aug-cc-pVDZ          selected for orbital group  1
 Library entry C      P aug-cc-pVDZ          selected for orbital group  1
 Library entry C      D aug-cc-pVDZ          selected for orbital group  1
 Library entry H      S aug-cc-pVDZ          selected for orbital group  2
 Library entry H      P aug-cc-pVDZ          selected for orbital group  2

1PROGRAM * SEWARD (Integral evaluation for generally contracted gaussian basis sets)     Author: Roland Lindh, 1990

 Geometry written to block  1 of record 700


 Point group  C1  



 ATOMIC COORDINATES

 NR  ATOM    CHARGE       X              Y              Z

   1  C       6.00    0.000749724   -3.422381792   -0.000062613
   2  H       1.00   -0.970548166   -2.734838288   -1.681407320
   3  H       1.00   -0.970549899   -2.732800109    1.680446188
   4  H       1.00    1.940896474   -2.730368164   -0.000481157
   5  H       1.00    0.003189266   -5.482191827    0.001186182
   6  C       6.00   -0.001719552    3.425108027    0.001746482
   7  H       1.00    0.006140907    5.479904840    0.001539173
   8  H       1.00    0.961354355    2.733224431   -1.676427450
   9  H       1.00    0.966213323    2.733544197    1.677254592
  10  H       1.00   -1.935726433    2.730798684   -0.003794078

 Bond lengths in Bohr (Angstrom)

 1-2  2.059867881  1-3  2.059867881  1-4  2.059867095  1-5  2.059811858  6-7  2.054811858
     ( 1.090035136)     ( 1.090035136)     ( 1.090034720)     ( 1.090005490)     ( 1.087359604)

  6- 8  2.054867881   6- 9  2.054867881   6-10  2.054867095
       ( 1.087389250)       ( 1.087389250)       ( 1.087388834)

 Bond angles

  2-1-3  109.37992579   2-1-4  109.37980975   2-1-5  109.56240831   3-1-4  109.37980975

  3-1-5  109.56240831   4-1-5  109.56250040   7-6-8  109.56201346   7-6-9  109.56201346

  7- 6-10  109.96724788   8- 6- 9  109.37953091   8- 6-10  108.97427256   9- 6-10  109.37941487

 NUCLEAR CHARGE:                   20
 NUMBER OF PRIMITIVE AOS:         162
 NUMBER OF SYMMETRY AOS:          158
 NUMBER OF CONTRACTIONS:          118   ( 118A   )
 NUMBER OF CORE ORBITALS:           2   (   2A   )
 NUMBER OF VALENCE ORBITALS:       16   (  16A   )


 NUCLEAR REPULSION ENERGY   41.37033682


 Eigenvalues of metric

         1 0.369E-03 0.567E-03 0.570E-03 0.609E-03 0.725E-03 0.726E-03 0.776E-03 0.101E-02


 Contracted 2-electron integrals neglected if value below      1.0D-16
 AO integral compression algorithm  1   Integral accuracy      1.0D-16

     212.074 MB (compressed) written to integral file ( 92.8%)

     Node minimum: 212.074 MB, node maximum: 212.074 MB


 NUMBER OF SORTED TWO-ELECTRON INTEGRALS:   24650731.     BUFFER LENGTH:  32768
 NUMBER OF SEGMENTS:   2  SEGMENT LENGTH:   15997996      RECORD LENGTH: 524288

 Memory used in sort:      16.56 MW

 SORT1 READ    28594353. AND WROTE    24447302. INTEGRALS IN     71 RECORDS. CPU TIME:     0.28 SEC, REAL TIME:     0.43 SEC
 SORT2 READ    24447302. AND WROTE    24650731. INTEGRALS IN    809 RECORDS. CPU TIME:     0.26 SEC, REAL TIME:     0.36 SEC

 FILE SIZES:   FILE 1:   189.1 MBYTE,  FILE 4:   297.8 MBYTE,   TOTAL:    486.9 MBYTE

 OPERATOR DM      FOR CENTER  0  COORDINATES:    0.000000    0.000000    0.000000


 **********************************************************************************************************************************
 DATASETS  * FILE   NREC   LENGTH (MB)   RECORD NAMES
              1      19      189.28       500      610      700      900      950      970     1000      129      960     1100   
                                          VAR    BASINP    GEOM    SYMINP    ZMAT    AOBASIS   BASIS     P2S    ABASIS      S 
                                         1400     1410     1200     1210     1080     1600     1650     1300     1700   
                                           T        V       H0       H01     AOSYM     SMH    MOLCAS    ERIS     OPER   

 PROGRAMS   *        TOTAL       INT
 CPU TIMES  *         1.80      1.74
 REAL TIME  *         2.34 SEC
 DISK USED  *       699.79 MB      
 GA USED    *         0.00 MB       (max)       0.00 MB       (current)
 **********************************************************************************************************************************

1PROGRAM * RHF-SCF (CLOSED SHELL)       Authors: W. Meyer, H.-J. Werner


 NUMBER OF ELECTRONS:      10+   10-    SPACE SYMMETRY=1    SPIN SYMMETRY: Singlet 
 CONVERGENCE THRESHOLDS:    1.00E-10 (Density)    1.00E-13 (Energy)
 MAX. NUMBER OF ITERATIONS:      200
 INTERPOLATION TYPE:            DIIS
 INTERPOLATION STEPS:              2 (START)      1 (STEP)
 LEVEL SHIFTS:                  0.00 (CLOSED)  0.00 (OPEN) 



 Orbital guess generated from atomic densities. Full valence occupancy:   18

 Molecular orbital dump at record        2100.2

 ITERATION    DDIFF          GRAD             ENERGY        2-EL.EN.            DIPOLE MOMENTS         DIIS
    1      0.000D+00      0.000D+00       -80.36220899    134.848650    0.00074   -0.00225   -0.00129    0
    2      0.000D+00      0.369D-02       -80.39420941    132.536104    0.00031   -0.00089   -0.00031    1
    3      0.813D-02      0.137D-02       -80.39819485    133.364613    0.00043   -0.00109   -0.00051    2
    4      0.257D-02      0.371D-03       -80.39878204    133.234352    0.00040   -0.00096   -0.00044    3
    5      0.869D-03      0.457D-04       -80.39879076    133.241239    0.00040   -0.00094   -0.00043    4
    6      0.877D-04      0.298D-05       -80.39879080    133.241072    0.00040   -0.00094   -0.00043    5
    7      0.107D-04      0.348D-06       -80.39879080    133.241056    0.00040   -0.00094   -0.00043    5
    8      0.165D-05      0.120D-06       -80.39879080    133.241054    0.00040   -0.00094   -0.00043    5
    9      0.365D-06      0.159D-07       -80.39879080    133.241054    0.00040   -0.00094   -0.00043    5
   10      0.110D-06      0.222D-08       -80.39879080    133.241055    0.00040   -0.00094   -0.00043    5
   11      0.603D-08      0.277D-09       -80.39879080    133.241055    0.00040   -0.00094   -0.00043    5
   12      0.106D-08      0.731D-10       -80.39879080    133.241055    0.00040   -0.00094   -0.00043    6
   13      0.412D-09      0.247D-10       -80.39879080    133.241055    0.00040   -0.00094   -0.00043    6
   14      0.762D-10      0.348D-11       -80.39879080    133.241055    0.00040   -0.00094   -0.00043    6
   15      0.830D-11      0.747D-12       -80.39879080    133.241055    0.00040   -0.00094   -0.00043    6
   16      0.414D-11      0.155D-12       -80.39879080    133.241055    0.00040   -0.00094   -0.00043    6
   17      0.129D-11      0.678D-13       -80.39879080    133.241055    0.00040   -0.00094   -0.00043    6
   18      0.112D-11      0.441D-13       -80.39879080    133.241055    0.00040   -0.00094   -0.00043    7
   19      0.760D-12      0.402D-13       -80.39879080    133.241055    0.00040   -0.00094   -0.00043    0

 Final occupancy:  10

 !RHF STATE 1.1 Energy                -80.398790804368
 Nuclear energy                        41.37033682
 One-electron energy                 -188.38965508
 Two-electron energy                   66.62052746
 Virial quotient                       -1.00177338
 !RHF STATE 1.1 Dipole moment           0.00040139    -0.00093945    -0.00042995
 Dipole moment /Debye                   0.00102017    -0.00238768    -0.00109275

 Orbital energies:

         1.1          2.1          3.1          4.1          5.1          6.1          7.1          8.1          9.1         10.1
    -11.214690   -11.213387    -0.946186    -0.940151    -0.551544    -0.547014    -0.546472    -0.539543    -0.539039    -0.536273

        11.1         12.1
      0.035489     0.045874


 **********************************************************************************************************************************
 DATASETS  * FILE   NREC   LENGTH (MB)   RECORD NAMES
              1      19      189.28       500      610      700      900      950      970     1000      129      960     1100   
                                          VAR    BASINP    GEOM    SYMINP    ZMAT    AOBASIS   BASIS     P2S    ABASIS      S 
                                         1400     1410     1200     1210     1080     1600     1650     1300     1700   
                                           T        V       H0       H01     AOSYM     SMH    MOLCAS    ERIS     OPER   

              2       3        0.70       700     1000     2100   
                                         GEOM     BASIS     RHF  

 PROGRAMS   *        TOTAL       RHF       INT
 CPU TIMES  *         5.56      3.76      1.74
 REAL TIME  *         6.51 SEC
 DISK USED  *       699.79 MB      
 GA USED    *         0.00 MB       (max)       0.00 MB       (current)
 **********************************************************************************************************************************


1PROGRAM * CCSD (Closed-shell coupled cluster)     Authors: C. Hampel, H.-J. Werner, 1991, M. Deegan, P.J. Knowles, 1992


 Convergence thresholds:  THRVAR = 1.00D-08  THRDEN = 1.00D-12

 CCSD(T)     terms to be evaluated (factor= 1.000)


 Number of core orbitals:           2 (   2 )
 Number of closed-shell orbitals:   8 (   8 )
 Number of external orbitals:     108 ( 108 )

 Molecular orbitals read from record     2100.2  Type=RHF/CANONICAL (state 1.1)

 Number of N-1 electron functions:               8
 Number of N-2 electron functions:              36
 Number of singly external CSFs:               864
 Number of doubly external CSFs:            373680
 Total number of CSFs:                      374545

 Length of J-op  integral file:               0.00 MB
 Length of K-op  integral file:               1.00 MB
 Length of 3-ext integral record:             0.00 MB

 Memory could be reduced to 14.62 Mwords without degradation in triples

 Integral transformation finished. Total CPU:   0.87 sec, npass=  1  Memory used:   8.61 MW

 Reference energy:                    -80.39879080

 MP2 singlet pair energy:              -0.24094290
 MP2 triplet pair energy:              -0.09675618
 MP2 correlation energy:               -0.33769908
 MP2 total energy:                    -80.73648988

 SCS-MP2 correlation energy:           -0.34933532   (PS=  1.200000  PT=  0.333333)
 SCS-MP2 total energy:                -80.74812613

 ITER.      SQ.NORM     CORR.ENERGY   TOTAL ENERGY   ENERGY CHANGE        DEN1      VAR(S)    VAR(P)  DIIS     TIME
   1      1.14022360    -0.38132147   -80.78011228    -0.04362240    -0.03251134  0.70D-03  0.24D-02  1  1     2.03
   2      1.15322631    -0.38406724   -80.78285804    -0.00274577    -0.01266935  0.16D-04  0.11D-03  2  2     3.22
   3      1.15532481    -0.38419869   -80.78298950    -0.00013145    -0.00112363  0.25D-05  0.71D-05  3  3     4.42
   4      1.15576932    -0.38421672   -80.78300752    -0.00001803    -0.00017586  0.10D-06  0.44D-06  4  4     5.64
   5      1.15583999    -0.38421342   -80.78300422     0.00000330    -0.00003198  0.39D-08  0.30D-07  5  5     6.86
   6      1.15584386    -0.38421241   -80.78300321     0.00000101    -0.00000140  0.28D-09  0.20D-08  6  6     8.08
   7      1.15584426    -0.38421263   -80.78300343    -0.00000022    -0.00000002  0.24D-10  0.13D-09  6  1     9.29
   8      1.15584433    -0.38421264   -80.78300345    -0.00000002    -0.00000007  0.24D-11  0.95D-11  6  2    10.51
   9      1.15584428    -0.38421265   -80.78300345    -0.00000000     0.00000003  0.44D-12  0.74D-12  6  3    11.72
  10      1.15584424    -0.38421265   -80.78300345    -0.00000000     0.00000002  0.34D-13  0.65D-13  6  4    12.93
  11      1.15584421    -0.38421265   -80.78300345    -0.00000000     0.00000002  0.31D-14  0.70D-14  6  5    14.15
  12      1.15584420    -0.38421265   -80.78300345    -0.00000000     0.00000001  0.27D-15  0.84D-15  6  6    15.36
  13      1.15584419    -0.38421265   -80.78300345    -0.00000000     0.00000000  0.22D-16  0.10D-15  6  1    16.58
  14      1.15584419    -0.38421265   -80.78300345    -0.00000000     0.00000000  0.25D-17  0.11D-16  6  3    17.80
  15      1.15584419    -0.38421265   -80.78300345    -0.00000000     0.00000000  0.19D-18  0.59D-18  6  2    19.00
  16      1.15584419    -0.38421265   -80.78300345    -0.00000000     0.00000000  0.26D-19  0.46D-19  6  4    20.22
  17      1.15584419    -0.38421265   -80.78300345    -0.00000000     0.00000000  0.31D-20  0.58D-20  6  5    21.43
  18      1.15584419    -0.38421265   -80.78300345    -0.00000000     0.00000000  0.35D-21  0.48D-21  6  6    22.64

 Norm of t1 vector:      0.03911702      S-energy:     0.00000000      T1 diagnostic:  0.00691498
                                                                       D1 diagnostic:  0.01252033


 Total CPU time for triples:     14.08 sec


 RESULTS
 =======

  Reference energy                    -80.398790804368
  CCSD singlet pair energy             -0.289967153761
  CCSD triplet pair energy             -0.094245496365
  CCSD correlation energy              -0.384212650126

  Triples (T) contribution             -0.009201469816
  Total correlation energy             -0.393414119942

  CCSD total energy                   -80.783003454494
  CCSD[T] energy                      -80.792424788128
  CCSD-T energy                       -80.792088216268
 !CCSD(T) total energy                -80.792204924309

 Timing summary (sec):

 STEP                 CPU(USER)    SYS     CPU(TOT)    WALL
 Transformation          0.89      0.08      0.97      0.97
 CCSD iterations        21.75      0.79     22.54     23.36
 Triples                14.08      0.20     14.28     14.29

 Program statistics:

 Available memory in ccsd:               999999644
 Min. memory needed in ccsd:               1156281
 Max. memory used in ccsd:                 1468601
 Max. memory used in cckext:               1135046 (18 integral passes)



 **********************************************************************************************************************************
 DATASETS  * FILE   NREC   LENGTH (MB)   RECORD NAMES
              1      20      236.25       500      610      700      900      950      970     1000      129      960     1100   
                                          VAR    BASINP    GEOM    SYMINP    ZMAT    AOBASIS   BASIS     P2S    ABASIS      S 
                                         1400     1410     1200     1210     1080     1600     1650     1300     1700     1380   
                                           T        V       H0       H01     AOSYM     SMH    MOLCAS    ERIS     OPER     JKOP   

              2       3        0.70       700     1000     2100   
                                         GEOM     BASIS     RHF  

 PROGRAMS   *        TOTAL   CCSD(T)       RHF       INT
 CPU TIMES  *        42.30     36.74      3.76      1.74
 REAL TIME  *        45.16 SEC
 DISK USED  *       699.79 MB      
 GA USED    *         0.00 MB       (max)       0.00 MB       (current)
 **********************************************************************************************************************************

        CCSD(T)         RHF-SCF 
    -80.79220492    -80.39879080
 **********************************************************************************************************************************
 Variable memory released
