
 Primary working directories    : /tmp/1065196.910.gen4.q
 Secondary working directories  : /tmp/1065196.910.gen4.q
 Wavefunction directory         : /home/vulcan/jj04645/wfu/
 Main file repository           : /tmp/1065196.910.gen4.q/

 ARCHNAME  : Linux/x86_64
 FC        : /opt/intel/compilers_and_libraries_2016.1.150/linux/bin/intel64/ifort
 FCVERSION : 16.0.1
 BLASLIB   : -mkl
 id        : ccgc

 Nodes     nprocs
 n024         1
 ga_uses_ma=false, calling ma_init with nominal heap.
 GA-space will be limited to   8.0 MW (determined by -G option)

 Using customized tuning parameters: mindgm=10; mindgv=16; mindgc=4; mindgr=1; noblas=0; mincuda=1000; minvec=7
 default implementation of scratch files=df  

 ***,Optimization of t-butanol
 memory,1000,m
 gthresh,energy=1.0d-12,orbital=1.0d-10,oneint=1.0d-16,twoint=1.0d-16,optgrad=1.0d-6,compress=1.0d-13
 geomtyp=xyz
 
 bohr
 geometry = {
  C    0.0050246465   -0.0572105431   -0.0004874947
  O   -0.0243385612    2.6555330309   -0.0003203485
  C   -2.7670400819   -0.8342729132    0.0002785968
  C    1.3366835279   -1.0155048923   -2.3782895319
  C    1.3380754459   -1.0157827885    2.3764224280
  H    1.7078317807    3.2113744805   -0.0007949457
  H   -2.9435528649   -2.8904825388    0.0002100920
  H   -3.7110254269   -0.0846696458   -1.6735180114
  H   -3.7100452354   -0.0848653490    1.6747152359
  H    1.3079563992   -3.0787155514   -2.4642627294
  H    3.3171718215   -0.4027057148   -2.3975151071
  H    0.4082918444   -0.2680144273   -4.0555692777
  H    1.3093985403   -3.0790034865    2.4621711796
  H    3.3090219303   -0.4059417004    2.3944725700
  H    0.4061587951   -0.2648567592    4.0624873439
 }
 
 basis=VDZ
 {rhf;maxit,200}
 {ccsd(t);maxit,200}

 Variables initialized (661), CPU time= 0.00 sec
 Commands  initialized (458), CPU time= 0.00 sec, 486 directives.
 Default parameters read. Elapsed time= 0.05 sec

 Checking input...
 Passed
1


                                         ***  PROGRAM SYSTEM MOLPRO  ***
                         Copyright, University College Cardiff Consultants Limited, 2008

                                    Version 2010.1 linked May 16 2016 07:17:05


 **********************************************************************************************************************************
 LABEL *   Optimization of t-butanol                                                     
 Linux-4.4.3/n024(x86_64) 64 bit mpp version                                             DATE: 20-May-24          TIME: 14:12:20  
 **********************************************************************************************************************************

 SHA1:             9e8077add272b0f3cad6f7df79ec5211205f459d
 **********************************************************************************************************************************

 THRESHOLDS:

 ZERO    =  1.00D-12  ONEINT  =  1.00D-16  TWOINT  =  1.00D-16  PREFAC  =  1.00D-14  LOCALI  =  1.00D-09  EORDER  =  1.00D-04
 ENERGY  =  1.00D-12  ETEST   =  0.00D+00  EDENS   =  0.00D+00  THRDEDEF=  1.00D-06  GRADIENT=  1.00D-02  STEP    =  1.00D-03
 ORBITAL =  1.00D-10  CIVEC   =  1.00D-05  COEFF   =  1.00D-04  PRINTCI =  5.00D-02  PUNCHCI =  9.90D+01  OPTGRAD =  1.00D-06
 OPTENERG=  1.00D-06  OPTSTEP =  3.00D-04  THRGRAD =  1.00D-10  COMPRESS=  1.00D-13  VARMIN  =  1.00D-07  VARMAX  =  1.00D-03
 THRDOUB =  0.00D+00  THRDIV  =  1.00D-05  THRRED  =  1.00D-07  THRPSP  =  1.00D+00  THRDC   =  1.00D-10  THRCS   =  1.00D-10
 THRNRM  =  1.00D-08  THREQ   =  0.00D+00  THRDE   =  1.00D+00  THRREF  =  1.00D-05  SPARFAC =  1.00D+00  THRDLP  =  1.00D-07
 THRDIA  =  1.00D-10  THRDLS  =  1.00D-07  THRGPS  =  0.00D+00  THRKEX  =  0.00D+00  THRDIS  =  2.00D-01  THRVAR  =  1.00D-10
 THRLOC  =  1.00D-06  THRGAP  =  1.00D-06  THRLOCT = -1.00D+00  THRGAPT = -1.00D+00  THRORB  =  1.00D-06  THRMLTP =  0.00D+00
 THRCPQCI=  1.00D-10  KEXTA   =  0.00D+00  THRCOARS=  0.00D+00  SYMTOL  =  1.00D-06  GRADTOL =  1.00D-06  THROVL  =  1.00D-08
 THRORTH =  1.00D-08  GRID    =  1.00D-06  GRIDMAX =  1.00D-03  DTMAX   =  0.00D+00

 SETTING GEOMTYP        =    XYZ
 ZUNIT=BOHR
 

 Variable memory set to 1000000000 words,  buffer space   230000 words

 SETTING BASIS          =    VDZ


 Recomputing integrals since basis changed


 Using spherical harmonics

 Library entry C      S cc-pVDZ              selected for orbital group  1
 Library entry C      P cc-pVDZ              selected for orbital group  1
 Library entry C      D cc-pVDZ              selected for orbital group  1
 Library entry O      S cc-pVDZ              selected for orbital group  2
 Library entry O      P cc-pVDZ              selected for orbital group  2
 Library entry O      D cc-pVDZ              selected for orbital group  2
 Library entry H      S cc-pVDZ              selected for orbital group  4
 Library entry H      P cc-pVDZ              selected for orbital group  4

1PROGRAM * SEWARD (Integral evaluation for generally contracted gaussian basis sets)     Author: Roland Lindh, 1990

 Geometry written to block  1 of record 700


 Point group  C1  



 ATOMIC COORDINATES

 NR  ATOM    CHARGE       X              Y              Z

   1  C       6.00    0.005024647   -0.057210543   -0.000487495
   2  O       8.00   -0.024338561    2.655533031   -0.000320348
   3  C       6.00   -2.767040082   -0.834272913    0.000278597
   4  C       6.00    1.336683528   -1.015504892   -2.378289532
   5  C       6.00    1.338075446   -1.015782788    2.376422428
   6  H       1.00    1.707831781    3.211374480   -0.000794946
   7  H       1.00   -2.943552865   -2.890482539    0.000210092
   8  H       1.00   -3.711025427   -0.084669646   -1.673518011
   9  H       1.00   -3.710045235   -0.084865349    1.674715236
  10  H       1.00    1.307956399   -3.078715551   -2.464262729
  11  H       1.00    3.317171822   -0.402705715   -2.397515107
  12  H       1.00    0.408291844   -0.268014427   -4.055569278
  13  H       1.00    1.309398540   -3.079003486    2.462171180
  14  H       1.00    3.309021930   -0.405941700    2.394472570
  15  H       1.00    0.406158795   -0.264856759    4.062487344

 Bond lengths in Bohr (Angstrom)

 1-2  2.712902491  1-3  2.878918091  1-4  2.888872784  1-5  2.888872784  2-6  1.819168501
     ( 1.435606168)     ( 1.523457840)     ( 1.528725637)     ( 1.528725637)     ( 0.962662510)

  3- 7  2.063771982   3- 8  2.062670230   3- 9  2.062670229   4-10  2.065200925   4-11  2.073216423
       ( 1.092101097)       ( 1.091518075)       ( 1.091518075)       ( 1.092857262)       ( 1.097098880)

  4-12  2.057649256   5-13  2.065200925   5-14  2.063216422   5-15  2.067649256
       ( 1.088861090)       ( 1.092857262)       ( 1.091807108)       ( 1.094152863)

 Bond angles

  1-2-6  107.17091859   1-3-7  110.56564859   1-3-8  110.02067698   1-3-9  110.02067670

  1- 4-10  111.05427906   1- 4-11  110.48289296   1- 4-12  110.02622427   1- 5-13  111.05427659

  1- 5-14  110.48289424   1- 5-15  110.02622544   2- 1- 3  105.03903602   2- 1- 4  109.67835923

  2-1-5  109.67835923   3-1-4  110.76498583   3-1-5  110.76498583   4-1-5  110.75948302

  7- 3- 8  108.83916959   7- 3- 9  108.83916930   8- 3- 9  108.51019466  10- 4-11  107.95054732

 10- 4-12  108.82712444  11- 4-12  108.42571993  13- 5-14  107.95054505  13- 5-15  108.82712196

 14- 5-15  108.42572476

 NUCLEAR CHARGE:                   42
 NUMBER OF PRIMITIVE AOS:         205
 NUMBER OF SYMMETRY AOS:          200
 NUMBER OF CONTRACTIONS:          120   ( 120A   )
 NUMBER OF CORE ORBITALS:           5   (   5A   )
 NUMBER OF VALENCE ORBITALS:       30   (  30A   )


 NUCLEAR REPULSION ENERGY  199.65082590


 Eigenvalues of metric

         1 0.261E-02 0.488E-02 0.490E-02 0.835E-02 0.169E-01 0.191E-01 0.192E-01 0.240E-01


 Contracted 2-electron integrals neglected if value below      1.0D-16
 AO integral compression algorithm  1   Integral accuracy      1.0D-16

     221.250 MB (compressed) written to integral file ( 96.7%)

     Node minimum: 221.250 MB, node maximum: 221.250 MB


 NUMBER OF SORTED TWO-ELECTRON INTEGRALS:   26357430.     BUFFER LENGTH:  32768
 NUMBER OF SEGMENTS:   2  SEGMENT LENGTH:   15997996      RECORD LENGTH: 524288

 Memory used in sort:      16.56 MW

 SORT1 READ    28587830. AND WROTE    26318691. INTEGRALS IN     76 RECORDS. CPU TIME:     0.29 SEC, REAL TIME:     0.46 SEC
 SORT2 READ    26318691. AND WROTE    26357430. INTEGRALS IN    844 RECORDS. CPU TIME:     0.25 SEC, REAL TIME:     0.37 SEC

 FILE SIZES:   FILE 1:   206.5 MBYTE,  FILE 4:   318.8 MBYTE,   TOTAL:    525.3 MBYTE

 OPERATOR DM      FOR CENTER  0  COORDINATES:    0.000000    0.000000    0.000000


 **********************************************************************************************************************************
 DATASETS  * FILE   NREC   LENGTH (MB)   RECORD NAMES
              1      19      206.65       500      610      700      900      950      970     1000      129      960     1100   
                                          VAR    BASINP    GEOM    SYMINP    ZMAT    AOBASIS   BASIS     P2S    ABASIS      S 
                                         1400     1410     1200     1210     1080     1600     1650     1300     1700   
                                           T        V       H0       H01     AOSYM     SMH    MOLCAS    ERIS     OPER   

 PROGRAMS   *        TOTAL       INT
 CPU TIMES  *         3.48      3.43
 REAL TIME  *         4.06 SEC
 DISK USED  *       747.48 MB      
 GA USED    *         0.01 MB       (max)       0.00 MB       (current)
 **********************************************************************************************************************************

1PROGRAM * RHF-SCF (CLOSED SHELL)       Authors: W. Meyer, H.-J. Werner


 NUMBER OF ELECTRONS:      21+   21-    SPACE SYMMETRY=1    SPIN SYMMETRY: Singlet 
 CONVERGENCE THRESHOLDS:    1.00E-10 (Density)    1.00E-13 (Energy)
 MAX. NUMBER OF ITERATIONS:      200
 INTERPOLATION TYPE:            DIIS
 INTERPOLATION STEPS:              2 (START)      1 (STEP)
 LEVEL SHIFTS:                  0.00 (CLOSED)  0.00 (OPEN) 



 Orbital guess generated from atomic densities. Full valence occupancy:   35

 Molecular orbital dump at record        2100.2

 ITERATION    DDIFF          GRAD             ENERGY        2-EL.EN.            DIPOLE MOMENTS         DIIS
    1      0.000D+00      0.000D+00      -232.08676827    561.120442    0.88999   -0.62454    0.00131    0
    2      0.000D+00      0.616D-02      -232.16304284    555.893491    0.40942   -0.32393   -0.00126    1
    3      0.122D-01      0.265D-02      -232.17373084    557.893148    0.53064   -0.42995   -0.00120    2
    4      0.389D-02      0.733D-03      -232.17503113    557.665000    0.50368   -0.39381   -0.00134    3
    5      0.141D-02      0.192D-03      -232.17510825    557.602038    0.50299   -0.40602   -0.00143    4
    6      0.307D-03      0.358D-04      -232.17511130    557.622133    0.50236   -0.40436   -0.00143    5
    7      0.899D-04      0.659D-05      -232.17511144    557.616497    0.50230   -0.40452   -0.00143    6
    8      0.185D-04      0.211D-05      -232.17511145    557.618078    0.50231   -0.40462   -0.00143    7
    9      0.400D-05      0.682D-06      -232.17511145    557.617730    0.50227   -0.40463   -0.00143    7
   10      0.155D-05      0.190D-06      -232.17511145    557.617784    0.50228   -0.40465   -0.00143    7
   11      0.503D-06      0.390D-07      -232.17511145    557.617773    0.50228   -0.40465   -0.00143    7
   12      0.123D-06      0.120D-07      -232.17511145    557.617781    0.50228   -0.40465   -0.00143    7
   13      0.242D-07      0.519D-08      -232.17511145    557.617779    0.50228   -0.40465   -0.00143    7
   14      0.102D-07      0.170D-08      -232.17511145    557.617778    0.50228   -0.40465   -0.00143    8
   15      0.302D-08      0.442D-09      -232.17511145    557.617778    0.50228   -0.40465   -0.00143    8
   16      0.106D-08      0.109D-09      -232.17511145    557.617778    0.50228   -0.40465   -0.00143    7
   17      0.254D-09      0.302D-10      -232.17511145    557.617778    0.50228   -0.40465   -0.00143    7
   18      0.790D-10      0.798D-11      -232.17511145    557.617778    0.50228   -0.40465   -0.00143    0

 Final occupancy:  21

 !RHF STATE 1.1 Energy               -232.175111451731
 Nuclear energy                       199.65082590
 One-electron energy                 -710.63482659
 Two-electron energy                  278.80888924
 Virial quotient                       -1.00088974
 !RHF STATE 1.1 Dipole moment           0.50227802    -0.40465387    -0.00143467
 Dipole moment /Debye                   1.27657976    -1.02846018    -0.00364632

 Orbital energies:

         1.1          2.1          3.1          4.1          5.1          6.1          7.1          8.1          9.1         10.1
    -20.545145   -11.282093   -11.220494   -11.220407   -11.214397    -1.352189    -1.064275    -0.939964    -0.938127    -0.766716

        11.1         12.1         13.1         14.1         15.1         16.1         17.1         18.1         19.1         20.1
     -0.665534    -0.620787    -0.618172    -0.573411    -0.553978    -0.527811    -0.514498    -0.505315    -0.500196    -0.458144

        21.1         22.1         23.1
     -0.426870     0.166846     0.220224


 **********************************************************************************************************************************
 DATASETS  * FILE   NREC   LENGTH (MB)   RECORD NAMES
              1      19      206.65       500      610      700      900      950      970     1000      129      960     1100   
                                          VAR    BASINP    GEOM    SYMINP    ZMAT    AOBASIS   BASIS     P2S    ABASIS      S 
                                         1400     1410     1200     1210     1080     1600     1650     1300     1700   
                                           T        V       H0       H01     AOSYM     SMH    MOLCAS    ERIS     OPER   

              2       3        0.80       700     1000     2100   
                                         GEOM     BASIS     RHF  

 PROGRAMS   *        TOTAL       RHF       INT
 CPU TIMES  *         7.23      3.74      3.43
 REAL TIME  *         8.27 SEC
 DISK USED  *       747.48 MB      
 GA USED    *         0.01 MB       (max)       0.00 MB       (current)
 **********************************************************************************************************************************


1PROGRAM * CCSD (Closed-shell coupled cluster)     Authors: C. Hampel, H.-J. Werner, 1991, M. Deegan, P.J. Knowles, 1992


 Convergence thresholds:  THRVAR = 1.00D-08  THRDEN = 1.00D-12

 CCSD(T)     terms to be evaluated (factor= 1.000)


 Number of core orbitals:           5 (   5 )
 Number of closed-shell orbitals:  16 (  16 )
 Number of external orbitals:      99 (  99 )

 Molecular orbitals read from record     2100.2  Type=RHF/CANONICAL (state 1.1)

 Number of N-1 electron functions:              16
 Number of N-2 electron functions:             136
 Number of singly external CSFs:              1584
 Number of doubly external CSFs:           1255320
 Total number of CSFs:                     1256905

 Length of J-op  integral file:               0.00 MB
 Length of K-op  integral file:               1.03 MB
 Length of 3-ext integral record:             0.00 MB

 Memory could be reduced to 21.47 Mwords without degradation in triples

 Integral transformation finished. Total CPU:   1.69 sec, npass=  1  Memory used:  18.35 MW

 Reference energy:                   -232.17511145

 MP2 singlet pair energy:              -0.49759666
 MP2 triplet pair energy:              -0.27475382
 MP2 correlation energy:               -0.77235048
 MP2 total energy:                   -232.94746193

 SCS-MP2 correlation energy:           -0.76807393   (PS=  1.200000  PT=  0.333333)
 SCS-MP2 total energy:               -232.94318538

 ITER.      SQ.NORM     CORR.ENERGY   TOTAL ENERGY   ENERGY CHANGE        DEN1      VAR(S)    VAR(P)  DIIS     TIME
   1      1.27363358    -0.82954883  -233.00466028    -0.05719835    -0.03605872  0.25D-02  0.44D-02  1  1     7.12
   2      1.29482043    -0.83386975  -233.00898120    -0.00432092    -0.02220548  0.67D-04  0.42D-03  2  2    12.55
   3      1.29934739    -0.83407998  -233.00919143    -0.00021023    -0.00277730  0.25D-04  0.24D-04  3  3    17.98
   4      1.30061605    -0.83408583  -233.00919729    -0.00000585    -0.00060347  0.64D-06  0.21D-05  4  4    23.45
   5      1.30084780    -0.83409480  -233.00920626    -0.00000897    -0.00008113  0.19D-06  0.15D-06  5  5    28.91
   6      1.30088906    -0.83409154  -233.00920299     0.00000327    -0.00001322  0.26D-07  0.14D-07  6  6    34.37
   7      1.30089601    -0.83409032  -233.00920177     0.00000122    -0.00000072  0.38D-08  0.17D-08  6  1    39.83
   8      1.30089960    -0.83409033  -233.00920178    -0.00000001    -0.00000042  0.68D-09  0.22D-09  6  2    45.29
   9      1.30090017    -0.83409026  -233.00920172     0.00000006     0.00000057  0.64D-10  0.39D-10  6  4    50.74
  10      1.30090076    -0.83409025  -233.00920170     0.00000001    -0.00000001  0.51D-11  0.38D-11  6  3    56.19
  11      1.30090073    -0.83409025  -233.00920171    -0.00000000     0.00000005  0.79D-12  0.47D-12  6  5    61.65
  12      1.30090067    -0.83409026  -233.00920171    -0.00000000     0.00000003  0.14D-12  0.66D-13  6  6    67.11
  13      1.30090062    -0.83409026  -233.00920171    -0.00000000     0.00000003  0.11D-13  0.10D-13  6  2    72.56
  14      1.30090060    -0.83409026  -233.00920171    -0.00000000     0.00000001  0.17D-14  0.62D-15  6  1    78.03
  15      1.30090060    -0.83409026  -233.00920171    -0.00000000     0.00000000  0.22D-15  0.13D-15  6  4    83.50
  16      1.30090060    -0.83409026  -233.00920171     0.00000000    -0.00000000  0.35D-16  0.20D-16  6  3    88.96
  17      1.30090060    -0.83409026  -233.00920171     0.00000000    -0.00000000  0.33D-17  0.26D-17  6  5    94.42
  18      1.30090060    -0.83409026  -233.00920171    -0.00000000    -0.00000000  0.89D-18  0.35D-18  6  6    99.88
  19      1.30090060    -0.83409026  -233.00920171    -0.00000000    -0.00000000  0.22D-18  0.64D-19  6  2   105.35
  20      1.30090060    -0.83409026  -233.00920171    -0.00000000     0.00000000  0.33D-19  0.12D-19  6  1   110.82
  21      1.30090060    -0.83409026  -233.00920171    -0.00000000     0.00000000  0.41D-20  0.21D-20  6  4   116.28
  22      1.30090060    -0.83409026  -233.00920171     0.00000000    -0.00000000  0.70D-21  0.32D-21  6  3   121.73

 Norm of t1 vector:      0.06605260      S-energy:    -0.00000000      T1 diagnostic:  0.00825658
                                                                       D1 diagnostic:  0.02162384


 Total CPU time for triples:     78.40 sec


 RESULTS
 =======

  Reference energy                   -232.175111451730
  CCSD singlet pair energy             -0.581024948189
  CCSD triplet pair energy             -0.253065311233
  CCSD correlation energy              -0.834090259423

  Triples (T) contribution             -0.023260541164
  Total correlation energy             -0.857350800587

  CCSD total energy                  -233.009201711153
  CCSD[T] energy                     -233.033159148659
  CCSD-T energy                      -233.032126217442
 !CCSD(T) total energy               -233.032462252317

 Timing summary (sec):

 STEP                 CPU(USER)    SYS     CPU(TOT)    WALL
 Transformation          1.79      0.15      1.94      1.95
 CCSD iterations       119.95      2.02    121.97    122.33
 Triples                78.40      1.25     79.65     79.68

 Program statistics:

 Available memory in ccsd:               999998876
 Min. memory needed in ccsd:               3310297
 Max. memory used in ccsd:                 4412497
 Max. memory used in cckext:               4149679 (22 integral passes)



 **********************************************************************************************************************************
 DATASETS  * FILE   NREC   LENGTH (MB)   RECORD NAMES
              1      20      293.31       500      610      700      900      950      970     1000      129      960     1100   
                                          VAR    BASINP    GEOM    SYMINP    ZMAT    AOBASIS   BASIS     P2S    ABASIS      S 
                                         1400     1410     1200     1210     1080     1600     1650     1300     1700     1380   
                                           T        V       H0       H01     AOSYM     SMH    MOLCAS    ERIS     OPER     JKOP   

              2       3        0.80       700     1000     2100   
                                         GEOM     BASIS     RHF  

 PROGRAMS   *        TOTAL   CCSD(T)       RHF       INT
 CPU TIMES  *       207.38    200.15      3.74      3.43
 REAL TIME  *       212.28 SEC
 DISK USED  *       747.48 MB      
 GA USED    *         0.01 MB       (max)       0.00 MB       (current)
 **********************************************************************************************************************************

        CCSD(T)         RHF-SCF 
   -233.03246225   -232.17511145
 **********************************************************************************************************************************
 Variable memory released
