
 Primary working directories    : /tmp/916842.112.gen6.q
 Secondary working directories  : /tmp/916842.112.gen6.q
 Wavefunction directory         : /home/vulcan/lo21740/wfu/
 Main file repository           : /tmp/916842.112.gen6.q/

 ARCHNAME  : Linux/x86_64
 FC        : /opt/intel/compilers_and_libraries_2016.1.150/linux/bin/intel64/ifort
 FCVERSION : 16.0.1
 BLASLIB   : -mkl
 id        : ccgc

 Nodes     nprocs
 n090         1
 ga_uses_ma=false, calling ma_init with nominal heap.
 GA-space will be limited to   8.0 MW (determined by -G option)

 Using customized tuning parameters: mindgm=10; mindgv=16; mindgc=4; mindgr=1; noblas=0; mincuda=1000; minvec=7
 default implementation of scratch files=df  

 ***,Optimization of h2o_2
 memory,1000,m
 gthresh,energy=1.0d-12,orbital=1.0d-10,oneint=1.0d-16,twoint=1.0d-16,optgrad=1.0d-6,compress=1.0d-13
 geomtyp=xyz
 
 bohr
 geometry = {
  O   -2.8091245703   -0.2027220728    0.0039327268
  H   -3.5738391973    1.4439705614   -0.0049907312
  H   -1.0070988495    0.1086975855    0.0019145555
  O    2.6824341236    0.1966201595    0.0008046072
  H    3.3358215252   -0.7010455106   -1.4396557702
  H    3.3367949763   -0.7055669690    1.4379946118
 }
 
 basis=aug-cc-pvdz
 {rhf;maxit,200}
 {ccsd(t);maxit,200}

 Variables initialized (661), CPU time= 0.00 sec
 Commands  initialized (458), CPU time= 0.01 sec, 486 directives.
 Default parameters read. Elapsed time= 0.05 sec

 Checking input...
 Passed
1


                                         ***  PROGRAM SYSTEM MOLPRO  ***
                         Copyright, University College Cardiff Consultants Limited, 2008

                                    Version 2010.1 linked May 16 2016 07:17:05


 **********************************************************************************************************************************
 LABEL *   Optimization of h2o_2                                                         
 Linux-4.4.3/n090(x86_64) 64 bit mpp version                                             DATE: 18-Jul-23          TIME: 11:29:27  
 **********************************************************************************************************************************

 SHA1:             9e8077add272b0f3cad6f7df79ec5211205f459d
 **********************************************************************************************************************************

 THRESHOLDS:

 ZERO    =  1.00D-12  ONEINT  =  1.00D-16  TWOINT  =  1.00D-16  PREFAC  =  1.00D-14  LOCALI  =  1.00D-09  EORDER  =  1.00D-04
 ENERGY  =  1.00D-12  ETEST   =  0.00D+00  EDENS   =  0.00D+00  THRDEDEF=  1.00D-06  GRADIENT=  1.00D-02  STEP    =  1.00D-03
 ORBITAL =  1.00D-10  CIVEC   =  1.00D-05  COEFF   =  1.00D-04  PRINTCI =  5.00D-02  PUNCHCI =  9.90D+01  OPTGRAD =  1.00D-06
 OPTENERG=  1.00D-06  OPTSTEP =  3.00D-04  THRGRAD =  1.00D-10  COMPRESS=  1.00D-13  VARMIN  =  1.00D-07  VARMAX  =  1.00D-03
 THRDOUB =  0.00D+00  THRDIV  =  1.00D-05  THRRED  =  1.00D-07  THRPSP  =  1.00D+00  THRDC   =  1.00D-10  THRCS   =  1.00D-10
 THRNRM  =  1.00D-08  THREQ   =  0.00D+00  THRDE   =  1.00D+00  THRREF  =  1.00D-05  SPARFAC =  1.00D+00  THRDLP  =  1.00D-07
 THRDIA  =  1.00D-10  THRDLS  =  1.00D-07  THRGPS  =  0.00D+00  THRKEX  =  0.00D+00  THRDIS  =  2.00D-01  THRVAR  =  1.00D-10
 THRLOC  =  1.00D-06  THRGAP  =  1.00D-06  THRLOCT = -1.00D+00  THRGAPT = -1.00D+00  THRORB  =  1.00D-06  THRMLTP =  0.00D+00
 THRCPQCI=  1.00D-10  KEXTA   =  0.00D+00  THRCOARS=  0.00D+00  SYMTOL  =  1.00D-06  GRADTOL =  1.00D-06  THROVL  =  1.00D-08
 THRORTH =  1.00D-08  GRID    =  1.00D-06  GRIDMAX =  1.00D-03  DTMAX   =  0.00D+00

 SETTING GEOMTYP        =    XYZ
 ZUNIT=BOHR
 

 Variable memory set to 1000000000 words,  buffer space   230000 words

 SETTING BASIS          =    AUG-CC-PVDZ


 Recomputing integrals since basis changed


 Using spherical harmonics

 Library entry O      S aug-cc-pVDZ          selected for orbital group  1
 Library entry O      P aug-cc-pVDZ          selected for orbital group  1
 Library entry O      D aug-cc-pVDZ          selected for orbital group  1
 Library entry H      S aug-cc-pVDZ          selected for orbital group  2
 Library entry H      P aug-cc-pVDZ          selected for orbital group  2

1PROGRAM * SEWARD (Integral evaluation for generally contracted gaussian basis sets)     Author: Roland Lindh, 1990

 Geometry written to block  1 of record 700


 Point group  C1  



 ATOMIC COORDINATES

 NR  ATOM    CHARGE       X              Y              Z

   1  O       8.00   -2.809124570   -0.202722073    0.003932727
   2  H       1.00   -3.573839197    1.443970561   -0.004990731
   3  H       1.00   -1.007098849    0.108697585    0.001914556
   4  O       8.00    2.682434124    0.196620160    0.000804607
   5  H       1.00    3.335821525   -0.701045511   -1.439655770
   6  H       1.00    3.336794976   -0.705566969    1.437994612

 Bond lengths in Bohr (Angstrom)

 1-2  1.815616898  1-3  1.828738083  4-5  1.818693171  4-6  1.818693171
     ( 0.960783083)     ( 0.967726515)     ( 0.962410976)     ( 0.962410976)

 Bond angles

  2-1-3  105.10455826   5-4-6  104.58292009

 NUCLEAR CHARGE:                   20
 NUMBER OF PRIMITIVE AOS:         118
 NUMBER OF SYMMETRY AOS:          114
 NUMBER OF CONTRACTIONS:           82   (  82A   )
 NUMBER OF CORE ORBITALS:           2   (   2A   )
 NUMBER OF VALENCE ORBITALS:       12   (  12A   )


 NUCLEAR REPULSION ENERGY   36.54528472


 Eigenvalues of metric

         1 0.167E-02 0.207E-02 0.264E-02 0.293E-02 0.618E-02 0.886E-02 0.116E-01 0.153E-01


 Contracted 2-electron integrals neglected if value below      1.0D-16
 AO integral compression algorithm  1   Integral accuracy      1.0D-16

     54.264 MB (compressed) written to integral file ( 93.2%)

     Node minimum: 54.264 MB, node maximum: 54.264 MB


 NUMBER OF SORTED TWO-ELECTRON INTEGRALS:    5791906.     BUFFER LENGTH:  32768
 NUMBER OF SEGMENTS:   1  SEGMENT LENGTH:    5791906      RECORD LENGTH: 524288

 Memory used in sort:       6.35 MW

 SORT1 READ     7252644. AND WROTE     5721060. INTEGRALS IN     17 RECORDS. CPU TIME:     0.05 SEC, REAL TIME:     0.09 SEC
 SORT2 READ     5721060. AND WROTE     5791906. INTEGRALS IN    207 RECORDS. CPU TIME:     0.07 SEC, REAL TIME:     0.09 SEC

 FILE SIZES:   FILE 1:    47.0 MBYTE,  FILE 4:    71.3 MBYTE,   TOTAL:    118.3 MBYTE

 OPERATOR DM      FOR CENTER  0  COORDINATES:    0.000000    0.000000    0.000000


 **********************************************************************************************************************************
 DATASETS  * FILE   NREC   LENGTH (MB)   RECORD NAMES
              1      19       47.03       500      610      700      900      950      970     1000      129      960     1100   
                                          VAR    BASINP    GEOM    SYMINP    ZMAT    AOBASIS   BASIS     P2S    ABASIS      S 
                                         1400     1410     1200     1210     1080     1600     1650     1300     1700   
                                           T        V       H0       H01     AOSYM     SMH    MOLCAS    ERIS     OPER   

 PROGRAMS   *        TOTAL       INT
 CPU TIMES  *         0.43      0.39
 REAL TIME  *         0.69 SEC
 DISK USED  *       173.18 MB      
 GA USED    *         0.00 MB       (max)       0.00 MB       (current)
 **********************************************************************************************************************************

1PROGRAM * RHF-SCF (CLOSED SHELL)       Authors: W. Meyer, H.-J. Werner


 NUMBER OF ELECTRONS:      10+   10-    SPACE SYMMETRY=1    SPIN SYMMETRY: Singlet 
 CONVERGENCE THRESHOLDS:    1.00E-10 (Density)    1.00E-13 (Energy)
 MAX. NUMBER OF ITERATIONS:      200
 INTERPOLATION TYPE:            DIIS
 INTERPOLATION STEPS:              2 (START)      1 (STEP)
 LEVEL SHIFTS:                  0.00 (CLOSED)  0.00 (OPEN) 



 Orbital guess generated from atomic densities. Full valence occupancy:   14

 Molecular orbital dump at record        2100.2

 ITERATION    DDIFF          GRAD             ENERGY        2-EL.EN.            DIPOLE MOMENTS         DIIS
    1      0.000D+00      0.000D+00      -152.02129416    191.272697    1.36047    0.08864   -0.00734    0
    2      0.000D+00      0.955D-02      -152.07071875    184.763056    1.00477    0.01981   -0.00427    1
    3      0.179D-01      0.543D-02      -152.08778556    187.562082    1.06689    0.04930   -0.00505    2
    4      0.606D-02      0.598D-03      -152.08816761    187.346475    1.05269    0.04701   -0.00502    3
    5      0.103D-02      0.142D-03      -152.08819668    187.367277    1.04879    0.04844   -0.00501    4
    6      0.271D-03      0.310D-04      -152.08819828    187.369800    1.04808    0.04780   -0.00501    5
    7      0.623D-04      0.145D-04      -152.08819848    187.368820    1.04786    0.04819   -0.00501    6
    8      0.202D-04      0.290D-05      -152.08819850    187.368774    1.04776    0.04815   -0.00501    7
    9      0.716D-05      0.453D-06      -152.08819850    187.368783    1.04774    0.04815   -0.00501    6
   10      0.984D-06      0.902D-07      -152.08819850    187.368778    1.04774    0.04815   -0.00501    6
   11      0.201D-06      0.226D-07      -152.08819850    187.368783    1.04774    0.04815   -0.00501    6
   12      0.452D-07      0.701D-08      -152.08819850    187.368781    1.04774    0.04815   -0.00501    6
   13      0.167D-07      0.261D-08      -152.08819850    187.368782    1.04774    0.04815   -0.00501    6
   14      0.488D-08      0.699D-09      -152.08819850    187.368782    1.04774    0.04815   -0.00501    7
   15      0.155D-08      0.201D-09      -152.08819850    187.368782    1.04774    0.04815   -0.00501    7
   16      0.330D-09      0.896D-10      -152.08819850    187.368782    1.04774    0.04815   -0.00501    7
   17      0.165D-09      0.255D-10      -152.08819850    187.368782    1.04774    0.04815   -0.00501    7
   18      0.591D-10      0.578D-11      -152.08819850    187.368782    1.04774    0.04815   -0.00501    7
   19      0.119D-10      0.142D-11      -152.08819850    187.368782    1.04774    0.04815   -0.00501    7
   20      0.334D-11      0.318D-12      -152.08819850    187.368782    1.04774    0.04815   -0.00501    7
   21      0.877D-12      0.113D-12      -152.08819850    187.368782    1.04774    0.04815   -0.00501    7
   22      0.304D-12      0.512D-13      -152.08819850    187.368782    1.04774    0.04815   -0.00501    8
   23      0.258D-12      0.214D-13      -152.08819850    187.368782    1.04774    0.04815   -0.00501    8
   24      0.182D-12      0.194D-13      -152.08819850    187.368782    1.04774    0.04815   -0.00501    8
   25      0.832D-13      0.196D-13      -152.08819850    187.368782    1.04774    0.04815   -0.00501    0

 Final occupancy:  10

 !RHF STATE 1.1 Energy               -152.088198498449
 Nuclear energy                        36.54528472
 One-electron energy                 -282.31787418
 Two-electron energy                   93.68439097
 Virial quotient                       -1.00167042
 !RHF STATE 1.1 Dipole moment           1.04773823     0.04815340    -0.00501171
 Dipole moment /Debye                   2.66291053     0.12238571    -0.01273766

 Orbital energies:

         1.1          2.1          3.1          4.1          5.1          6.1          7.1          8.1          9.1         10.1
    -20.602914   -20.546334    -1.381341    -1.323797    -0.741668    -0.695562    -0.614176    -0.558527    -0.529929    -0.480299

        11.1         12.1
      0.028380     0.055322


 **********************************************************************************************************************************
 DATASETS  * FILE   NREC   LENGTH (MB)   RECORD NAMES
              1      19       47.03       500      610      700      900      950      970     1000      129      960     1100   
                                          VAR    BASINP    GEOM    SYMINP    ZMAT    AOBASIS   BASIS     P2S    ABASIS      S 
                                         1400     1410     1200     1210     1080     1600     1650     1300     1700   
                                           T        V       H0       H01     AOSYM     SMH    MOLCAS    ERIS     OPER   

              2       3        0.48       700     1000     2100   
                                         GEOM     BASIS     RHF  

 PROGRAMS   *        TOTAL       RHF       INT
 CPU TIMES  *         1.29      0.86      0.39
 REAL TIME  *         1.68 SEC
 DISK USED  *       173.18 MB      
 GA USED    *         0.00 MB       (max)       0.00 MB       (current)
 **********************************************************************************************************************************


1PROGRAM * CCSD (Closed-shell coupled cluster)     Authors: C. Hampel, H.-J. Werner, 1991, M. Deegan, P.J. Knowles, 1992


 Convergence thresholds:  THRVAR = 1.00D-08  THRDEN = 1.00D-12

 CCSD(T)     terms to be evaluated (factor= 1.000)


 Number of core orbitals:           2 (   2 )
 Number of closed-shell orbitals:   8 (   8 )
 Number of external orbitals:      72 (  72 )

 Molecular orbitals read from record     2100.2  Type=RHF/CANONICAL (state 1.1)

 Number of N-1 electron functions:               8
 Number of N-2 electron functions:              36
 Number of singly external CSFs:               576
 Number of doubly external CSFs:            166176
 Total number of CSFs:                      166753

 Length of J-op  integral file:               0.00 MB
 Length of K-op  integral file:               0.50 MB
 Length of 3-ext integral record:             0.00 MB

 Memory could be reduced to 4.70 Mwords without degradation in triples

 Integral transformation finished. Total CPU:   0.12 sec, npass=  1  Memory used:   3.09 MW

 Reference energy:                   -152.08819850

 MP2 singlet pair energy:              -0.27224412
 MP2 triplet pair energy:              -0.16968074
 MP2 correlation energy:               -0.44192486
 MP2 total energy:                   -152.53012336

 SCS-MP2 correlation energy:           -0.43227207   (PS=  1.200000  PT=  0.333333)
 SCS-MP2 total energy:               -152.52047057

 ITER.      SQ.NORM     CORR.ENERGY   TOTAL ENERGY   ENERGY CHANGE        DEN1      VAR(S)    VAR(P)  DIIS     TIME
   1      1.12160348    -0.45556705  -152.54376555    -0.01364219    -0.00399151  0.25D-02  0.17D-02  1  1     0.33
   2      1.12997919    -0.45683573  -152.54503423    -0.00126868    -0.00891724  0.17D-04  0.28D-03  2  2     0.55
   3      1.13295214    -0.45709254  -152.54529104    -0.00025680    -0.00167718  0.35D-04  0.10D-04  3  3     0.77
   4      1.13388588    -0.45702759  -152.54522609     0.00006494    -0.00040715  0.17D-05  0.10D-05  4  4     0.99
   5      1.13414233    -0.45701290  -152.54521140     0.00001469    -0.00008250  0.22D-06  0.69D-07  5  5     1.22
   6      1.13419311    -0.45700978  -152.54520827     0.00000313    -0.00000665  0.23D-07  0.66D-08  6  6     1.44
   7      1.13420568    -0.45700824  -152.54520674     0.00000154    -0.00000123  0.20D-08  0.12D-08  6  2     1.67
   8      1.13420882    -0.45700818  -152.54520668     0.00000005    -0.00000008  0.24D-09  0.13D-09  6  1     1.89
   9      1.13420942    -0.45700816  -152.54520666     0.00000002     0.00000027  0.27D-10  0.15D-10  6  4     2.12
  10      1.13420982    -0.45700812  -152.54520662     0.00000004    -0.00000007  0.53D-11  0.14D-11  6  3     2.34
  11      1.13420979    -0.45700813  -152.54520663    -0.00000001     0.00000004  0.11D-11  0.24D-12  6  5     2.56
  12      1.13420976    -0.45700814  -152.54520663    -0.00000000     0.00000001  0.22D-12  0.54D-13  6  6     2.78
  13      1.13420972    -0.45700814  -152.54520664    -0.00000000     0.00000001  0.29D-13  0.93D-14  6  1     3.01
  14      1.13420971    -0.45700814  -152.54520664    -0.00000000     0.00000000  0.44D-14  0.12D-14  6  2     3.23
  15      1.13420971    -0.45700814  -152.54520664     0.00000000    -0.00000000  0.62D-15  0.24D-15  6  3     3.46
  16      1.13420971    -0.45700814  -152.54520664     0.00000000    -0.00000000  0.66D-16  0.30D-16  6  4     3.68
  17      1.13420971    -0.45700814  -152.54520664     0.00000000    -0.00000000  0.76D-17  0.36D-17  6  5     3.90
  18      1.13420971    -0.45700814  -152.54520664     0.00000000    -0.00000000  0.12D-17  0.81D-18  6  4     4.13
  19      1.13420971    -0.45700814  -152.54520664     0.00000000    -0.00000000  0.10D-18  0.62D-19  6  1     4.35
  20      1.13420971    -0.45700814  -152.54520664    -0.00000000     0.00000000  0.22D-19  0.70D-20  6  6     4.58
  21      1.13420971    -0.45700814  -152.54520664    -0.00000000     0.00000000  0.45D-20  0.13D-20  6  2     4.80

 Norm of t1 vector:      0.07019543      S-energy:     0.00000000      T1 diagnostic:  0.01240892
                                                                       D1 diagnostic:  0.02769219


 Total CPU time for triples:      1.72 sec


 RESULTS
 =======

  Reference energy                   -152.088198498450
  CCSD singlet pair energy             -0.306633045575
  CCSD triplet pair energy             -0.150375095110
  CCSD correlation energy              -0.457008140685

  Triples (T) contribution             -0.010946491664
  Total correlation energy             -0.467954632348

  CCSD total energy                  -152.545206639134
  CCSD[T] energy                     -152.556962365929
  CCSD-T energy                      -152.555814804330
 !CCSD(T) total energy               -152.556153130798

 Timing summary (sec):

 STEP                 CPU(USER)    SYS     CPU(TOT)    WALL
 Transformation          0.13      0.03      0.16      0.16
 CCSD iterations         4.67      0.23      4.90      4.93
 Triples                 1.72      0.04      1.76      1.76

 Program statistics:

 Available memory in ccsd:               999999644
 Min. memory needed in ccsd:                533913
 Max. memory used in ccsd:                  669257
 Max. memory used in cckext:                567422 (21 integral passes)



 **********************************************************************************************************************************
 DATASETS  * FILE   NREC   LENGTH (MB)   RECORD NAMES
              1      20       62.19       500      610      700      900      950      970     1000      129      960     1100   
                                          VAR    BASINP    GEOM    SYMINP    ZMAT    AOBASIS   BASIS     P2S    ABASIS      S 
                                         1400     1410     1200     1210     1080     1600     1650     1300     1700     1380   
                                           T        V       H0       H01     AOSYM     SMH    MOLCAS    ERIS     OPER     JKOP   

              2       3        0.48       700     1000     2100   
                                         GEOM     BASIS     RHF  

 PROGRAMS   *        TOTAL   CCSD(T)       RHF       INT
 CPU TIMES  *         7.82      6.53      0.86      0.39
 REAL TIME  *         8.56 SEC
 DISK USED  *       173.18 MB      
 GA USED    *         0.00 MB       (max)       0.00 MB       (current)
 **********************************************************************************************************************************

        CCSD(T)         RHF-SCF 
   -152.55615313   -152.08819850
 **********************************************************************************************************************************
 Variable memory released
