
 Primary working directories    : /tmp/1003441.456.gen6.q
 Secondary working directories  : /tmp/1003441.456.gen6.q
 Wavefunction directory         : /home/vulcan/jj04645/wfu/
 Main file repository           : /tmp/1003441.456.gen6.q/

 ARCHNAME  : Linux/x86_64
 FC        : /opt/intel/compilers_and_libraries_2016.1.150/linux/bin/intel64/ifort
 FCVERSION : 16.0.1
 BLASLIB   : -mkl
 id        : ccgc

 Nodes     nprocs
 n074         1
 ga_uses_ma=false, calling ma_init with nominal heap.
 GA-space will be limited to   8.0 MW (determined by -G option)

 Using customized tuning parameters: mindgm=10; mindgv=16; mindgc=4; mindgr=1; noblas=0; mincuda=1000; minvec=7
 default implementation of scratch files=df  

 ***,Optimization of acetyl acetylene
 memory,1000,m
 gthresh,energy=1.0d-12,orbital=1.0d-10,oneint=1.0d-16,twoint=1.0d-16,optgrad=1.0d-6,compress=1.0d-13
 geomtyp=xyz
 
 bohr
 geometry = {
  H    3.3718176289   -1.7728717574   -1.6645722649
  C    2.2747950657   -2.3128080853   -0.0015797468
  H    1.9263584350   -4.3391811933   -0.0015797468
  C   -0.2115187911   -0.9147412993   -0.0015797468
  H    3.3718176289   -1.7728717574    1.6614127713
  O   -2.2582637081   -1.9559607840   -0.0015797468
  C   -0.0149450745    1.8518124584   -0.0015797468
  C    0.2124789300    4.1330800933   -0.0015797468
  H    0.3485850644    6.1391071620    0.0126379741
 }
 
 basis=VDZ
 {rhf;maxit,200}
 {ccsd(t);maxit,200}

 Variables initialized (661), CPU time= 0.00 sec
 Commands  initialized (458), CPU time= 0.00 sec, 486 directives.
 Default parameters read. Elapsed time= 0.04 sec

 Checking input...
 Passed
1


                                         ***  PROGRAM SYSTEM MOLPRO  ***
                         Copyright, University College Cardiff Consultants Limited, 2008

                                    Version 2010.1 linked May 16 2016 07:17:05


 **********************************************************************************************************************************
 LABEL *   Optimization of acetyl acetylene                                              
 Linux-4.4.3/n074(x86_64) 64 bit mpp version                                             DATE: 15-Feb-24          TIME: 14:19:36  
 **********************************************************************************************************************************

 SHA1:             9e8077add272b0f3cad6f7df79ec5211205f459d
 **********************************************************************************************************************************

 THRESHOLDS:

 ZERO    =  1.00D-12  ONEINT  =  1.00D-16  TWOINT  =  1.00D-16  PREFAC  =  1.00D-14  LOCALI  =  1.00D-09  EORDER  =  1.00D-04
 ENERGY  =  1.00D-12  ETEST   =  0.00D+00  EDENS   =  0.00D+00  THRDEDEF=  1.00D-06  GRADIENT=  1.00D-02  STEP    =  1.00D-03
 ORBITAL =  1.00D-10  CIVEC   =  1.00D-05  COEFF   =  1.00D-04  PRINTCI =  5.00D-02  PUNCHCI =  9.90D+01  OPTGRAD =  1.00D-06
 OPTENERG=  1.00D-06  OPTSTEP =  3.00D-04  THRGRAD =  1.00D-10  COMPRESS=  1.00D-13  VARMIN  =  1.00D-07  VARMAX  =  1.00D-03
 THRDOUB =  0.00D+00  THRDIV  =  1.00D-05  THRRED  =  1.00D-07  THRPSP  =  1.00D+00  THRDC   =  1.00D-10  THRCS   =  1.00D-10
 THRNRM  =  1.00D-08  THREQ   =  0.00D+00  THRDE   =  1.00D+00  THRREF  =  1.00D-05  SPARFAC =  1.00D+00  THRDLP  =  1.00D-07
 THRDIA  =  1.00D-10  THRDLS  =  1.00D-07  THRGPS  =  0.00D+00  THRKEX  =  0.00D+00  THRDIS  =  2.00D-01  THRVAR  =  1.00D-10
 THRLOC  =  1.00D-06  THRGAP  =  1.00D-06  THRLOCT = -1.00D+00  THRGAPT = -1.00D+00  THRORB  =  1.00D-06  THRMLTP =  0.00D+00
 THRCPQCI=  1.00D-10  KEXTA   =  0.00D+00  THRCOARS=  0.00D+00  SYMTOL  =  1.00D-06  GRADTOL =  1.00D-06  THROVL  =  1.00D-08
 THRORTH =  1.00D-08  GRID    =  1.00D-06  GRIDMAX =  1.00D-03  DTMAX   =  0.00D+00

 SETTING GEOMTYP        =    XYZ
 ZUNIT=BOHR
 

 Variable memory set to 1000000000 words,  buffer space   230000 words

 SETTING BASIS          =    VDZ


 Recomputing integrals since basis changed


 Using spherical harmonics

 Library entry H      S cc-pVDZ              selected for orbital group  1
 Library entry H      P cc-pVDZ              selected for orbital group  1
 Library entry C      S cc-pVDZ              selected for orbital group  2
 Library entry C      P cc-pVDZ              selected for orbital group  2
 Library entry C      D cc-pVDZ              selected for orbital group  2
 Library entry O      S cc-pVDZ              selected for orbital group  6
 Library entry O      P cc-pVDZ              selected for orbital group  6
 Library entry O      D cc-pVDZ              selected for orbital group  6

1PROGRAM * SEWARD (Integral evaluation for generally contracted gaussian basis sets)     Author: Roland Lindh, 1990

 Geometry written to block  1 of record 700


 Point group  C1  



 ATOMIC COORDINATES

 NR  ATOM    CHARGE       X              Y              Z

   1  H       1.00    3.371817629   -1.772871757   -1.664572265
   2  C       6.00    2.274795066   -2.312808085   -0.001579747
   3  H       1.00    1.926358435   -4.339181193   -0.001579747
   4  C       6.00   -0.211518791   -0.914741299   -0.001579747
   5  H       1.00    3.371817629   -1.772871757    1.661412771
   6  O       8.00   -2.258263708   -1.955960784   -0.001579747
   7  C       6.00   -0.014945075    1.851812458   -0.001579747
   8  C       6.00    0.212478930    4.133080093   -0.001579747
   9  H       1.00    0.348585064    6.139107162    0.012637974

 Bond lengths in Bohr (Angstrom)

 1-2  2.064106067  2-3  2.056111879  2-4  2.852428322  2-5  2.064106067  4-6  2.296367299
     ( 1.092277888)     ( 1.088047545)     ( 1.509440058)     ( 1.092277888)     ( 1.215185238)

 4-7  2.773528605  7-8  2.292575778  8-9  2.010689340
     ( 1.467688126)     ( 1.213178852)     ( 1.064010973)

 Bond angles

  1-2-3  110.35685299   1-2-4  109.57554307   1-2-5  107.35041308   2-4-6  123.68739543

  2-4-7  115.28502355   3-2-4  109.59261934   3-2-5  110.35685299   4-2-5  109.57554307

  4-7-8  178.37112628   6-4-7  121.02758103   7-8-9  178.14363758

 NUCLEAR CHARGE:                   36
 NUMBER OF PRIMITIVE AOS:         163
 NUMBER OF SYMMETRY AOS:          158
 NUMBER OF CONTRACTIONS:           90   (  90A   )
 NUMBER OF CORE ORBITALS:           5   (   5A   )
 NUMBER OF VALENCE ORBITALS:       24   (  24A   )


 NUCLEAR REPULSION ENERGY  142.22934044


 Eigenvalues of metric

         1 0.305E-03 0.212E-02 0.377E-02 0.953E-02 0.161E-01 0.176E-01 0.219E-01 0.329E-01


 Contracted 2-electron integrals neglected if value below      1.0D-16
 AO integral compression algorithm  1   Integral accuracy      1.0D-16

     53.740 MB (compressed) written to integral file ( 70.1%)

     Node minimum: 53.740 MB, node maximum: 53.740 MB


 NUMBER OF SORTED TWO-ELECTRON INTEGRALS:    8386560.     BUFFER LENGTH:  32768
 NUMBER OF SEGMENTS:   1  SEGMENT LENGTH:    8386560      RECORD LENGTH: 524288

 Memory used in sort:       8.94 MW

 SORT1 READ     9559587. AND WROTE     6334738. INTEGRALS IN     19 RECORDS. CPU TIME:     0.07 SEC, REAL TIME:     0.11 SEC
 SORT2 READ     6334738. AND WROTE     8386560. INTEGRALS IN    205 RECORDS. CPU TIME:     0.10 SEC, REAL TIME:     0.11 SEC

 FILE SIZES:   FILE 1:    50.0 MBYTE,  FILE 4:    79.7 MBYTE,   TOTAL:    129.8 MBYTE

 OPERATOR DM      FOR CENTER  0  COORDINATES:    0.000000    0.000000    0.000000


 **********************************************************************************************************************************
 DATASETS  * FILE   NREC   LENGTH (MB)   RECORD NAMES
              1      19       50.14       500      610      700      900      950      970     1000      129      960     1100   
                                          VAR    BASINP    GEOM    SYMINP    ZMAT    AOBASIS   BASIS     P2S    ABASIS      S 
                                         1400     1410     1200     1210     1080     1600     1650     1300     1700   
                                           T        V       H0       H01     AOSYM     SMH    MOLCAS    ERIS     OPER   

 PROGRAMS   *        TOTAL       INT
 CPU TIMES  *         0.91      0.88
 REAL TIME  *         1.20 SEC
 DISK USED  *       184.25 MB      
 GA USED    *         0.00 MB       (max)       0.00 MB       (current)
 **********************************************************************************************************************************

1PROGRAM * RHF-SCF (CLOSED SHELL)       Authors: W. Meyer, H.-J. Werner


 NUMBER OF ELECTRONS:      18+   18-    SPACE SYMMETRY=1    SPIN SYMMETRY: Singlet 
 CONVERGENCE THRESHOLDS:    1.00E-10 (Density)    1.00E-13 (Energy)
 MAX. NUMBER OF ITERATIONS:      200
 INTERPOLATION TYPE:            DIIS
 INTERPOLATION STEPS:              2 (START)      1 (STEP)
 LEVEL SHIFTS:                  0.00 (CLOSED)  0.00 (OPEN) 



 Orbital guess generated from atomic densities. Full valence occupancy:   29

 Molecular orbital dump at record        2100.2

 ITERATION    DDIFF          GRAD             ENERGY        2-EL.EN.            DIPOLE MOMENTS         DIIS
    1      0.000D+00      0.000D+00      -228.51846441    442.464259    1.91964    1.01216    0.00200    0
    2      0.000D+00      0.891D-02      -228.57144498    440.623035    0.82417    0.44468    0.00248    1
    3      0.212D-01      0.653D-02      -228.60353217    441.177122    1.22234    0.61431    0.00263    2
    4      0.781D-02      0.106D-02      -228.60538486    441.308844    1.16466    0.62446    0.00263    3
    5      0.237D-02      0.401D-03      -228.60564766    441.202429    1.16045    0.58246    0.00271    4
    6      0.831D-03      0.148D-03      -228.60568457    441.234981    1.16157    0.59259    0.00269    5
    7      0.319D-03      0.624D-04      -228.60569346    441.224866    1.15806    0.58505    0.00270    6
    8      0.163D-03      0.257D-04      -228.60569505    441.227917    1.15781    0.58435    0.00269    7
    9      0.769D-04      0.709D-05      -228.60569521    441.226660    1.15727    0.58386    0.00269    8
   10      0.281D-04      0.161D-05      -228.60569522    441.227092    1.15718    0.58385    0.00269    7
   11      0.545D-05      0.741D-06      -228.60569522    441.226861    1.15714    0.58385    0.00269    8
   12      0.237D-05      0.401D-06      -228.60569522    441.226900    1.15712    0.58384    0.00269    8
   13      0.188D-05      0.191D-06      -228.60569522    441.226889    1.15712    0.58384    0.00269    9
   14      0.849D-06      0.653D-07      -228.60569522    441.226891    1.15713    0.58383    0.00269    9
   15      0.276D-06      0.134D-07      -228.60569522    441.226892    1.15713    0.58383    0.00269    8
   16      0.469D-07      0.427D-08      -228.60569522    441.226892    1.15713    0.58383    0.00269    8
   17      0.904D-08      0.196D-08      -228.60569522    441.226892    1.15713    0.58383    0.00269    9
   18      0.429D-08      0.607D-09      -228.60569522    441.226892    1.15713    0.58383    0.00269    9
   19      0.148D-08      0.202D-09      -228.60569522    441.226892    1.15713    0.58383    0.00269    9
   20      0.542D-09      0.393D-10      -228.60569522    441.226892    1.15713    0.58383    0.00269    7
   21      0.115D-09      0.101D-10      -228.60569522    441.226892    1.15713    0.58383    0.00269    7
   22      0.244D-10      0.501D-11      -228.60569522    441.226892    1.15713    0.58383    0.00269    7
   23      0.127D-10      0.281D-11      -228.60569522    441.226892    1.15713    0.58383    0.00269    8
   24      0.993D-11      0.124D-11      -228.60569522    441.226892    1.15713    0.58383    0.00269    0

 Final occupancy:  18

 !RHF STATE 1.1 Energy               -228.605695222861
 Nuclear energy                       142.22934044
 One-electron energy                 -591.44848170
 Two-electron energy                  220.61344604
 Virial quotient                       -1.00147474
 !RHF STATE 1.1 Dipole moment           1.15712696     0.58383032     0.00269426
 Dipole moment /Debye                   2.94093073     1.48385145     0.00684768

 Orbital energies:

         1.1          2.1          3.1          4.1          5.1          6.1          7.1          8.1          9.1         10.1
    -20.568347   -11.368635   -11.272676   -11.261572   -11.252559    -1.403921    -1.070683    -1.015786    -0.860367    -0.733016

        11.1         12.1         13.1         14.1         15.1         16.1         17.1         18.1         19.1         20.1
     -0.684880    -0.637249    -0.614268    -0.571517    -0.517742    -0.445506    -0.417714    -0.414357     0.094171     0.180141


 **********************************************************************************************************************************
 DATASETS  * FILE   NREC   LENGTH (MB)   RECORD NAMES
              1      19       50.14       500      610      700      900      950      970     1000      129      960     1100   
                                          VAR    BASINP    GEOM    SYMINP    ZMAT    AOBASIS   BASIS     P2S    ABASIS      S 
                                         1400     1410     1200     1210     1080     1600     1650     1300     1700   
                                           T        V       H0       H01     AOSYM     SMH    MOLCAS    ERIS     OPER   

              2       3        0.57       700     1000     2100   
                                         GEOM     BASIS     RHF  

 PROGRAMS   *        TOTAL       RHF       INT
 CPU TIMES  *         2.31      1.39      0.88
 REAL TIME  *         2.72 SEC
 DISK USED  *       184.25 MB      
 GA USED    *         0.00 MB       (max)       0.00 MB       (current)
 **********************************************************************************************************************************


1PROGRAM * CCSD (Closed-shell coupled cluster)     Authors: C. Hampel, H.-J. Werner, 1991, M. Deegan, P.J. Knowles, 1992


 Convergence thresholds:  THRVAR = 1.00D-08  THRDEN = 1.00D-12

 CCSD(T)     terms to be evaluated (factor= 1.000)


 Number of core orbitals:           5 (   5 )
 Number of closed-shell orbitals:  13 (  13 )
 Number of external orbitals:      72 (  72 )

 Molecular orbitals read from record     2100.2  Type=RHF/CANONICAL (state 1.1)

 Number of N-1 electron functions:              13
 Number of N-2 electron functions:              91
 Number of singly external CSFs:               936
 Number of doubly external CSFs:            438516
 Total number of CSFs:                      439453

 Length of J-op  integral file:               0.00 MB
 Length of K-op  integral file:               0.59 MB
 Length of 3-ext integral record:             0.00 MB

 Memory could be reduced to 7.27 Mwords without degradation in triples

 Integral transformation finished. Total CPU:   0.30 sec, npass=  1  Memory used:   6.58 MW

 Reference energy:                   -228.60569522

 MP2 singlet pair energy:              -0.43052676
 MP2 triplet pair energy:              -0.26903361
 MP2 correlation energy:               -0.69956037
 MP2 total energy:                   -229.30525560

 SCS-MP2 correlation energy:           -0.68403080   (PS=  1.200000  PT=  0.333333)
 SCS-MP2 total energy:               -229.28972603

 ITER.      SQ.NORM     CORR.ENERGY   TOTAL ENERGY   ENERGY CHANGE        DEN1      VAR(S)    VAR(P)  DIIS     TIME
   1      1.25726766    -0.72722879  -229.33292401    -0.02766841    -0.00370411  0.60D-02  0.55D-02  1  1     1.12
   2      1.28001790    -0.73000077  -229.33569599    -0.00277198    -0.02080687  0.12D-03  0.98D-03  2  2     1.96
   3      1.29067675    -0.73077634  -229.33647157    -0.00077557    -0.00476050  0.11D-03  0.92D-04  3  3     2.79
   4      1.29496070    -0.73074120  -229.33643642     0.00003515    -0.00140762  0.80D-05  0.18D-04  4  4     3.63
   5      1.29682179    -0.73076221  -229.33645743    -0.00002102    -0.00044486  0.16D-05  0.20D-05  5  5     4.47
   6      1.29724724    -0.73075817  -229.33645339     0.00000404    -0.00006268  0.28D-06  0.27D-06  6  6     5.31
   7      1.29733507    -0.73075396  -229.33644918     0.00000421    -0.00000186  0.56D-07  0.30D-07  6  1     6.15
   8      1.29737323    -0.73075493  -229.33645015    -0.00000097    -0.00000950  0.11D-07  0.48D-08  6  2     6.98
   9      1.29737541    -0.73075503  -229.33645025    -0.00000010     0.00000299  0.17D-08  0.83D-09  6  3     7.83
  10      1.29737816    -0.73075474  -229.33644997     0.00000028    -0.00000058  0.33D-09  0.16D-09  6  4     8.66
  11      1.29737798    -0.73075500  -229.33645022    -0.00000025     0.00000057  0.42D-10  0.32D-10  6  5     9.50
  12      1.29737769    -0.73075495  -229.33645018     0.00000004     0.00000015  0.83D-11  0.62D-11  6  6    10.34
  13      1.29737735    -0.73075498  -229.33645020    -0.00000003     0.00000015  0.95D-12  0.16D-11  6  1    11.19
  14      1.29737711    -0.73075499  -229.33645021    -0.00000000     0.00000006  0.28D-12  0.24D-12  6  2    12.03
  15      1.29737700    -0.73075499  -229.33645021    -0.00000000     0.00000003  0.44D-13  0.50D-13  6  3    12.87
  16      1.29737696    -0.73075499  -229.33645021    -0.00000000     0.00000001  0.86D-14  0.10D-13  6  4    13.71
  17      1.29737694    -0.73075499  -229.33645021    -0.00000000     0.00000000  0.27D-14  0.12D-14  6  5    14.54
  18      1.29737693    -0.73075499  -229.33645021    -0.00000000    -0.00000000  0.44D-15  0.26D-15  6  6    15.38
  19      1.29737693    -0.73075499  -229.33645021    -0.00000000    -0.00000000  0.14D-15  0.53D-16  6  1    16.22
  20      1.29737693    -0.73075499  -229.33645021    -0.00000000    -0.00000000  0.51D-16  0.13D-16  6  4    17.06
  21      1.29737693    -0.73075499  -229.33645021    -0.00000000     0.00000000  0.18D-16  0.37D-17  6  2    17.90
  22      1.29737693    -0.73075499  -229.33645021    -0.00000000     0.00000000  0.57D-17  0.15D-17  6  3    18.75
  23      1.29737693    -0.73075499  -229.33645021     0.00000000    -0.00000000  0.14D-17  0.51D-18  6  5    19.58
  24      1.29737693    -0.73075499  -229.33645021    -0.00000000    -0.00000000  0.32D-18  0.14D-18  6  6    20.42
  25      1.29737693    -0.73075499  -229.33645021     0.00000000    -0.00000000  0.48D-19  0.25D-19  6  1    21.27
  26      1.29737693    -0.73075499  -229.33645021     0.00000000    -0.00000000  0.14D-19  0.42D-20  6  4    22.12
  27      1.29737693    -0.73075499  -229.33645021     0.00000000    -0.00000000  0.31D-20  0.11D-20  6  2    22.95

 Norm of t1 vector:      0.10834088      S-energy:     0.00000000      T1 diagnostic:  0.01502418
                                                                       D1 diagnostic:  0.05036955

 Doubles amplitudes (print threshold =  0.500E-01):

         I         J         SYM. A    SYM. B    A         B      T(IJ, AB)

        10        10         1         1         1         1     -0.05804024
        12        12         1         1         2         2     -0.06406003
        13        13         1         1         1         1     -0.07377694


 Total CPU time for triples:      7.62 sec


 RESULTS
 =======

  Reference energy                   -228.605695222861
  CCSD singlet pair energy             -0.496641627229
  CCSD triplet pair energy             -0.234113361858
  CCSD correlation energy              -0.730754989087

  Triples (T) contribution             -0.028478287798
  Total correlation energy             -0.759233276885

  CCSD total energy                  -229.336450211948
  CCSD[T] energy                     -229.366784930056
  CCSD-T energy                      -229.364225400531
 !CCSD(T) total energy               -229.364928499746

 Timing summary (sec):

 STEP                 CPU(USER)    SYS     CPU(TOT)    WALL
 Transformation          0.32      0.05      0.37      0.37
 CCSD iterations        22.64      0.63     23.27     23.32
 Triples                 7.62      0.19      7.81      7.81

 Program statistics:

 Available memory in ccsd:               999999224
 Min. memory needed in ccsd:               1253983
 Max. memory used in ccsd:                 1626745
 Max. memory used in cckext:               1605212 (27 integral passes)



 **********************************************************************************************************************************
 DATASETS  * FILE   NREC   LENGTH (MB)   RECORD NAMES
              1      20       78.89       500      610      700      900      950      970     1000      129      960     1100   
                                          VAR    BASINP    GEOM    SYMINP    ZMAT    AOBASIS   BASIS     P2S    ABASIS      S 
                                         1400     1410     1200     1210     1080     1600     1650     1300     1700     1380   
                                           T        V       H0       H01     AOSYM     SMH    MOLCAS    ERIS     OPER     JKOP   

              2       3        0.57       700     1000     2100   
                                         GEOM     BASIS     RHF  

 PROGRAMS   *        TOTAL   CCSD(T)       RHF       INT
 CPU TIMES  *        32.89     30.59      1.39      0.88
 REAL TIME  *        34.25 SEC
 DISK USED  *       211.37 MB      
 GA USED    *         0.00 MB       (max)       0.00 MB       (current)
 **********************************************************************************************************************************

        CCSD(T)         RHF-SCF 
   -229.36492850   -228.60569522
 **********************************************************************************************************************************
 Variable memory released
