
 Primary working directories    : /tmp/1047041.1496.gen4.q
 Secondary working directories  : /tmp/1047041.1496.gen4.q
 Wavefunction directory         : /home/vulcan/mel64643/wfu/
 Main file repository           : /tmp/1047041.1496.gen4.q/

 ARCHNAME  : Linux/x86_64
 FC        : /opt/intel/compilers_and_libraries_2016.1.150/linux/bin/intel64/ifort
 FCVERSION : 16.0.1
 BLASLIB   : -mkl
 id        : ccgc

 Nodes     nprocs
 n065         1
 ga_uses_ma=false, calling ma_init with nominal heap.
 GA-space will be limited to   8.0 MW (determined by -G option)

 Using customized tuning parameters: mindgm=10; mindgv=16; mindgc=4; mindgr=1; noblas=0; mincuda=1000; minvec=7
 default implementation of scratch files=df  

 ***,Optimization of ben_hcn
 memory,1000,m
 gthresh,energy=1.0d-12,orbital=1.0d-10,oneint=1.0d-16,twoint=1.0d-16,optgrad=1.0d-6,compress=1.0d-13
 geomtyp=xyz
 
 
 
 bohr
 geometry = {
  C   -1.8811029104    1.3700845117    2.2857181449
  C   -1.8525937530    2.6907961313   -0.0041365512
  C   -1.8700119648    1.3682300366   -2.2930168096
  C   -1.9159019762   -1.2748374320   -2.2919587556
  C   -1.9443972633   -2.5953663550   -0.0022345637
  C   -1.9269720745   -1.2730024327    2.2865538332
  H   -1.8701455634    2.3946570968    4.0589385971
  H   -1.8299814779    4.7386551496   -0.0049226428
  H   -1.8605360698    2.3915162026   -4.0669829089
  H   -1.9313112260   -2.2993288890   -4.0651616863
  H   -1.9714204461   -4.6431219593   -0.0014629233
  H   -1.9407771493   -2.2962574759    4.0604888039
  N    6.6263751364   -0.2126527798    0.0152109577
  C    4.4373246929   -0.0784559513    0.0116183105
  H    2.4182532924    0.0456076944    0.0084487082
 }
 
 basis=aug-cc-pvdz, H=cc-pvdz
 {rhf;maxit,200}
 {ccsd(t)}

 Variables initialized (661), CPU time= 0.00 sec
 Commands  initialized (458), CPU time= 0.00 sec, 486 directives.
 Default parameters read. Elapsed time= 0.04 sec

 Checking input...
 Passed
1


                                         ***  PROGRAM SYSTEM MOLPRO  ***
                         Copyright, University College Cardiff Consultants Limited, 2008

                                    Version 2010.1 linked May 16 2016 07:17:05


 **********************************************************************************************************************************
 LABEL *   Optimization of ben_hcn                                                       
 Linux-4.4.3/n065(x86_64) 64 bit mpp version                                             DATE: 10-Mar-24          TIME: 06:31:07  
 **********************************************************************************************************************************

 SHA1:             9e8077add272b0f3cad6f7df79ec5211205f459d
 **********************************************************************************************************************************

 THRESHOLDS:

 ZERO    =  1.00D-12  ONEINT  =  1.00D-16  TWOINT  =  1.00D-16  PREFAC  =  1.00D-14  LOCALI  =  1.00D-09  EORDER  =  1.00D-04
 ENERGY  =  1.00D-12  ETEST   =  0.00D+00  EDENS   =  0.00D+00  THRDEDEF=  1.00D-06  GRADIENT=  1.00D-02  STEP    =  1.00D-03
 ORBITAL =  1.00D-10  CIVEC   =  1.00D-05  COEFF   =  1.00D-04  PRINTCI =  5.00D-02  PUNCHCI =  9.90D+01  OPTGRAD =  1.00D-06
 OPTENERG=  1.00D-06  OPTSTEP =  3.00D-04  THRGRAD =  1.00D-10  COMPRESS=  1.00D-13  VARMIN  =  1.00D-07  VARMAX  =  1.00D-03
 THRDOUB =  0.00D+00  THRDIV  =  1.00D-05  THRRED  =  1.00D-07  THRPSP  =  1.00D+00  THRDC   =  1.00D-10  THRCS   =  1.00D-10
 THRNRM  =  1.00D-08  THREQ   =  0.00D+00  THRDE   =  1.00D+00  THRREF  =  1.00D-05  SPARFAC =  1.00D+00  THRDLP  =  1.00D-07
 THRDIA  =  1.00D-10  THRDLS  =  1.00D-07  THRGPS  =  0.00D+00  THRKEX  =  0.00D+00  THRDIS  =  2.00D-01  THRVAR  =  1.00D-10
 THRLOC  =  1.00D-06  THRGAP  =  1.00D-06  THRLOCT = -1.00D+00  THRGAPT = -1.00D+00  THRORB  =  1.00D-06  THRMLTP =  0.00D+00
 THRCPQCI=  1.00D-10  KEXTA   =  0.00D+00  THRCOARS=  0.00D+00  SYMTOL  =  1.00D-06  GRADTOL =  1.00D-06  THROVL  =  1.00D-08
 THRORTH =  1.00D-08  GRID    =  1.00D-06  GRIDMAX =  1.00D-03  DTMAX   =  0.00D+00

 SETTING GEOMTYP        =    XYZ
 ZUNIT=BOHR
 

 Variable memory set to 1000000000 words,  buffer space   230000 words

 SETTING BASIS          =    AUG-CC-PVDZ,H=CC-PVDZ


 Recomputing integrals since basis changed


 Using spherical harmonics

 Library entry C      S aug-cc-pVDZ          selected for orbital group  1
 Library entry C      P aug-cc-pVDZ          selected for orbital group  1
 Library entry C      D aug-cc-pVDZ          selected for orbital group  1
 Library entry H      S cc-pVDZ              selected for orbital group  2
 Library entry H      P cc-pVDZ              selected for orbital group  2
 Library entry N      S aug-cc-pVDZ          selected for orbital group  3
 Library entry N      P aug-cc-pVDZ          selected for orbital group  3
 Library entry N      D aug-cc-pVDZ          selected for orbital group  3

1PROGRAM * SEWARD (Integral evaluation for generally contracted gaussian basis sets)     Author: Roland Lindh, 1990

 Geometry written to block  1 of record 700


 Point group  C1  



 ATOMIC COORDINATES

 NR  ATOM    CHARGE       X              Y              Z

   1  C       6.00   -1.881102910    1.370084512    2.285718145
   2  C       6.00   -1.852593753    2.690796131   -0.004136551
   3  C       6.00   -1.870011965    1.368230037   -2.293016810
   4  C       6.00   -1.915901976   -1.274837432   -2.291958756
   5  C       6.00   -1.944397263   -2.595366355   -0.002234564
   6  C       6.00   -1.926972075   -1.273002433    2.286553833
   7  H       1.00   -1.870145563    2.394657097    4.058938597
   8  H       1.00   -1.829981478    4.738655150   -0.004922643
   9  H       1.00   -1.860536070    2.391516203   -4.066982909
  10  H       1.00   -1.931311226   -2.299328889   -4.065161686
  11  H       1.00   -1.971420446   -4.643121959   -0.001462923
  12  H       1.00   -1.940777149   -2.296257476    4.060488804
  13  N       7.00    6.626375136   -0.212652780    0.015210958
  14  C       6.00    4.437324693   -0.078455951    0.011618310
  15  H       1.00    2.418253292    0.045607694    0.008448708

 Bond lengths in Bohr (Angstrom)

 1-2  2.643582131  1-6  2.643485062  1-7  2.047969682  2-3  2.643569047  2-8  2.047984007
     ( 1.398923414)     ( 1.398872047)     ( 1.083738880)     ( 1.398916490)     ( 1.083746461)

  3- 4  2.643466031   3- 9  2.047964866   4- 5  2.643377667   4-10  2.047942583   5- 6  2.643388414
       ( 1.398861976)       ( 1.083736332)       ( 1.398815216)       ( 1.083724540)       ( 1.398820903)

  5-11  2.047934047   6-12  2.047946958  13-14  2.193162908  14-15  2.022881893
       ( 1.083720023)       ( 1.083726856)       ( 1.160571826)       ( 1.070462995)

 Bond angles

  1- 2- 3  119.99746549   1- 2- 8  120.00084234   1- 6- 5  120.00123549   1- 6-12  119.99766750

  2-1-6  119.99850417   2-1-7  119.99941159   2-3-4  119.99920943   2-3-9  119.99876672

  3- 2- 8  120.00036582   3- 4- 5  120.00130473   3- 4-10  119.99752779   4- 3- 9  120.00077479

  4- 5- 6  120.00228066   4- 5-11  119.99909339   5- 4-10  120.00113795   5- 6-12  120.00056265

  6- 1- 7  120.00203520   6- 5-11  119.99804864  13-14-15  179.99091354

 NUCLEAR CHARGE:                   56
 NUMBER OF PRIMITIVE AOS:         345
 NUMBER OF SYMMETRY AOS:          329
 NUMBER OF CONTRACTIONS:          219   ( 219A   )
 NUMBER OF CORE ORBITALS:           8   (   8A   )
 NUMBER OF VALENCE ORBITALS:       39   (  39A   )


 NUCLEAR REPULSION ENERGY  303.39071887


 Eigenvalues of metric

         1 0.864E-05 0.186E-04 0.229E-04 0.534E-04 0.631E-04 0.631E-04 0.925E-04 0.925E-04


 Contracted 2-electron integrals neglected if value below      1.0D-16
 AO integral compression algorithm  1   Integral accuracy      1.0D-16

     2340.946 MB (compressed) written to integral file ( 91.3%)

     Node minimum: 2340.946 MB, node maximum: 2340.946 MB


 NUMBER OF SORTED TWO-ELECTRON INTEGRALS:  290176095.     BUFFER LENGTH:  32768
 NUMBER OF SEGMENTS:  19  SEGMENT LENGTH:   15999762      RECORD LENGTH: 524288

 Memory used in sort:      16.56 MW

 SORT1 READ   320642736. AND WROTE   287589156. INTEGRALS IN    832 RECORDS. CPU TIME:     3.28 SEC, REAL TIME:     5.74 SEC
 SORT2 READ   287589156. AND WROTE   290176095. INTEGRALS IN   8930 RECORDS. CPU TIME:     1.92 SEC, REAL TIME:     2.98 SEC

 FILE SIZES:   FILE 1:  2151.6 MBYTE,  FILE 4:  3489.7 MBYTE,   TOTAL:   5641.3 MBYTE

 OPERATOR DM      FOR CENTER  0  COORDINATES:    0.000000    0.000000    0.000000


 **********************************************************************************************************************************
 DATASETS  * FILE   NREC   LENGTH (MB)   RECORD NAMES
              1      19     2152.21       500      610      700      900      950      970     1000      129      960     1100   
                                          VAR    BASINP    GEOM    SYMINP    ZMAT    AOBASIS   BASIS     P2S    ABASIS      S 
                                         1400     1410     1200     1210     1080     1600     1650     1300     1700   
                                           T        V       H0       H01     AOSYM     SMH    MOLCAS    ERIS     OPER   

 PROGRAMS   *        TOTAL       INT
 CPU TIMES  *        18.34     18.30
 REAL TIME  *        23.17 SEC
 DISK USED  *         7.98 GB      
 GA USED    *         0.01 MB       (max)       0.00 MB       (current)
 **********************************************************************************************************************************

1PROGRAM * RHF-SCF (CLOSED SHELL)       Authors: W. Meyer, H.-J. Werner


 NUMBER OF ELECTRONS:      28+   28-    SPACE SYMMETRY=1    SPIN SYMMETRY: Singlet 
 CONVERGENCE THRESHOLDS:    1.00E-10 (Density)    1.00E-13 (Energy)
 MAX. NUMBER OF ITERATIONS:      200
 INTERPOLATION TYPE:            DIIS
 INTERPOLATION STEPS:              2 (START)      1 (STEP)
 LEVEL SHIFTS:                  0.00 (CLOSED)  0.00 (OPEN) 



 Orbital guess generated from atomic densities. Full valence occupancy:   47

 Molecular orbital dump at record        2100.2

 ITERATION    DDIFF          GRAD             ENERGY        2-EL.EN.            DIPOLE MOMENTS         DIIS
    1      0.000D+00      0.000D+00      -323.54137057    822.119802   -1.90434    0.11175   -0.00317    0
    2      0.000D+00      0.292D-02      -323.59781209    819.099561   -1.37523    0.05348   -0.00274    1
    3      0.781D-02      0.179D-02      -323.61440736    820.244816   -1.73632    0.08568   -0.00323    2
    4      0.260D-02      0.576D-03      -323.61674387    820.446593   -1.64592    0.07766   -0.00308    3
    5      0.963D-03      0.133D-03      -323.61687321    820.186601   -1.66990    0.07845   -0.00316    4
    6      0.223D-03      0.229D-04      -323.61687934    820.213476   -1.67130    0.07840   -0.00316    5
    7      0.845D-04      0.434D-05      -323.61687954    820.208592   -1.67165    0.07832   -0.00316    6
    8      0.108D-04      0.123D-05      -323.61687955    820.209583   -1.67196    0.07838   -0.00316    7
    9      0.345D-05      0.268D-06      -323.61687955    820.209616   -1.67193    0.07833   -0.00316    6
   10      0.813D-06      0.722D-07      -323.61687955    820.209595   -1.67194    0.07836   -0.00316    6
   11      0.185D-06      0.364D-07      -323.61687955    820.209611   -1.67194    0.07835   -0.00316    7
   12      0.843D-07      0.712D-08      -323.61687955    820.209605   -1.67193    0.07835   -0.00316    7
   13      0.238D-07      0.263D-08      -323.61687955    820.209608   -1.67193    0.07835   -0.00316    7
   14      0.653D-08      0.776D-09      -323.61687955    820.209606   -1.67193    0.07835   -0.00316    7
   15      0.214D-08      0.295D-09      -323.61687955    820.209607   -1.67193    0.07835   -0.00316    8
   16      0.853D-09      0.943D-10      -323.61687955    820.209607   -1.67193    0.07835   -0.00316    8
   17      0.280D-09      0.392D-10      -323.61687955    820.209607   -1.67193    0.07835   -0.00316    8
   18      0.198D-09      0.184D-10      -323.61687955    820.209607   -1.67193    0.07835   -0.00316    8
   19      0.211D-09      0.835D-11      -323.61687955    820.209607   -1.67193    0.07835   -0.00316    8
   20      0.257D-09      0.351D-11      -323.61687955    820.209607   -1.67193    0.07835   -0.00316    9
   21      0.139D-09      0.162D-11      -323.61687955    820.209607   -1.67193    0.07835   -0.00316    9
   22      0.124D-09      0.795D-12      -323.61687955    820.209607   -1.67193    0.07835   -0.00316    9
   23      0.111D-09      0.647D-12      -323.61687955    820.209607   -1.67193    0.07835   -0.00316    9
   24      0.463D-10      0.562D-12      -323.61687955    820.209607   -1.67193    0.07835   -0.00316    9
   25      0.659D-10      0.562D-12      -323.61687955    820.209607   -1.67193    0.07835   -0.00316    9
   26      0.294D-10      0.576D-12      -323.61687955    820.209607   -1.67193    0.07835   -0.00316    9
   27      0.245D-10      0.493D-12      -323.61687955    820.209607   -1.67193    0.07835   -0.00316    9
   28      0.126D-10      0.527D-12      -323.61687955    820.209607   -1.67193    0.07835   -0.00316    9
   29      0.944D-11      0.435D-12      -323.61687955    820.209607   -1.67193    0.07835   -0.00316    0

 Final occupancy:  28

 !RHF STATE 1.1 Energy               -323.616879552931
 Nuclear energy                       303.39071887
 One-electron energy                -1037.11240186
 Two-electron energy                  410.10480343
 Virial quotient                       -1.00170996
 !RHF STATE 1.1 Dipole moment          -1.67193165     0.07835293    -0.00316139
 Dipole moment /Debye                  -4.24934804     0.19914024    -0.00803493

 Orbital energies:

         1.1          2.1          3.1          4.1          5.1          6.1          7.1          8.1          9.1         10.1
    -15.591581   -11.283805   -11.266254   -11.265701   -11.265690   -11.264521   -11.264508   -11.263920    -1.218270    -1.173916

        11.1         12.1         13.1         14.1         15.1         16.1         17.1         18.1         19.1         20.1
     -1.037786    -1.037784    -0.845717    -0.845715    -0.789858    -0.729357    -0.664873    -0.639191    -0.608568    -0.608565

        21.1         22.1         23.1         24.1         25.1         26.1         27.1         28.1         29.1         30.1
     -0.565168    -0.520363    -0.514855    -0.514854    -0.475627    -0.475622    -0.359667    -0.359659     0.055799     0.060075


 **********************************************************************************************************************************
 DATASETS  * FILE   NREC   LENGTH (MB)   RECORD NAMES
              1      19     2152.21       500      610      700      900      950      970     1000      129      960     1100   
                                          VAR    BASINP    GEOM    SYMINP    ZMAT    AOBASIS   BASIS     P2S    ABASIS      S 
                                         1400     1410     1200     1210     1080     1600     1650     1300     1700   
                                           T        V       H0       H01     AOSYM     SMH    MOLCAS    ERIS     OPER   

              2       3        1.49       700     1000     2100   
                                         GEOM     BASIS     RHF  

 PROGRAMS   *        TOTAL       RHF       INT
 CPU TIMES  *        84.40     66.06     18.30
 REAL TIME  *        95.84 SEC
 DISK USED  *         7.98 GB      
 GA USED    *         0.01 MB       (max)       0.00 MB       (current)
 **********************************************************************************************************************************


1PROGRAM * CCSD (Closed-shell coupled cluster)     Authors: C. Hampel, H.-J. Werner, 1991, M. Deegan, P.J. Knowles, 1992


 Convergence thresholds:  THRVAR = 1.00D-08  THRDEN = 1.00D-12

 CCSD(T)     terms to be evaluated (factor= 1.000)


 Number of core orbitals:           8 (   8 )
 Number of closed-shell orbitals:  20 (  20 )
 Number of external orbitals:     191 ( 191 )

 Molecular orbitals read from record     2100.2  Type=RHF/CANONICAL (state 1.1)

 Number of N-1 electron functions:              20
 Number of N-2 electron functions:             210
 Number of singly external CSFs:              3820
 Number of doubly external CSFs:           7298110
 Total number of CSFs:                     7301931

 Length of J-op  integral file:               0.00 MB
 Length of K-op  integral file:               3.32 MB
 Length of 3-ext integral record:             0.00 MB

 Memory could be reduced to 174.82 Mwords without degradation in triples

 Integral transformation finished. Total CPU:  19.07 sec, npass=  1  Memory used: 128.13 MW

 Reference energy:                   -323.61687955

 MP2 singlet pair energy:              -0.67334627
 MP2 triplet pair energy:              -0.43519958
 MP2 correlation energy:               -1.10854586
 MP2 total energy:                   -324.72542541

 SCS-MP2 correlation energy:           -1.07880638   (PS=  1.200000  PT=  0.333333)
 SCS-MP2 total energy:               -324.69568593

 ITER.      SQ.NORM     CORR.ENERGY   TOTAL ENERGY   ENERGY CHANGE        DEN1      VAR(S)    VAR(P)  DIIS     TIME
   1      1.42873427    -1.14462672  -324.76150628    -0.03608086    -0.00288825  0.51D-02  0.99D-02  1  1    71.09
   2      1.46305666    -1.15049996  -324.76737952    -0.00587324    -0.03103151  0.83D-04  0.13D-02  2  2   123.47
   3      1.47634858    -1.15094774  -324.76782729    -0.00044777    -0.00655954  0.40D-04  0.12D-03  3  3   175.91
   4      1.48204097    -1.15119742  -324.76807697    -0.00024968    -0.00178587  0.22D-05  0.15D-04  4  4   228.32
   5      1.48357045    -1.15123312  -324.76811268    -0.00003571    -0.00036589  0.25D-06  0.14D-05  5  5   280.77
   6      1.48387667    -1.15122460  -324.76810416     0.00000852    -0.00005025  0.24D-07  0.91D-07  6  6   333.26
   7      1.48391145    -1.15122801  -324.76810757    -0.00000341    -0.00000225  0.34D-08  0.80D-08  6  2   385.74
   8      1.48391613    -1.15122837  -324.76810792    -0.00000036    -0.00000042  0.41D-09  0.83D-09  6  1   438.22
   9      1.48391636    -1.15122854  -324.76810809    -0.00000017     0.00000079  0.63D-10  0.78D-10  6  3   490.71
  10      1.48391673    -1.15122859  -324.76810815    -0.00000006     0.00000002  0.10D-10  0.99D-11  6  4   543.18
  11      1.48391646    -1.15122863  -324.76810818    -0.00000004     0.00000022  0.17D-11  0.14D-11  6  5   595.69
  12      1.48391629    -1.15122864  -324.76810819    -0.00000001     0.00000008  0.25D-12  0.27D-12  6  6   648.18
  13      1.48391616    -1.15122865  -324.76810820    -0.00000000     0.00000005  0.16D-13  0.52D-13  6  2   700.68
  14      1.48391609    -1.15122865  -324.76810820    -0.00000000     0.00000002  0.25D-14  0.95D-14  6  1   753.20
  15      1.48391607    -1.15122865  -324.76810820     0.00000000     0.00000001  0.53D-15  0.13D-14  6  3   805.72
  16      1.48391606    -1.15122865  -324.76810820    -0.00000000     0.00000000  0.11D-15  0.19D-15  6  4   858.25
  17      1.48391605    -1.15122865  -324.76810820    -0.00000000     0.00000000  0.22D-16  0.29D-16  6  5   910.76
  18      1.48391605    -1.15122865  -324.76810820    -0.00000000     0.00000000  0.43D-17  0.37D-17  6  6   963.19
  19      1.48391605    -1.15122865  -324.76810820    -0.00000000     0.00000000  0.96D-18  0.65D-18  6  2  1015.65
  20      1.48391605    -1.15122865  -324.76810820    -0.00000000     0.00000000  0.21D-18  0.14D-18  6  1  1068.16
  21      1.48391605    -1.15122865  -324.76810820    -0.00000000     0.00000000  0.73D-19  0.43D-19  6  3  1120.68
  22      1.48391605    -1.15122865  -324.76810820     0.00000000     0.00000000  0.31D-19  0.18D-19  6  4  1173.17

 Norm of t1 vector:      0.09773779      S-energy:    -0.00000000      T1 diagnostic:  0.01092742
                                                                       D1 diagnostic:  0.02771936

 Doubles amplitudes (print threshold =  0.500E-01):

         I         J         SYM. A    SYM. B    A         B      T(IJ, AB)

        19        19         1         1         7         7     -0.06199452
        20        20         1         1         8         8     -0.06199480


 Total CPU time for triples:   1080.80 sec


 RESULTS
 =======

  Reference energy                   -323.616879552932
  CCSD singlet pair energy             -0.770022813649
  CCSD triplet pair energy             -0.381205833646
  CCSD correlation energy              -1.151228647295

  Triples (T) contribution             -0.054016068900
  Total correlation energy             -1.205244716195

  CCSD total energy                  -324.768108200227
  CCSD[T] energy                     -324.823456643588
  CCSD-T energy                      -324.821518762971
 !CCSD(T) total energy               -324.822124269127

 Timing summary (sec):

 STEP                 CPU(USER)    SYS     CPU(TOT)    WALL
 Transformation         19.62      1.09     20.71     20.72
 CCSD iterations      1153.57     14.56   1168.13   1168.25
 Triples              1080.80     14.43   1095.23   1095.30

 Program statistics:

 Available memory in ccsd:               999998300
 Min. memory needed in ccsd:              17709720
 Max. memory used in ccsd:                24415330
 Max. memory used in cckext:              20754978 (22 integral passes)



 **********************************************************************************************************************************
 DATASETS  * FILE   NREC   LENGTH (MB)   RECORD NAMES
              1      20     2834.37       500      610      700      900      950      970     1000      129      960     1100   
                                          VAR    BASINP    GEOM    SYMINP    ZMAT    AOBASIS   BASIS     P2S    ABASIS      S 
                                         1400     1410     1200     1210     1080     1600     1650     1300     1700     1380   
                                           T        V       H0       H01     AOSYM     SMH    MOLCAS    ERIS     OPER     JKOP   

              2       3        1.49       700     1000     2100   
                                         GEOM     BASIS     RHF  

 PROGRAMS   *        TOTAL   CCSD(T)       RHF       INT
 CPU TIMES  *      2338.40   2254.00     66.06     18.30
 REAL TIME  *      2380.25 SEC
 DISK USED  *         7.98 GB      
 GA USED    *         0.01 MB       (max)       0.00 MB       (current)
 **********************************************************************************************************************************

        CCSD(T)         RHF-SCF 
   -324.82212427   -323.61687955
 **********************************************************************************************************************************
 Variable memory released
