
    -----------------------------------------------------------------------
          Psi4: An Open-Source Ab Initio Electronic Structure Package
                               Psi4 1.4a2.dev629 

                         Git: Rev {master} 2938fc2 dirty


    D. G. A. Smith, L. A. Burns, A. C. Simmonett, R. M. Parrish,
    M. C. Schieber, R. Galvelis, P. Kraus, H. Kruse, R. Di Remigio,
    A. Alenaizan, A. M. James, S. Lehtola, J. P. Misiewicz, M. Scheurer,
    R. A. Shaw, J. B. Schriber, Y. Xie, Z. L. Glick, D. A. Sirianni,
    J. S. O'Brien, J. M. Waldrop, A. Kumar, E. G. Hohenstein,
    B. P. Pritchard, B. R. Brooks, H. F. Schaefer III, A. Yu. Sokolov,
    K. Patkowski, A. E. DePrince III, U. Bozkaya, R. A. King,
    F. A. Evangelista, J. M. Turney, T. D. Crawford, C. D. Sherrill,
    J. Chem. Phys. 152(18) 184108 (2020). https://doi.org/10.1063/5.0006002

                            Additional Code Authors
    E. T. Seidl, C. L. Janssen, E. F. Valeev, M. L. Leininger,
    J. F. Gonthier, R. M. Richard, H. R. McAlexander, M. Saitow, X. Wang,
    P. Verma, and M. H. Lechner

             Previous Authors, Complete List of Code Contributors,
                       and Citations for Specific Modules
    https://github.com/psi4/psi4/blob/master/codemeta.json
    https://github.com/psi4/psi4/graphs/contributors
    http://psicode.org/psi4manual/master/introduction.html#citing-psifour

    -----------------------------------------------------------------------


    Psi4 started on: Monday, 15 November 2021 11:06AM

    Process ID: 14850
    Host:       n086
    PSIDATADIR: /opt/psi/4/master/share/psi4
    Memory:     500.0 MiB
    Threads:    4
    
  ==> Input File <==

--------------------------------------------------------------------------
import os
memory 14 GB 
 
molecule {
 C    0.1480028776   -2.8809787146    0.9646880837
 C   -0.2347945756   -1.3710835851   -1.0363838195
 C    0.2347945756    1.3710835851   -1.0363838195
 C   -0.1480028776    2.8809787146    0.9646880837
 H    0.9078507683   -2.1413408450    2.7177788572
 H   -0.2651626990   -4.8817969468    0.8796152761
 H   -0.9002609397   -2.1918198073   -2.7954597875
 H    0.9002609397    2.1918198073   -2.7954597875
 H   -0.9078507683    2.1413408450    2.7177788572
 H    0.2651626990    4.8817969468    0.8796152761
units bohr
}

basis {

assign 6-31g_2dfp_

[ 6-31g_2dfp_ ]

spherical

!----------------------------------------------------------------------
! Basis Set Exchange
! Version v0.8.13
! https://www.basissetexchange.org
!----------------------------------------------------------------------
!   Basis set: 6-31G(2df,p)
! Description: 6-31G(2df,p)
!        Role: orbital
!     Version: 0  (Data from the original Basis Set Exchange)
!----------------------------------------------------------------------


****
H     0
S    3   1.00
     18.7311370              0.03349460
      2.8253937              0.23472695
      0.6401217              0.81375733
S    1   1.00
      0.1612778              1.00000000
P    1   1.00
      1.5000000              1.0000000
P    1   1.00
      0.3750000              1.0000000
****
B     0
S    6   1.00
   2068.8823000              0.0018663
    310.6495700              0.0142515
     70.6830330              0.0695516
     19.8610800              0.2325729
      6.2993048              0.4670787
      2.1270270              0.3634314
SP   3   1.00
      4.7279710             -0.1303938              0.0745976
      1.1903377             -0.1307889              0.3078467
      0.3594117              1.1309444              0.7434568
SP   1   1.00
      0.1267512              1.0000000              1.0000000
D    1   1.00
      0.8020000              1.0000000
D    1   1.00
      0.2005000              1.0000000
F    1   1.00
      0.5000000              1.0000000
****
C     0
S    6   1.00
   3047.5249000              0.0018347
    457.3695100              0.0140373
    103.9486900              0.0688426
     29.2101550              0.2321844
      9.2866630              0.4679413
      3.1639270              0.3623120
SP   3   1.00
      7.8682724             -0.1193324              0.0689991
      1.8812885             -0.1608542              0.3164240
      0.5442493              1.1434564              0.7443083
SP   1   1.00
      0.1687144              1.0000000              1.0000000
D    1   1.00
      1.2520000              1.0000000
D    1   1.00
      0.3130000              1.0000000
F    1   1.00
      0.8000000              1.0000000
****
N     0
S    6   1.00
   4173.5110000              0.0018348
    627.4579000              0.0139950
    142.9021000              0.0685870
     40.2343300              0.2322410
     12.8202100              0.4690700
      4.3904370              0.3604550
SP   3   1.00
     11.6263580             -0.1149610              0.0675800
      2.7162800             -0.1691180              0.3239070
      0.7722180              1.1458520              0.7408950
SP   1   1.00
      0.2120313              1.0000000              1.0000000
D    1   1.00
      1.8260000              1.0000000
D    1   1.00
      0.4565000              1.0000000
F    1   1.00
      1.0000000              1.0000000
****
O     0
S    6   1.00
   5484.6717000              0.0018311
    825.2349500              0.0139501
    188.0469600              0.0684451
     52.9645000              0.2327143
     16.8975700              0.4701930
      5.7996353              0.3585209
SP   3   1.00
     15.5396160             -0.1107775              0.0708743
      3.5999336             -0.1480263              0.3397528
      1.0137618              1.1307670              0.7271586
SP   1   1.00
      0.2700058              1.0000000              1.0000000
D    1   1.00
      2.5840000              1.0000000
D    1   1.00
      0.6460000              1.0000000
F    1   1.00
      1.4000000              1.0000000
****
F     0
S    6   1.00
   7001.7130900              0.0018196169
   1051.3660900              0.0139160796
    239.2856900              0.0684053245
     67.3974453              0.233185760
     21.5199573              0.471267439
      7.40310130             0.356618546
SP   3   1.00
     20.8479528             -0.108506975            0.0716287243
      4.80830834            -0.146451658            0.3459121030
      1.34406986             1.128688580            0.7224699570
SP   1   1.00
      0.358151393            1.0000000              1.0000000
D    1   1.00
      3.5000000              1.0000000
D    1   1.00
      0.8750000              1.0000000
F    1   1.00
      1.8500000              1.0000000
****
Al     0
S    6   1.00
  13983.1000000              0.00194267
   2098.7500000              0.0148599
    477.7050000              0.0728494
    134.3600000              0.2468300
     42.8709000              0.4872580
     14.5189000              0.3234960
SP   6   1.00
    239.6680000             -0.00292619             0.00460285
     57.4419000             -0.0374080              0.0331990
     18.2859000             -0.1144870              0.1362820
      6.5991400              0.1156350              0.3304760
      2.4904900              0.6125950              0.4491460
      0.9445400              0.3937990              0.2657040
SP   3   1.00
      1.2779000             -0.2276060             -0.0175130
      0.3975900              0.00144583             0.2445330
      0.1600950              1.0927900              0.8049340
SP   1   1.00
      0.0556577              1.0000000              1.0000000
D    1   1.00
      0.6500000              1.0000000
D    1   1.00
      0.1625000              1.0000000
F    1   1.00
      0.2500000              1.0000000
****
Si     0
S    6   1.00
  16115.9000000              0.00195948
   2425.5800000              0.01492880
    553.8670000              0.07284780
    156.3400000              0.24613000
     50.0683000              0.48591400
     17.0178000              0.32500200
SP   6   1.00
    292.7180000             -0.00278094             0.00443826
     69.8731000             -0.03571460             0.03266790
     22.3363000             -0.11498500             0.13472100
      8.1503900              0.09356340             0.32867800
      3.1345800              0.60301700             0.44964000
      1.2254300              0.41895900             0.26137200
SP   3   1.00
      1.7273800             -0.24463000            -0.01779510
      0.5729220              0.00431572             0.25353900
      0.2221920              1.09818000             0.80066900
SP   1   1.00
      0.0778369              1.00000000             1.00000000
D    1   1.00
      0.9000000              1.0000000
D    1   1.00
      0.2250000              1.0000000
F    1   1.00
      0.3200000              1.0000000
****
P     0
S    6   1.00
  19413.3000000              0.0018516
   2909.4200000              0.0142062
    661.3640000              0.0699995
    185.7590000              0.2400790
     59.1943000              0.4847620
     20.0310000              0.3352000
SP   6   1.00
    339.4780000             -0.00278217             0.00456462
     81.0101000             -0.0360499              0.03369360
     25.8780000             -0.1166310              0.13975500
      9.4522100              0.0968328              0.33936200
      3.6656600              0.6144180              0.45092100
      1.4674600              0.4037980              0.23858600
SP   3   1.00
      2.1562300             -0.2529230             -0.01776530
      0.7489970              0.0328517              0.27405800
      0.2831450              1.0812500              0.78542100
SP   1   1.00
      0.0998317              1.0000000              1.00000000
D    1   1.00
      1.1000000              1.0000000
D    1   1.00
      0.2750000              1.0000000
F    1   1.00
      0.4500000              1.0000000
****
S     0
S    6   1.00
  21917.1000000              0.0018690
   3301.4900000              0.0142300
    754.1460000              0.0696960
    212.7110000              0.2384870
     67.9896000              0.4833070
     23.0515000              0.3380740
SP   6   1.00
    423.7350000             -0.0023767              0.0040610
    100.7100000             -0.0316930              0.0306810
     32.1599000             -0.1133170              0.1304520
     11.8079000              0.0560900              0.3272050
      4.6311000              0.5922550              0.4528510
      1.8702500              0.4550060              0.2560420
SP   3   1.00
      2.6158400             -0.2503740             -0.0145110
      0.9221670              0.0669570              0.3102630
      0.3412870              1.0545100              0.7544830
SP   1   1.00
      0.1171670              1.0000000              1.0000000
D    1   1.00
      1.3000000              1.0000000
D    1   1.00
      0.3250000              1.0000000
F    1   1.00
      0.5500000              1.0000000
****
Cl     0
S    6   1.00
  25180.1000000              0.0018330
   3780.3500000              0.0140340
    860.4740000              0.0690970
    242.1450000              0.2374520
     77.3349000              0.4830340
     26.2470000              0.3398560
SP   6   1.00
    491.7650000             -0.0022974              0.0039894
    116.9840000             -0.0307140              0.0303180
     37.4153000             -0.1125280              0.1298800
     13.7834000              0.0450160              0.3279510
      5.4521500              0.5893530              0.4535270
      2.2258800              0.4652060              0.2521540
SP   3   1.00
      3.1864900             -0.2518300             -0.0142990
      1.1442700              0.0615890              0.3235720
      0.4203770              1.0601800              0.7435070
SP   1   1.00
      0.1426570              1.0000000              1.0000000
D    1   1.00
      1.5000000              1.0000000
D    1   1.00
      0.3750000              1.0000000
F    1   1.00
      0.7000000              1.0000000
****
}


set {
reference rhf                          
freeze_core true
e_convergence 10                       
d_convergence 10                      
dft_spherical_points 1202
dft_radial_points 99
}

e = energy('b3lyp')

print_out('Grab this energy {0}'.format(e))
--------------------------------------------------------------------------

  Memory set to  13.039 GiB by Python driver.

Scratch directory: /tmp/

*** tstart() called on n086
*** at Mon Nov 15 11:06:01 2021

   => Loading Basis Set <=

    Name: ANONYMOUSF01E8F49
    Role: ORBITAL
    Keyword: BASIS
    atoms 1-4  entry C          line    48 inputblock 6-31g_2dfp_ 
    atoms 5-10 entry H          line    15 inputblock 6-31g_2dfp_ 


         ---------------------------------------------------------
                                   SCF
               by Justin Turney, Rob Parrish, Andy Simmonett
                          and Daniel G. A. Smith
                              RKS Reference
                        4 Threads,  13351 MiB Core
         ---------------------------------------------------------

  ==> Geometry <==

    Molecular point group: c2
    Full point group: C2

    Geometry (in Bohr), charge = 0, multiplicity = 1:

       Center              X                  Y                   Z               Mass       
    ------------   -----------------  -----------------  -----------------  -----------------
         C            0.148002877600    -2.880978714600     0.966617492168    12.000000000000
         C           -0.234794575600    -1.371083585100    -1.034454411032    12.000000000000
         C            0.234794575600     1.371083585100    -1.034454411032    12.000000000000
         C           -0.148002877600     2.880978714600     0.966617492168    12.000000000000
         H            0.907850768300    -2.141340845000     2.719708265668     1.007825032230
         H           -0.265162699000    -4.881796946800     0.881544684568     1.007825032230
         H           -0.900260939700    -2.191819807300    -2.793530379032     1.007825032230
         H            0.900260939700     2.191819807300    -2.793530379032     1.007825032230
         H           -0.907850768300     2.141340845000     2.719708265668     1.007825032230
         H            0.265162699000     4.881796946800     0.881544684568     1.007825032230

  Running in c2 symmetry.

  Rotational constants: A =      0.70329  B =      0.19016  C =      0.15373 [cm^-1]
  Rotational constants: A =  21084.02159  B =   5700.99749  C =   4608.71965 [MHz]
  Nuclear repulsion =  104.872437558677589

  Charge       = 0
  Multiplicity = 1
  Electrons    = 30
  Nalpha       = 15
  Nbeta        = 15

  ==> Algorithm <==

  SCF Algorithm Type is DF.
  DIIS enabled.
  MOM disabled.
  Fractional occupation disabled.
  Guess Type is SAD.
  Energy threshold   = 1.00e-10
  Density threshold  = 1.00e-10
  Integral threshold = 0.00e+00

  ==> Primary Basis <==

  Basis Set: ANONYMOUSF01E8F49
    Blend: 6-31G_2DFP_
    Number of shells: 56
    Number of basis function: 152
    Number of Cartesian functions: 172
    Spherical Harmonics?: true
    Max angular momentum: 3

  ==> DFT Potential <==

   => Composite Functional: B3LYP <= 

    B3LYP Hyb-GGA Exchange-Correlation Functional

    P. J. Stephens, F. J. Devlin, C. F. Chabalowski, and M. J. Frisch, J. Phys. Chem. 98, 11623 (1994)

    Deriv               =              1
    GGA                 =           TRUE
    Meta                =          FALSE

    Exchange Hybrid     =           TRUE
    MP2 Hybrid          =          FALSE

   => Exchange Functionals <=

    0.0800   Slater exchange
    0.7200         Becke 88

   => Exact (HF) Exchange <=

    0.2000               HF 

   => Correlation Functionals <=

    0.1900   Vosko, Wilk & Nusair (VWN5_RPA)
    0.8100   Lee, Yang & Parr

   => Molecular Quadrature <=

    Radial Scheme          =       TREUTLER
    Pruning Scheme         =           NONE
    Nuclear Scheme         =       TREUTLER

    BS radius alpha        =              1
    Pruning alpha          =              1
    Radial Points          =             99
    Spherical Points       =           1202
    Total Points           =        1116360
    Total Blocks           =           7486
    Max Points             =            256
    Max Functions          =            152
    Weights Tolerance      =       1.00E-15

   => Loading Basis Set <=

    Name: (ANONYMOUSF01E8F49 AUX)
    Role: JKFIT
    Keyword: DF_BASIS_SCF
    atoms 1-4  entry C          line   198 file /opt/psi/4/master/share/psi4/basis/def2-universal-jkfit.gbs 
    atoms 5-10 entry H          line    18 file /opt/psi/4/master/share/psi4/basis/def2-universal-jkfit.gbs 

  ==> Integral Setup <==

  DFHelper Memory: AOs need 0.076 GiB; user supplied 5.805 GiB. Using in-core AOs.

  ==> MemDFJK: Density-Fitted J/K Matrices <==

    J tasked:                   Yes
    K tasked:                   Yes
    wK tasked:                   No
    OpenMP threads:               4
    Memory [MiB]:              5943
    Algorithm:                 Core
    Schwarz Cutoff:           1E-12
    Mask sparsity (%):       1.4803
    Fitting Condition:        1E-10

   => Auxiliary Basis Set <=

  Basis Set: (ANONYMOUSF01E8F49 AUX)
    Blend: DEF2-UNIVERSAL-JKFIT
    Number of shells: 136
    Number of basis function: 408
    Number of Cartesian functions: 476
    Spherical Harmonics?: true
    Max angular momentum: 4

  Cached 100.0% of DFT collocation blocks in 3.974 [GiB].

  Minimum eigenvalue in the overlap matrix is 1.0065825713E-03.
  Reciprocal condition number of the overlap matrix is 1.9070742258E-04.
    Using symmetric orthogonalization.

  ==> Pre-Iterations <==

  SCF Guess: Superposition of Atomic Densities via on-the-fly atomic UHF (no occupation information).

   -------------------------
    Irrep   Nso     Nmo    
   -------------------------
     A         76      76 
     B         76      76 
   -------------------------
    Total     152     152
   -------------------------

  ==> Iterations <==

                           Total Energy        Delta E     RMS |[F,P]|

   @DF-RKS iter SAD:  -155.27973987156128   -1.55280e+02   0.00000e+00 
   @DF-RKS iter   1:  -155.71330059322023   -4.33561e-01   6.56396e-03 DIIS
   @DF-RKS iter   2:  -155.67922949855279    3.40711e-02   6.96322e-03 DIIS
   @DF-RKS iter   3:  -155.99719921823026   -3.17970e-01   5.98803e-04 DIIS
   @DF-RKS iter   4:  -155.99781819023320   -6.18972e-04   5.03311e-04 DIIS
   @DF-RKS iter   5:  -155.99929606834900   -1.47788e-03   9.68285e-05 DIIS
   @DF-RKS iter   6:  -155.99935661638401   -6.05480e-05   7.59069e-06 DIIS
   @DF-RKS iter   7:  -155.99935703856710   -4.22183e-07   1.24492e-06 DIIS
   @DF-RKS iter   8:  -155.99935704904567   -1.04786e-08   1.35010e-07 DIIS
   @DF-RKS iter   9:  -155.99935704915475   -1.09083e-10   1.54831e-08 DIIS
   @DF-RKS iter  10:  -155.99935704915654   -1.79057e-12   2.71224e-09 DIIS
   @DF-RKS iter  11:  -155.99935704915649    5.68434e-14   1.95737e-10 DIIS
   @DF-RKS iter  12:  -155.99935704915646    2.84217e-14   7.40948e-11 DIIS
  Energy and wave function converged.


  ==> Post-Iterations <==

    Orbital Energies [Eh]
    ---------------------

    Doubly Occupied:                                                      

       1A    -10.185891     1B    -10.185678     2B    -10.175245  
       2A    -10.175215     3A     -0.799721     3B     -0.722534  
       4A     -0.613574     4B     -0.527178     5A     -0.486174  
       6A     -0.430183     5B     -0.420998     6B     -0.367968  
       7A     -0.345109     7B     -0.303985     8A     -0.233579  

    Virtual:                                                              

       8B     -0.022912     9A      0.067534    10A      0.104199  
      11A      0.116849     9B      0.135475    10B      0.164982  
      11B      0.178283    12A      0.192069    13A      0.288918  
      12B      0.301959    13B      0.350032    14A      0.403272  
      15A      0.424652    14B      0.446382    16A      0.446707  
      15B      0.485244    16B      0.490549    17A      0.499076  
      18A      0.512367    17B      0.522693    19A      0.566856  
      18B      0.589293    19B      0.605776    20A      0.631245  
      21A      0.637733    22A      0.649408    20B      0.660049  
      21B      0.665569    22B      0.690608    23A      0.700640  
      24A      0.744705    23B      0.745089    24B      0.760926  
      25B      0.857796    25A      0.875218    26A      0.914943  
      26B      0.938083    27B      0.963387    27A      0.977210  
      28A      0.993755    28B      1.017923    29B      1.039264  
      29A      1.041796    30A      1.084702    30B      1.099702  
      31A      1.159511    32A      1.160929    31B      1.169304  
      32B      1.181662    33A      1.213813    33B      1.277961  
      34A      1.327570    34B      1.327745    35A      1.356028  
      35B      1.392992    36A      1.464272    36B      1.486955  
      37A      1.538069    38A      1.568892    37B      1.595844  
      38B      1.647133    39A      1.666910    39B      1.689852  
      40A      1.742951    41A      1.870481    40B      1.893999  
      41B      2.215419    42A      2.315561    42B      2.320780  
      43A      2.385167    43B      2.513149    44B      2.661215  
      44A      2.712634    45B      2.750696    45A      2.833228  
      46A      2.871257    46B      2.896342    47A      2.896702  
      47B      2.922297    48A      2.966876    49A      2.978493  
      48B      2.983557    49B      3.027625    50B      3.047185  
      50A      3.083593    51A      3.111301    52A      3.123755  
      51B      3.137806    52B      3.206960    53A      3.214455  
      54A      3.219609    53B      3.246168    54B      3.264381  
      55A      3.293515    55B      3.325972    56A      3.365167  
      57A      3.371856    56B      3.391990    57B      3.440943  
      58A      3.506118    58B      3.510435    59A      3.591061  
      59B      3.609571    60A      3.657736    60B      3.659099  
      61A      3.704752    61B      3.810567    62A      3.906969  
      62B      3.925780    63A      3.963884    64A      4.052830  
      63B      4.055393    65A      4.099450    64B      4.101590  
      65B      4.115235    66A      4.152520    66B      4.184705  
      67B      4.263900    67A      4.275125    68A      4.314193  
      68B      4.321084    69B      4.410929    69A      4.432663  
      70A      4.523302    71A      4.558268    70B      4.598564  
      72A      4.741294    71B      4.774204    73A      4.820636  
      72B      4.885548    73B      5.051759    74A      5.105131  
      75A      5.307044    74B      5.349138    75B      5.432952  
      76A      5.550298    76B      5.656692  

    Final Occupation by Irrep:
              A     B 
    DOCC [     8,    7 ]

  @DF-RKS Final Energy:  -155.99935704915646

   => Energetics <=

    Nuclear Repulsion Energy =            104.8724375586775892
    One-Electron Energy =                -415.8758846986954723
    Two-Electron Energy =                 174.3555757098605454
    DFT Exchange-Correlation Energy =     -19.3514856189991029
    Empirical Dispersion Energy =           0.0000000000000000
    VV10 Nonlocal Energy =                  0.0000000000000000
    Total Energy =                       -155.9993570491564583

Computation Completed


Properties will be evaluated at   0.000000,   0.000000,   0.000000 [a0]

Properties computed using the SCF density matrix

  Nuclear Dipole Moment: [e a0]
     X:     0.0000      Y:     0.0000      Z:     0.8014

  Electronic Dipole Moment: [e a0]
     X:     0.0000      Y:     0.0000      Z:    -0.8545

  Dipole Moment: [e a0]
     X:     0.0000      Y:     0.0000      Z:    -0.0531     Total:     0.0531

  Dipole Moment: [D]
     X:     0.0000      Y:     0.0000      Z:    -0.1350     Total:     0.1350


*** tstop() called on n086 at Mon Nov 15 11:06:18 2021
Module time:
	user time   =      64.70 seconds =       1.08 minutes
	system time =       1.17 seconds =       0.02 minutes
	total time  =         17 seconds =       0.28 minutes
Total time:
	user time   =      64.70 seconds =       1.08 minutes
	system time =       1.17 seconds =       0.02 minutes
	total time  =         17 seconds =       0.28 minutes
Grab this energy -155.99935704915646
    Psi4 stopped on: Monday, 15 November 2021 11:06AM
    Psi4 wall time for execution: 0:00:16.98

*** Psi4 exiting successfully. Buy a developer a beer!
