
    -----------------------------------------------------------------------
          Psi4: An Open-Source Ab Initio Electronic Structure Package
                               Psi4 1.4a2.dev629 

                         Git: Rev {master} 2938fc2 dirty


    D. G. A. Smith, L. A. Burns, A. C. Simmonett, R. M. Parrish,
    M. C. Schieber, R. Galvelis, P. Kraus, H. Kruse, R. Di Remigio,
    A. Alenaizan, A. M. James, S. Lehtola, J. P. Misiewicz, M. Scheurer,
    R. A. Shaw, J. B. Schriber, Y. Xie, Z. L. Glick, D. A. Sirianni,
    J. S. O'Brien, J. M. Waldrop, A. Kumar, E. G. Hohenstein,
    B. P. Pritchard, B. R. Brooks, H. F. Schaefer III, A. Yu. Sokolov,
    K. Patkowski, A. E. DePrince III, U. Bozkaya, R. A. King,
    F. A. Evangelista, J. M. Turney, T. D. Crawford, C. D. Sherrill,
    J. Chem. Phys. 152(18) 184108 (2020). https://doi.org/10.1063/5.0006002

                            Additional Code Authors
    E. T. Seidl, C. L. Janssen, E. F. Valeev, M. L. Leininger,
    J. F. Gonthier, R. M. Richard, H. R. McAlexander, M. Saitow, X. Wang,
    P. Verma, and M. H. Lechner

             Previous Authors, Complete List of Code Contributors,
                       and Citations for Specific Modules
    https://github.com/psi4/psi4/blob/master/codemeta.json
    https://github.com/psi4/psi4/graphs/contributors
    http://psicode.org/psi4manual/master/introduction.html#citing-psifour

    -----------------------------------------------------------------------


    Psi4 started on: Monday, 15 November 2021 10:40AM

    Process ID: 16100
    Host:       n033
    PSIDATADIR: /opt/psi/4/master/share/psi4
    Memory:     500.0 MiB
    Threads:    4
    
  ==> Input File <==

--------------------------------------------------------------------------
import os
memory 14 GB 
 
molecule {
 C    0.1461200008   -2.8926007406    0.9649760447
 C   -0.2319859384   -1.3735884191   -1.0307097736
 C    0.2335564027    1.3733127362   -1.0298601199
 C   -0.1485301174    2.8930542162    0.9641421821
 H    0.8966482119   -2.1630748379    2.7255433577
 H   -0.2582849095   -4.8946218560    0.8638160411
 H   -0.8964122709   -2.1923668253   -2.7935384436
 H    0.8958667634    2.1924496202   -2.7937251750
 H   -0.8959866000    2.1629495114    2.7257747592
 H    0.2590084574    4.8944865949    0.8640583472
units bohr
}

basis {

assign 6-31g_2dfp_

[ 6-31g_2dfp_ ]

spherical

!----------------------------------------------------------------------
! Basis Set Exchange
! Version v0.8.13
! https://www.basissetexchange.org
!----------------------------------------------------------------------
!   Basis set: 6-31G(2df,p)
! Description: 6-31G(2df,p)
!        Role: orbital
!     Version: 0  (Data from the original Basis Set Exchange)
!----------------------------------------------------------------------


****
H     0
S    3   1.00
     18.7311370              0.03349460
      2.8253937              0.23472695
      0.6401217              0.81375733
S    1   1.00
      0.1612778              1.00000000
P    1   1.00
      1.5000000              1.0000000
P    1   1.00
      0.3750000              1.0000000
****
B     0
S    6   1.00
   2068.8823000              0.0018663
    310.6495700              0.0142515
     70.6830330              0.0695516
     19.8610800              0.2325729
      6.2993048              0.4670787
      2.1270270              0.3634314
SP   3   1.00
      4.7279710             -0.1303938              0.0745976
      1.1903377             -0.1307889              0.3078467
      0.3594117              1.1309444              0.7434568
SP   1   1.00
      0.1267512              1.0000000              1.0000000
D    1   1.00
      0.8020000              1.0000000
D    1   1.00
      0.2005000              1.0000000
F    1   1.00
      0.5000000              1.0000000
****
C     0
S    6   1.00
   3047.5249000              0.0018347
    457.3695100              0.0140373
    103.9486900              0.0688426
     29.2101550              0.2321844
      9.2866630              0.4679413
      3.1639270              0.3623120
SP   3   1.00
      7.8682724             -0.1193324              0.0689991
      1.8812885             -0.1608542              0.3164240
      0.5442493              1.1434564              0.7443083
SP   1   1.00
      0.1687144              1.0000000              1.0000000
D    1   1.00
      1.2520000              1.0000000
D    1   1.00
      0.3130000              1.0000000
F    1   1.00
      0.8000000              1.0000000
****
N     0
S    6   1.00
   4173.5110000              0.0018348
    627.4579000              0.0139950
    142.9021000              0.0685870
     40.2343300              0.2322410
     12.8202100              0.4690700
      4.3904370              0.3604550
SP   3   1.00
     11.6263580             -0.1149610              0.0675800
      2.7162800             -0.1691180              0.3239070
      0.7722180              1.1458520              0.7408950
SP   1   1.00
      0.2120313              1.0000000              1.0000000
D    1   1.00
      1.8260000              1.0000000
D    1   1.00
      0.4565000              1.0000000
F    1   1.00
      1.0000000              1.0000000
****
O     0
S    6   1.00
   5484.6717000              0.0018311
    825.2349500              0.0139501
    188.0469600              0.0684451
     52.9645000              0.2327143
     16.8975700              0.4701930
      5.7996353              0.3585209
SP   3   1.00
     15.5396160             -0.1107775              0.0708743
      3.5999336             -0.1480263              0.3397528
      1.0137618              1.1307670              0.7271586
SP   1   1.00
      0.2700058              1.0000000              1.0000000
D    1   1.00
      2.5840000              1.0000000
D    1   1.00
      0.6460000              1.0000000
F    1   1.00
      1.4000000              1.0000000
****
F     0
S    6   1.00
   7001.7130900              0.0018196169
   1051.3660900              0.0139160796
    239.2856900              0.0684053245
     67.3974453              0.233185760
     21.5199573              0.471267439
      7.40310130             0.356618546
SP   3   1.00
     20.8479528             -0.108506975            0.0716287243
      4.80830834            -0.146451658            0.3459121030
      1.34406986             1.128688580            0.7224699570
SP   1   1.00
      0.358151393            1.0000000              1.0000000
D    1   1.00
      3.5000000              1.0000000
D    1   1.00
      0.8750000              1.0000000
F    1   1.00
      1.8500000              1.0000000
****
Al     0
S    6   1.00
  13983.1000000              0.00194267
   2098.7500000              0.0148599
    477.7050000              0.0728494
    134.3600000              0.2468300
     42.8709000              0.4872580
     14.5189000              0.3234960
SP   6   1.00
    239.6680000             -0.00292619             0.00460285
     57.4419000             -0.0374080              0.0331990
     18.2859000             -0.1144870              0.1362820
      6.5991400              0.1156350              0.3304760
      2.4904900              0.6125950              0.4491460
      0.9445400              0.3937990              0.2657040
SP   3   1.00
      1.2779000             -0.2276060             -0.0175130
      0.3975900              0.00144583             0.2445330
      0.1600950              1.0927900              0.8049340
SP   1   1.00
      0.0556577              1.0000000              1.0000000
D    1   1.00
      0.6500000              1.0000000
D    1   1.00
      0.1625000              1.0000000
F    1   1.00
      0.2500000              1.0000000
****
Si     0
S    6   1.00
  16115.9000000              0.00195948
   2425.5800000              0.01492880
    553.8670000              0.07284780
    156.3400000              0.24613000
     50.0683000              0.48591400
     17.0178000              0.32500200
SP   6   1.00
    292.7180000             -0.00278094             0.00443826
     69.8731000             -0.03571460             0.03266790
     22.3363000             -0.11498500             0.13472100
      8.1503900              0.09356340             0.32867800
      3.1345800              0.60301700             0.44964000
      1.2254300              0.41895900             0.26137200
SP   3   1.00
      1.7273800             -0.24463000            -0.01779510
      0.5729220              0.00431572             0.25353900
      0.2221920              1.09818000             0.80066900
SP   1   1.00
      0.0778369              1.00000000             1.00000000
D    1   1.00
      0.9000000              1.0000000
D    1   1.00
      0.2250000              1.0000000
F    1   1.00
      0.3200000              1.0000000
****
P     0
S    6   1.00
  19413.3000000              0.0018516
   2909.4200000              0.0142062
    661.3640000              0.0699995
    185.7590000              0.2400790
     59.1943000              0.4847620
     20.0310000              0.3352000
SP   6   1.00
    339.4780000             -0.00278217             0.00456462
     81.0101000             -0.0360499              0.03369360
     25.8780000             -0.1166310              0.13975500
      9.4522100              0.0968328              0.33936200
      3.6656600              0.6144180              0.45092100
      1.4674600              0.4037980              0.23858600
SP   3   1.00
      2.1562300             -0.2529230             -0.01776530
      0.7489970              0.0328517              0.27405800
      0.2831450              1.0812500              0.78542100
SP   1   1.00
      0.0998317              1.0000000              1.00000000
D    1   1.00
      1.1000000              1.0000000
D    1   1.00
      0.2750000              1.0000000
F    1   1.00
      0.4500000              1.0000000
****
S     0
S    6   1.00
  21917.1000000              0.0018690
   3301.4900000              0.0142300
    754.1460000              0.0696960
    212.7110000              0.2384870
     67.9896000              0.4833070
     23.0515000              0.3380740
SP   6   1.00
    423.7350000             -0.0023767              0.0040610
    100.7100000             -0.0316930              0.0306810
     32.1599000             -0.1133170              0.1304520
     11.8079000              0.0560900              0.3272050
      4.6311000              0.5922550              0.4528510
      1.8702500              0.4550060              0.2560420
SP   3   1.00
      2.6158400             -0.2503740             -0.0145110
      0.9221670              0.0669570              0.3102630
      0.3412870              1.0545100              0.7544830
SP   1   1.00
      0.1171670              1.0000000              1.0000000
D    1   1.00
      1.3000000              1.0000000
D    1   1.00
      0.3250000              1.0000000
F    1   1.00
      0.5500000              1.0000000
****
Cl     0
S    6   1.00
  25180.1000000              0.0018330
   3780.3500000              0.0140340
    860.4740000              0.0690970
    242.1450000              0.2374520
     77.3349000              0.4830340
     26.2470000              0.3398560
SP   6   1.00
    491.7650000             -0.0022974              0.0039894
    116.9840000             -0.0307140              0.0303180
     37.4153000             -0.1125280              0.1298800
     13.7834000              0.0450160              0.3279510
      5.4521500              0.5893530              0.4535270
      2.2258800              0.4652060              0.2521540
SP   3   1.00
      3.1864900             -0.2518300             -0.0142990
      1.1442700              0.0615890              0.3235720
      0.4203770              1.0601800              0.7435070
SP   1   1.00
      0.1426570              1.0000000              1.0000000
D    1   1.00
      1.5000000              1.0000000
D    1   1.00
      0.3750000              1.0000000
F    1   1.00
      0.7000000              1.0000000
****
}


set {
reference rhf                          
freeze_core true
e_convergence 10                       
d_convergence 10                      
dft_spherical_points 1202
dft_radial_points 99
}

e = energy('b3lyp')

print_out('Grab this energy {0}'.format(e))
--------------------------------------------------------------------------

  Memory set to  13.039 GiB by Python driver.

Scratch directory: /tmp/

*** tstart() called on n033
*** at Mon Nov 15 10:40:48 2021

   => Loading Basis Set <=

    Name: ANONYMOUS44F5FB26
    Role: ORBITAL
    Keyword: BASIS
    atoms 1-4  entry C          line    48 inputblock 6-31g_2dfp_ 
    atoms 5-10 entry H          line    15 inputblock 6-31g_2dfp_ 


         ---------------------------------------------------------
                                   SCF
               by Justin Turney, Rob Parrish, Andy Simmonett
                          and Daniel G. A. Smith
                              RKS Reference
                        4 Threads,  13351 MiB Core
         ---------------------------------------------------------

  ==> Geometry <==

    Molecular point group: c1
    Full point group: C1

    Geometry (in Bohr), charge = 0, multiplicity = 1:

       Center              X                  Y                   Z               Mass       
    ------------   -----------------  -----------------  -----------------  -----------------
         C            0.146290770935    -2.892636900429     0.964477112180    12.000000000000
         C           -0.231815168265    -1.373624578929    -1.031208706120    12.000000000000
         C            0.233727172835     1.373276576371    -1.030359052420    12.000000000000
         C           -0.148359347265     2.893018056371     0.963643249580    12.000000000000
         H            0.896818982035    -2.163110997729     2.725044425180     1.007825032230
         H           -0.258114139365    -4.894658015829     0.863317108580     1.007825032230
         H           -0.896241500765    -2.192402985129    -2.794037376120     1.007825032230
         H            0.896037533535     2.192413460371    -2.794224107520     1.007825032230
         H           -0.895815829865     2.162913351571     2.725275826680     1.007825032230
         H            0.259179227535     4.894450435071     0.863559414680     1.007825032230

  Running in c1 symmetry.

  Rotational constants: A =      0.70649  B =      0.18888  C =      0.15297 [cm^-1]
  Rotational constants: A =  21180.18617  B =   5662.51831  C =   4585.94340 [MHz]
  Nuclear repulsion =  104.752451489787958

  Charge       = 0
  Multiplicity = 1
  Electrons    = 30
  Nalpha       = 15
  Nbeta        = 15

  ==> Algorithm <==

  SCF Algorithm Type is DF.
  DIIS enabled.
  MOM disabled.
  Fractional occupation disabled.
  Guess Type is SAD.
  Energy threshold   = 1.00e-10
  Density threshold  = 1.00e-10
  Integral threshold = 0.00e+00

  ==> Primary Basis <==

  Basis Set: ANONYMOUS44F5FB26
    Blend: 6-31G_2DFP_
    Number of shells: 56
    Number of basis function: 152
    Number of Cartesian functions: 172
    Spherical Harmonics?: true
    Max angular momentum: 3

  ==> DFT Potential <==

   => Composite Functional: B3LYP <= 

    B3LYP Hyb-GGA Exchange-Correlation Functional

    P. J. Stephens, F. J. Devlin, C. F. Chabalowski, and M. J. Frisch, J. Phys. Chem. 98, 11623 (1994)

    Deriv               =              1
    GGA                 =           TRUE
    Meta                =          FALSE

    Exchange Hybrid     =           TRUE
    MP2 Hybrid          =          FALSE

   => Exchange Functionals <=

    0.0800   Slater exchange
    0.7200         Becke 88

   => Exact (HF) Exchange <=

    0.2000               HF 

   => Correlation Functionals <=

    0.1900   Vosko, Wilk & Nusair (VWN5_RPA)
    0.8100   Lee, Yang & Parr

   => Molecular Quadrature <=

    Radial Scheme          =       TREUTLER
    Pruning Scheme         =           NONE
    Nuclear Scheme         =       TREUTLER

    BS radius alpha        =              1
    Pruning alpha          =              1
    Radial Points          =             99
    Spherical Points       =           1202
    Total Points           =        1116377
    Total Blocks           =           7451
    Max Points             =            256
    Max Functions          =            149
    Weights Tolerance      =       1.00E-15

   => Loading Basis Set <=

    Name: (ANONYMOUS44F5FB26 AUX)
    Role: JKFIT
    Keyword: DF_BASIS_SCF
    atoms 1-4  entry C          line   198 file /opt/psi/4/master/share/psi4/basis/def2-universal-jkfit.gbs 
    atoms 5-10 entry H          line    18 file /opt/psi/4/master/share/psi4/basis/def2-universal-jkfit.gbs 

  ==> Integral Setup <==

  DFHelper Memory: AOs need 0.076 GiB; user supplied 5.807 GiB. Using in-core AOs.

  ==> MemDFJK: Density-Fitted J/K Matrices <==

    J tasked:                   Yes
    K tasked:                   Yes
    wK tasked:                   No
    OpenMP threads:               4
    Memory [MiB]:              5945
    Algorithm:                 Core
    Schwarz Cutoff:           1E-12
    Mask sparsity (%):       1.4976
    Fitting Condition:        1E-10

   => Auxiliary Basis Set <=

  Basis Set: (ANONYMOUS44F5FB26 AUX)
    Blend: DEF2-UNIVERSAL-JKFIT
    Number of shells: 136
    Number of basis function: 408
    Number of Cartesian functions: 476
    Spherical Harmonics?: true
    Max angular momentum: 4

  Cached 100.0% of DFT collocation blocks in 3.972 [GiB].

  Minimum eigenvalue in the overlap matrix is 6.7220152964E-04.
  Reciprocal condition number of the overlap matrix is 1.2362176384E-04.
    Using symmetric orthogonalization.

  ==> Pre-Iterations <==

  SCF Guess: Superposition of Atomic Densities via on-the-fly atomic UHF (no occupation information).

   -------------------------
    Irrep   Nso     Nmo    
   -------------------------
     A        152     152 
   -------------------------
    Total     152     152
   -------------------------

  ==> Iterations <==

                           Total Energy        Delta E     RMS |[F,P]|

   @DF-RKS iter SAD:  -155.27552469521260   -1.55276e+02   0.00000e+00 
   @DF-RKS iter   1:  -155.71378438235737   -4.38260e-01   4.63741e-03 DIIS
   @DF-RKS iter   2:  -155.68061503916175    3.31693e-02   4.91228e-03 DIIS
   @DF-RKS iter   3:  -155.99731146302679   -3.16696e-01   4.15346e-04 DIIS
   @DF-RKS iter   4:  -155.99789202864653   -5.80566e-04   3.51029e-04 DIIS
   @DF-RKS iter   5:  -155.99932677708614   -1.43475e-03   6.90323e-05 DIIS
   @DF-RKS iter   6:  -155.99938834067251   -6.15636e-05   5.33697e-06 DIIS
   @DF-RKS iter   7:  -155.99938875758903   -4.16917e-07   8.80661e-07 DIIS
   @DF-RKS iter   8:  -155.99938876798174   -1.03927e-08   1.22060e-07 DIIS
   @DF-RKS iter   9:  -155.99938876805641   -7.46638e-11   9.24719e-08 DIIS
   @DF-RKS iter  10:  -155.99938876815833   -1.01920e-10   1.70630e-08 DIIS
   @DF-RKS iter  11:  -155.99938876816211   -3.78009e-12   5.79742e-09 DIIS
   @DF-RKS iter  12:  -155.99938876816259   -4.83169e-13   1.05943e-09 DIIS
   @DF-RKS iter  13:  -155.99938876816259    0.00000e+00   6.54538e-11 DIIS
  Energy and wave function converged.


  ==> Post-Iterations <==

    Orbital Energies [Eh]
    ---------------------

    Doubly Occupied:                                                      

       1A    -10.186289     2A    -10.186081     3A    -10.175395  
       4A    -10.175360     5A     -0.799159     6A     -0.722853  
       7A     -0.613452     8A     -0.527138     9A     -0.485789  
      10A     -0.430199    11A     -0.421096    12A     -0.367933  
      13A     -0.344904    14A     -0.303934    15A     -0.233717  

    Virtual:                                                              

      16A     -0.022964    17A      0.067473    18A      0.103772  
      19A      0.116641    20A      0.135322    21A      0.164954  
      22A      0.178015    23A      0.192140    24A      0.288968  
      25A      0.301517    26A      0.351046    27A      0.403454  
      28A      0.424645    29A      0.445937    30A      0.446258  
      31A      0.485043    32A      0.489702    33A      0.499240  
      34A      0.512307    35A      0.522221    36A      0.567020  
      37A      0.589299    38A      0.605728    39A      0.630667  
      40A      0.638139    41A      0.649262    42A      0.660221  
      43A      0.665032    44A      0.689876    45A      0.700588  
      46A      0.743305    47A      0.745038    48A      0.760072  
      49A      0.856925    50A      0.875185    51A      0.914035  
      52A      0.937840    53A      0.963408    54A      0.977391  
      55A      0.995445    56A      1.018439    57A      1.038622  
      58A      1.042040    59A      1.083379    60A      1.099419  
      61A      1.159300    62A      1.159986    63A      1.165525  
      64A      1.181919    65A      1.213426    66A      1.277234  
      67A      1.326239    68A      1.327915    69A      1.356535  
      70A      1.392048    71A      1.464799    72A      1.486570  
      73A      1.537337    74A      1.569163    75A      1.594420  
      76A      1.647483    77A      1.666736    78A      1.689594  
      79A      1.740888    80A      1.869521    81A      1.889915  
      82A      2.216257    83A      2.309570    84A      2.321977  
      85A      2.385020    86A      2.513032    87A      2.660515  
      88A      2.713134    89A      2.750493    90A      2.833608  
      91A      2.870990    92A      2.896155    93A      2.896547  
      94A      2.923309    95A      2.968182    96A      2.979495  
      97A      2.984158    98A      3.026378    99A      3.047142  
     100A      3.082144   101A      3.111587   102A      3.122057  
     103A      3.137075   104A      3.207090   105A      3.213978  
     106A      3.219742   107A      3.245947   108A      3.262905  
     109A      3.292555   110A      3.325773   111A      3.364306  
     112A      3.371814   113A      3.389070   114A      3.440231  
     115A      3.506439   116A      3.509776   117A      3.590022  
     118A      3.608574   119A      3.658411   120A      3.658856  
     121A      3.701969   122A      3.808502   123A      3.904049  
     124A      3.925227   125A      3.962746   126A      4.052961  
     127A      4.053814   128A      4.096502   129A      4.098506  
     130A      4.114426   131A      4.151853   132A      4.183873  
     133A      4.263257   134A      4.274244   135A      4.313485  
     136A      4.318723   137A      4.409199   138A      4.431540  
     139A      4.520753   140A      4.557582   141A      4.598892  
     142A      4.738101   143A      4.773644   144A      4.818511  
     145A      4.880688   146A      5.049689   147A      5.104220  
     148A      5.304527   149A      5.347272   150A      5.431877  
     151A      5.549272   152A      5.654326  

    Final Occupation by Irrep:
              A 
    DOCC [    15 ]

  @DF-RKS Final Energy:  -155.99938876816259

   => Energetics <=

    Nuclear Repulsion Energy =            104.7524514897879584
    One-Electron Energy =                -415.6365979193129760
    Two-Electron Energy =                 174.2345448051808319
    DFT Exchange-Correlation Energy =     -19.3497871438184070
    Empirical Dispersion Energy =           0.0000000000000000
    VV10 Nonlocal Energy =                  0.0000000000000000
    Total Energy =                       -155.9993887681625893

Computation Completed


Properties will be evaluated at   0.000000,   0.000000,   0.000000 [a0]

Properties computed using the SCF density matrix

  Nuclear Dipole Moment: [e a0]
     X:     0.0009      Y:    -0.0002      Z:     0.7883

  Electronic Dipole Moment: [e a0]
     X:    -0.0004      Y:    -0.0001      Z:    -0.8400

  Dipole Moment: [e a0]
     X:     0.0005      Y:    -0.0003      Z:    -0.0517     Total:     0.0517

  Dipole Moment: [D]
     X:     0.0012      Y:    -0.0008      Z:    -0.1314     Total:     0.1315


*** tstop() called on n033 at Mon Nov 15 10:41:16 2021
Module time:
	user time   =     112.03 seconds =       1.87 minutes
	system time =       1.09 seconds =       0.02 minutes
	total time  =         28 seconds =       0.47 minutes
Total time:
	user time   =     112.03 seconds =       1.87 minutes
	system time =       1.09 seconds =       0.02 minutes
	total time  =         28 seconds =       0.47 minutes
Grab this energy -155.9993887681626
    Psi4 stopped on: Monday, 15 November 2021 10:41AM
    Psi4 wall time for execution: 0:00:28.97

*** Psi4 exiting successfully. Buy a developer a beer!
