
    -----------------------------------------------------------------------
          Psi4: An Open-Source Ab Initio Electronic Structure Package
                               Psi4 1.4a2.dev629 

                         Git: Rev {master} 2938fc2 dirty


    D. G. A. Smith, L. A. Burns, A. C. Simmonett, R. M. Parrish,
    M. C. Schieber, R. Galvelis, P. Kraus, H. Kruse, R. Di Remigio,
    A. Alenaizan, A. M. James, S. Lehtola, J. P. Misiewicz, M. Scheurer,
    R. A. Shaw, J. B. Schriber, Y. Xie, Z. L. Glick, D. A. Sirianni,
    J. S. O'Brien, J. M. Waldrop, A. Kumar, E. G. Hohenstein,
    B. P. Pritchard, B. R. Brooks, H. F. Schaefer III, A. Yu. Sokolov,
    K. Patkowski, A. E. DePrince III, U. Bozkaya, R. A. King,
    F. A. Evangelista, J. M. Turney, T. D. Crawford, C. D. Sherrill,
    J. Chem. Phys. 152(18) 184108 (2020). https://doi.org/10.1063/5.0006002

                            Additional Code Authors
    E. T. Seidl, C. L. Janssen, E. F. Valeev, M. L. Leininger,
    J. F. Gonthier, R. M. Richard, H. R. McAlexander, M. Saitow, X. Wang,
    P. Verma, and M. H. Lechner

             Previous Authors, Complete List of Code Contributors,
                       and Citations for Specific Modules
    https://github.com/psi4/psi4/blob/master/codemeta.json
    https://github.com/psi4/psi4/graphs/contributors
    http://psicode.org/psi4manual/master/introduction.html#citing-psifour

    -----------------------------------------------------------------------


    Psi4 started on: Monday, 15 November 2021 10:53AM

    Process ID: 3938
    Host:       n059
    PSIDATADIR: /opt/psi/4/master/share/psi4
    Memory:     500.0 MiB
    Threads:    4
    
  ==> Input File <==

--------------------------------------------------------------------------
import os
memory 14 GB 
 
molecule {
 C    0.1468835705   -2.8958373339    0.9644110763
 C   -0.2320612830   -1.3756761926   -1.0321303838
 C    0.2320612830    1.3756761926   -1.0321303838
 C   -0.1468835705    2.8958373339    0.9644110763
 H    0.9000979840   -2.1585219255    2.7290165262
 H   -0.2631997858   -4.8966302609    0.8622240496
 H   -0.8914629300   -2.1918551239   -2.7932826583
 H    0.8914629300    2.1918551239   -2.7932826583
 H   -0.9000979840    2.1585219255    2.7290165262
 H    0.2631997858    4.8966302609    0.8622240496
units bohr
}

basis {

assign 6-31g_2dfp_

[ 6-31g_2dfp_ ]

spherical

!----------------------------------------------------------------------
! Basis Set Exchange
! Version v0.8.13
! https://www.basissetexchange.org
!----------------------------------------------------------------------
!   Basis set: 6-31G(2df,p)
! Description: 6-31G(2df,p)
!        Role: orbital
!     Version: 0  (Data from the original Basis Set Exchange)
!----------------------------------------------------------------------


****
H     0
S    3   1.00
     18.7311370              0.03349460
      2.8253937              0.23472695
      0.6401217              0.81375733
S    1   1.00
      0.1612778              1.00000000
P    1   1.00
      1.5000000              1.0000000
P    1   1.00
      0.3750000              1.0000000
****
B     0
S    6   1.00
   2068.8823000              0.0018663
    310.6495700              0.0142515
     70.6830330              0.0695516
     19.8610800              0.2325729
      6.2993048              0.4670787
      2.1270270              0.3634314
SP   3   1.00
      4.7279710             -0.1303938              0.0745976
      1.1903377             -0.1307889              0.3078467
      0.3594117              1.1309444              0.7434568
SP   1   1.00
      0.1267512              1.0000000              1.0000000
D    1   1.00
      0.8020000              1.0000000
D    1   1.00
      0.2005000              1.0000000
F    1   1.00
      0.5000000              1.0000000
****
C     0
S    6   1.00
   3047.5249000              0.0018347
    457.3695100              0.0140373
    103.9486900              0.0688426
     29.2101550              0.2321844
      9.2866630              0.4679413
      3.1639270              0.3623120
SP   3   1.00
      7.8682724             -0.1193324              0.0689991
      1.8812885             -0.1608542              0.3164240
      0.5442493              1.1434564              0.7443083
SP   1   1.00
      0.1687144              1.0000000              1.0000000
D    1   1.00
      1.2520000              1.0000000
D    1   1.00
      0.3130000              1.0000000
F    1   1.00
      0.8000000              1.0000000
****
N     0
S    6   1.00
   4173.5110000              0.0018348
    627.4579000              0.0139950
    142.9021000              0.0685870
     40.2343300              0.2322410
     12.8202100              0.4690700
      4.3904370              0.3604550
SP   3   1.00
     11.6263580             -0.1149610              0.0675800
      2.7162800             -0.1691180              0.3239070
      0.7722180              1.1458520              0.7408950
SP   1   1.00
      0.2120313              1.0000000              1.0000000
D    1   1.00
      1.8260000              1.0000000
D    1   1.00
      0.4565000              1.0000000
F    1   1.00
      1.0000000              1.0000000
****
O     0
S    6   1.00
   5484.6717000              0.0018311
    825.2349500              0.0139501
    188.0469600              0.0684451
     52.9645000              0.2327143
     16.8975700              0.4701930
      5.7996353              0.3585209
SP   3   1.00
     15.5396160             -0.1107775              0.0708743
      3.5999336             -0.1480263              0.3397528
      1.0137618              1.1307670              0.7271586
SP   1   1.00
      0.2700058              1.0000000              1.0000000
D    1   1.00
      2.5840000              1.0000000
D    1   1.00
      0.6460000              1.0000000
F    1   1.00
      1.4000000              1.0000000
****
F     0
S    6   1.00
   7001.7130900              0.0018196169
   1051.3660900              0.0139160796
    239.2856900              0.0684053245
     67.3974453              0.233185760
     21.5199573              0.471267439
      7.40310130             0.356618546
SP   3   1.00
     20.8479528             -0.108506975            0.0716287243
      4.80830834            -0.146451658            0.3459121030
      1.34406986             1.128688580            0.7224699570
SP   1   1.00
      0.358151393            1.0000000              1.0000000
D    1   1.00
      3.5000000              1.0000000
D    1   1.00
      0.8750000              1.0000000
F    1   1.00
      1.8500000              1.0000000
****
Al     0
S    6   1.00
  13983.1000000              0.00194267
   2098.7500000              0.0148599
    477.7050000              0.0728494
    134.3600000              0.2468300
     42.8709000              0.4872580
     14.5189000              0.3234960
SP   6   1.00
    239.6680000             -0.00292619             0.00460285
     57.4419000             -0.0374080              0.0331990
     18.2859000             -0.1144870              0.1362820
      6.5991400              0.1156350              0.3304760
      2.4904900              0.6125950              0.4491460
      0.9445400              0.3937990              0.2657040
SP   3   1.00
      1.2779000             -0.2276060             -0.0175130
      0.3975900              0.00144583             0.2445330
      0.1600950              1.0927900              0.8049340
SP   1   1.00
      0.0556577              1.0000000              1.0000000
D    1   1.00
      0.6500000              1.0000000
D    1   1.00
      0.1625000              1.0000000
F    1   1.00
      0.2500000              1.0000000
****
Si     0
S    6   1.00
  16115.9000000              0.00195948
   2425.5800000              0.01492880
    553.8670000              0.07284780
    156.3400000              0.24613000
     50.0683000              0.48591400
     17.0178000              0.32500200
SP   6   1.00
    292.7180000             -0.00278094             0.00443826
     69.8731000             -0.03571460             0.03266790
     22.3363000             -0.11498500             0.13472100
      8.1503900              0.09356340             0.32867800
      3.1345800              0.60301700             0.44964000
      1.2254300              0.41895900             0.26137200
SP   3   1.00
      1.7273800             -0.24463000            -0.01779510
      0.5729220              0.00431572             0.25353900
      0.2221920              1.09818000             0.80066900
SP   1   1.00
      0.0778369              1.00000000             1.00000000
D    1   1.00
      0.9000000              1.0000000
D    1   1.00
      0.2250000              1.0000000
F    1   1.00
      0.3200000              1.0000000
****
P     0
S    6   1.00
  19413.3000000              0.0018516
   2909.4200000              0.0142062
    661.3640000              0.0699995
    185.7590000              0.2400790
     59.1943000              0.4847620
     20.0310000              0.3352000
SP   6   1.00
    339.4780000             -0.00278217             0.00456462
     81.0101000             -0.0360499              0.03369360
     25.8780000             -0.1166310              0.13975500
      9.4522100              0.0968328              0.33936200
      3.6656600              0.6144180              0.45092100
      1.4674600              0.4037980              0.23858600
SP   3   1.00
      2.1562300             -0.2529230             -0.01776530
      0.7489970              0.0328517              0.27405800
      0.2831450              1.0812500              0.78542100
SP   1   1.00
      0.0998317              1.0000000              1.00000000
D    1   1.00
      1.1000000              1.0000000
D    1   1.00
      0.2750000              1.0000000
F    1   1.00
      0.4500000              1.0000000
****
S     0
S    6   1.00
  21917.1000000              0.0018690
   3301.4900000              0.0142300
    754.1460000              0.0696960
    212.7110000              0.2384870
     67.9896000              0.4833070
     23.0515000              0.3380740
SP   6   1.00
    423.7350000             -0.0023767              0.0040610
    100.7100000             -0.0316930              0.0306810
     32.1599000             -0.1133170              0.1304520
     11.8079000              0.0560900              0.3272050
      4.6311000              0.5922550              0.4528510
      1.8702500              0.4550060              0.2560420
SP   3   1.00
      2.6158400             -0.2503740             -0.0145110
      0.9221670              0.0669570              0.3102630
      0.3412870              1.0545100              0.7544830
SP   1   1.00
      0.1171670              1.0000000              1.0000000
D    1   1.00
      1.3000000              1.0000000
D    1   1.00
      0.3250000              1.0000000
F    1   1.00
      0.5500000              1.0000000
****
Cl     0
S    6   1.00
  25180.1000000              0.0018330
   3780.3500000              0.0140340
    860.4740000              0.0690970
    242.1450000              0.2374520
     77.3349000              0.4830340
     26.2470000              0.3398560
SP   6   1.00
    491.7650000             -0.0022974              0.0039894
    116.9840000             -0.0307140              0.0303180
     37.4153000             -0.1125280              0.1298800
     13.7834000              0.0450160              0.3279510
      5.4521500              0.5893530              0.4535270
      2.2258800              0.4652060              0.2521540
SP   3   1.00
      3.1864900             -0.2518300             -0.0142990
      1.1442700              0.0615890              0.3235720
      0.4203770              1.0601800              0.7435070
SP   1   1.00
      0.1426570              1.0000000              1.0000000
D    1   1.00
      1.5000000              1.0000000
D    1   1.00
      0.3750000              1.0000000
F    1   1.00
      0.7000000              1.0000000
****
}


set {
reference rhf                          
freeze_core true
e_convergence 10                       
d_convergence 10                      
dft_spherical_points 1202
dft_radial_points 99
}

e = energy('b3lyp')

print_out('Grab this energy {0}'.format(e))
--------------------------------------------------------------------------

  Memory set to  13.039 GiB by Python driver.

Scratch directory: /tmp/

*** tstart() called on n059
*** at Mon Nov 15 10:53:47 2021

   => Loading Basis Set <=

    Name: ANONYMOUS4536D3D4
    Role: ORBITAL
    Keyword: BASIS
    atoms 1-4  entry C          line    48 inputblock 6-31g_2dfp_ 
    atoms 5-10 entry H          line    15 inputblock 6-31g_2dfp_ 


         ---------------------------------------------------------
                                   SCF
               by Justin Turney, Rob Parrish, Andy Simmonett
                          and Daniel G. A. Smith
                              RKS Reference
                        4 Threads,  13351 MiB Core
         ---------------------------------------------------------

  ==> Geometry <==

    Molecular point group: c2
    Full point group: C2

    Geometry (in Bohr), charge = 0, multiplicity = 1:

       Center              X                  Y                   Z               Mass       
    ------------   -----------------  -----------------  -----------------  -----------------
         C            0.146883570500    -2.895837333900     0.964723017161    12.000000000000
         C           -0.232061283000    -1.375676192600    -1.031818442939    12.000000000000
         C            0.232061283000     1.375676192600    -1.031818442939    12.000000000000
         C           -0.146883570500     2.895837333900     0.964723017161    12.000000000000
         H            0.900097984000    -2.158521925500     2.729328467061     1.007825032230
         H           -0.263199785800    -4.896630260900     0.862535990461     1.007825032230
         H           -0.891462930000    -2.191855123900    -2.792970717439     1.007825032230
         H            0.891462930000     2.191855123900    -2.792970717439     1.007825032230
         H           -0.900097984000     2.158521925500     2.729328467061     1.007825032230
         H            0.263199785800     4.896630260900     0.862535990461     1.007825032230

  Running in c2 symmetry.

  Rotational constants: A =      0.70565  B =      0.18855  C =      0.15271 [cm^-1]
  Rotational constants: A =  21154.85115  B =   5652.71873  C =   4578.10880 [MHz]
  Nuclear repulsion =  104.675471955515619

  Charge       = 0
  Multiplicity = 1
  Electrons    = 30
  Nalpha       = 15
  Nbeta        = 15

  ==> Algorithm <==

  SCF Algorithm Type is DF.
  DIIS enabled.
  MOM disabled.
  Fractional occupation disabled.
  Guess Type is SAD.
  Energy threshold   = 1.00e-10
  Density threshold  = 1.00e-10
  Integral threshold = 0.00e+00

  ==> Primary Basis <==

  Basis Set: ANONYMOUS4536D3D4
    Blend: 6-31G_2DFP_
    Number of shells: 56
    Number of basis function: 152
    Number of Cartesian functions: 172
    Spherical Harmonics?: true
    Max angular momentum: 3

  ==> DFT Potential <==

   => Composite Functional: B3LYP <= 

    B3LYP Hyb-GGA Exchange-Correlation Functional

    P. J. Stephens, F. J. Devlin, C. F. Chabalowski, and M. J. Frisch, J. Phys. Chem. 98, 11623 (1994)

    Deriv               =              1
    GGA                 =           TRUE
    Meta                =          FALSE

    Exchange Hybrid     =           TRUE
    MP2 Hybrid          =          FALSE

   => Exchange Functionals <=

    0.0800   Slater exchange
    0.7200         Becke 88

   => Exact (HF) Exchange <=

    0.2000               HF 

   => Correlation Functionals <=

    0.1900   Vosko, Wilk & Nusair (VWN5_RPA)
    0.8100   Lee, Yang & Parr

   => Molecular Quadrature <=

    Radial Scheme          =       TREUTLER
    Pruning Scheme         =           NONE
    Nuclear Scheme         =       TREUTLER

    BS radius alpha        =              1
    Pruning alpha          =              1
    Radial Points          =             99
    Spherical Points       =           1202
    Total Points           =        1116412
    Total Blocks           =           7462
    Max Points             =            256
    Max Functions          =            149
    Weights Tolerance      =       1.00E-15

   => Loading Basis Set <=

    Name: (ANONYMOUS4536D3D4 AUX)
    Role: JKFIT
    Keyword: DF_BASIS_SCF
    atoms 1-4  entry C          line   198 file /opt/psi/4/master/share/psi4/basis/def2-universal-jkfit.gbs 
    atoms 5-10 entry H          line    18 file /opt/psi/4/master/share/psi4/basis/def2-universal-jkfit.gbs 

  ==> Integral Setup <==

  DFHelper Memory: AOs need 0.076 GiB; user supplied 5.807 GiB. Using in-core AOs.

  ==> MemDFJK: Density-Fitted J/K Matrices <==

    J tasked:                   Yes
    K tasked:                   Yes
    wK tasked:                   No
    OpenMP threads:               4
    Memory [MiB]:              5946
    Algorithm:                 Core
    Schwarz Cutoff:           1E-12
    Mask sparsity (%):       1.4976
    Fitting Condition:        1E-10

   => Auxiliary Basis Set <=

  Basis Set: (ANONYMOUS4536D3D4 AUX)
    Blend: DEF2-UNIVERSAL-JKFIT
    Number of shells: 136
    Number of basis function: 408
    Number of Cartesian functions: 476
    Spherical Harmonics?: true
    Max angular momentum: 4

  Cached 100.0% of DFT collocation blocks in 3.972 [GiB].

  Minimum eigenvalue in the overlap matrix is 1.0112402653E-03.
  Reciprocal condition number of the overlap matrix is 1.9163312185E-04.
    Using symmetric orthogonalization.

  ==> Pre-Iterations <==

  SCF Guess: Superposition of Atomic Densities via on-the-fly atomic UHF (no occupation information).

   -------------------------
    Irrep   Nso     Nmo    
   -------------------------
     A         76      76 
     B         76      76 
   -------------------------
    Total     152     152
   -------------------------

  ==> Iterations <==

                           Total Energy        Delta E     RMS |[F,P]|

   @DF-RKS iter SAD:  -155.27040316865617   -1.55270e+02   0.00000e+00 
   @DF-RKS iter   1:  -155.71468347928200   -4.44280e-01   6.54473e-03 DIIS
   @DF-RKS iter   2:  -155.68201416101203    3.26693e-02   6.92860e-03 DIIS
   @DF-RKS iter   3:  -155.99719654291715   -3.15182e-01   5.91615e-04 DIIS
   @DF-RKS iter   4:  -155.99778738194240   -5.90839e-04   4.99945e-04 DIIS
   @DF-RKS iter   5:  -155.99924637978927   -1.45900e-03   9.61500e-05 DIIS
   @DF-RKS iter   6:  -155.99930610173976   -5.97220e-05   7.56498e-06 DIIS
   @DF-RKS iter   7:  -155.99930652266519   -4.20925e-07   1.23787e-06 DIIS
   @DF-RKS iter   8:  -155.99930653305330   -1.03881e-08   1.34675e-07 DIIS
   @DF-RKS iter   9:  -155.99930653316218   -1.08884e-10   1.54673e-08 DIIS
   @DF-RKS iter  10:  -155.99930653316343   -1.25056e-12   2.65835e-09 DIIS
   @DF-RKS iter  11:  -155.99930653316383   -3.97904e-13   1.96516e-10 DIIS
   @DF-RKS iter  12:  -155.99930653316360    2.27374e-13   7.40381e-11 DIIS
  Energy and wave function converged.


  ==> Post-Iterations <==

    Orbital Energies [Eh]
    ---------------------

    Doubly Occupied:                                                      

       1A    -10.186320     1B    -10.186117     2B    -10.175909  
       2A    -10.175878     3A     -0.798700     3B     -0.722672  
       4A     -0.613097     4B     -0.526924     5A     -0.485760  
       6A     -0.429531     5B     -0.421206     6B     -0.367782  
       7A     -0.344910     7B     -0.303753     8A     -0.233683  

    Virtual:                                                              

       8B     -0.023108     9A      0.067408    10A      0.103934  
      11A      0.116060     9B      0.135290    10B      0.164685  
      11B      0.177452    12A      0.191895    13A      0.288810  
      12B      0.301434    13B      0.349917    14A      0.403362  
      15A      0.424861    14B      0.445623    16A      0.446091  
      15B      0.485267    16B      0.489242    17A      0.498689  
      18A      0.512538    17B      0.522119    19A      0.566371  
      18B      0.589615    19B      0.606184    20A      0.630171  
      21A      0.638532    22A      0.649533    20B      0.659288  
      21B      0.664622    22B      0.689639    23A      0.699786  
      24A      0.743201    23B      0.744204    24B      0.759533  
      25B      0.855829    25A      0.875144    26A      0.913524  
      26B      0.937959    27B      0.964140    27A      0.977373  
      28A      0.993655    28B      1.017663    29B      1.037785  
      29A      1.041323    30A      1.082706    30B      1.098646  
      31A      1.159271    32A      1.160254    31B      1.165176  
      32B      1.182197    33A      1.213068    33B      1.276627  
      34B      1.326839    34A      1.326864    35A      1.355751  
      35B      1.391829    36A      1.464708    36B      1.486280  
      37A      1.535893    38A      1.568836    37B      1.594411  
      38B      1.644438    39A      1.663892    39B      1.688139  
      40A      1.738757    41A      1.868548    40B      1.890244  
      41B      2.213690    42A      2.307961    42B      2.322248  
      43A      2.380959    43B      2.510732    44B      2.660506  
      44A      2.713020    45B      2.748625    45A      2.834272  
      46A      2.870722    46B      2.896159    47A      2.896528  
      47B      2.923666    48A      2.967178    49A      2.978980  
      48B      2.983580    49B      3.028002    50B      3.047071  
      50A      3.084261    51A      3.112759    52A      3.123120  
      51B      3.137250    52B      3.206469    53A      3.214264  
      54A      3.219977    53B      3.244707    54B      3.263940  
      55A      3.293022    55B      3.325226    56A      3.363536  
      57A      3.372216    56B      3.389383    57B      3.439439  
      58A      3.504976    58B      3.510726    59A      3.588554  
      59B      3.606533    60B      3.657093    60A      3.659033  
      61A      3.700600    61B      3.806933    62A      3.902775  
      62B      3.923561    63A      3.961558    63B      4.049678  
      64A      4.050954    65A      4.094030    64B      4.099267  
      65B      4.113104    66A      4.150769    66B      4.183993  
      67B      4.259099    67A      4.272542    68A      4.310659  
      68B      4.315913    69B      4.408118    69A      4.427608  
      70A      4.520299    71A      4.554702    70B      4.598314  
      72A      4.735474    71B      4.772032    73A      4.817091  
      72B      4.877649    73B      5.042205    74A      5.100493  
      75A      5.297797    74B      5.347164    75B      5.429470  
      76A      5.549026    76B      5.652722  

    Final Occupation by Irrep:
              A     B 
    DOCC [     8,    7 ]

  @DF-RKS Final Energy:  -155.99930653316360

   => Energetics <=

    Nuclear Repulsion Energy =            104.6754719555156186
    One-Electron Energy =                -415.4863816560841769
    Two-Electron Energy =                 174.1587982650142408
    DFT Exchange-Correlation Energy =     -19.3471950976092728
    Empirical Dispersion Energy =           0.0000000000000000
    VV10 Nonlocal Energy =                  0.0000000000000000
    Total Energy =                       -155.9993065331636046

Computation Completed


Properties will be evaluated at   0.000000,   0.000000,   0.000000 [a0]

Properties computed using the SCF density matrix

  Nuclear Dipole Moment: [e a0]
     X:     0.0000      Y:     0.0000      Z:     0.7926

  Electronic Dipole Moment: [e a0]
     X:     0.0000      Y:     0.0000      Z:    -0.8467

  Dipole Moment: [e a0]
     X:     0.0000      Y:     0.0000      Z:    -0.0541     Total:     0.0541

  Dipole Moment: [D]
     X:     0.0000      Y:     0.0000      Z:    -0.1375     Total:     0.1375


*** tstop() called on n059 at Mon Nov 15 10:54:06 2021
Module time:
	user time   =      70.02 seconds =       1.17 minutes
	system time =       1.20 seconds =       0.02 minutes
	total time  =         19 seconds =       0.32 minutes
Total time:
	user time   =      70.02 seconds =       1.17 minutes
	system time =       1.20 seconds =       0.02 minutes
	total time  =         19 seconds =       0.32 minutes
Grab this energy -155.9993065331636
    Psi4 stopped on: Monday, 15 November 2021 10:54AM
    Psi4 wall time for execution: 0:00:18.42

*** Psi4 exiting successfully. Buy a developer a beer!
