
 Primary working directories    : /tmp/999602.32.gen6.q
 Secondary working directories  : /tmp/999602.32.gen6.q
 Wavefunction directory         : /home/vulcan/jj04645/wfu/
 Main file repository           : /tmp/999602.32.gen6.q/

 ARCHNAME  : Linux/x86_64
 FC        : /opt/intel/compilers_and_libraries_2016.1.150/linux/bin/intel64/ifort
 FCVERSION : 16.0.1
 BLASLIB   : -mkl
 id        : ccgc

 Nodes     nprocs
 n085         1
 ga_uses_ma=false, calling ma_init with nominal heap.
 GA-space will be limited to   8.0 MW (determined by -G option)

 Using customized tuning parameters: mindgm=10; mindgv=16; mindgc=4; mindgr=1; noblas=0; mincuda=1000; minvec=7
 default implementation of scratch files=df  

 ***,Optimization of 1,3-difluorobenzene
 memory,1000,m
 gthresh,energy=1.0d-12,orbital=1.0d-10,oneint=1.0d-16,twoint=1.0d-16,optgrad=1.0d-6,compress=1.0d-13
 geomtyp=xyz
 
 bohr
 geometry = {
  F    0.0000000000    4.4433561316   -1.7536914795
  C    0.0000000000    2.2452661442   -0.4854546055
  C   -0.0000000000   -2.3016689611    2.1448490306
  C    0.0000000000   -0.0000000000   -1.8575595279
  C    0.0000000000    2.3016689611    2.1448490306
  C   -0.0000000000    0.0000000000    3.4449772406
  C    0.0000000000   -2.2452661442   -0.4854546055
  H    0.0000000000   -0.0000000000   -3.8989555208
  H    0.0000000000    4.0952559512    3.1218316113
  H   -0.0000000000   -0.0000000000    5.4899951297
  F   -0.0000000000   -4.4433561316   -1.7536914795
  H   -0.0000000000   -4.0952559512    3.1218316113
 }
 
 basis=VDZ
 {rhf;maxit,200}
 {ccsd(t);maxit,200}

 Variables initialized (661), CPU time= 0.01 sec
 Commands  initialized (458), CPU time= 0.00 sec, 486 directives.
 Default parameters read. Elapsed time= 0.04 sec

 Checking input...
 Passed
1


                                         ***  PROGRAM SYSTEM MOLPRO  ***
                         Copyright, University College Cardiff Consultants Limited, 2008

                                    Version 2010.1 linked May 16 2016 07:17:05


 **********************************************************************************************************************************
 LABEL *   Optimization of 1,3-difluorobenzene                                           
 Linux-4.4.3/n085(x86_64) 64 bit mpp version                                             DATE: 07-Feb-24          TIME: 10:57:36  
 **********************************************************************************************************************************

 SHA1:             9e8077add272b0f3cad6f7df79ec5211205f459d
 **********************************************************************************************************************************

 THRESHOLDS:

 ZERO    =  1.00D-12  ONEINT  =  1.00D-16  TWOINT  =  1.00D-16  PREFAC  =  1.00D-14  LOCALI  =  1.00D-09  EORDER  =  1.00D-04
 ENERGY  =  1.00D-12  ETEST   =  0.00D+00  EDENS   =  0.00D+00  THRDEDEF=  1.00D-06  GRADIENT=  1.00D-02  STEP    =  1.00D-03
 ORBITAL =  1.00D-10  CIVEC   =  1.00D-05  COEFF   =  1.00D-04  PRINTCI =  5.00D-02  PUNCHCI =  9.90D+01  OPTGRAD =  1.00D-06
 OPTENERG=  1.00D-06  OPTSTEP =  3.00D-04  THRGRAD =  1.00D-10  COMPRESS=  1.00D-13  VARMIN  =  1.00D-07  VARMAX  =  1.00D-03
 THRDOUB =  0.00D+00  THRDIV  =  1.00D-05  THRRED  =  1.00D-07  THRPSP  =  1.00D+00  THRDC   =  1.00D-10  THRCS   =  1.00D-10
 THRNRM  =  1.00D-08  THREQ   =  0.00D+00  THRDE   =  1.00D+00  THRREF  =  1.00D-05  SPARFAC =  1.00D+00  THRDLP  =  1.00D-07
 THRDIA  =  1.00D-10  THRDLS  =  1.00D-07  THRGPS  =  0.00D+00  THRKEX  =  0.00D+00  THRDIS  =  2.00D-01  THRVAR  =  1.00D-10
 THRLOC  =  1.00D-06  THRGAP  =  1.00D-06  THRLOCT = -1.00D+00  THRGAPT = -1.00D+00  THRORB  =  1.00D-06  THRMLTP =  0.00D+00
 THRCPQCI=  1.00D-10  KEXTA   =  0.00D+00  THRCOARS=  0.00D+00  SYMTOL  =  1.00D-06  GRADTOL =  1.00D-06  THROVL  =  1.00D-08
 THRORTH =  1.00D-08  GRID    =  1.00D-06  GRIDMAX =  1.00D-03  DTMAX   =  0.00D+00

 SETTING GEOMTYP        =    XYZ
 ZUNIT=BOHR
 

 Variable memory set to 1000000000 words,  buffer space   230000 words

 SETTING BASIS          =    VDZ


 Recomputing integrals since basis changed


 Using spherical harmonics

 Library entry F      S cc-pVDZ              selected for orbital group  1
 Library entry F      P cc-pVDZ              selected for orbital group  1
 Library entry F      D cc-pVDZ              selected for orbital group  1
 Library entry C      S cc-pVDZ              selected for orbital group  2
 Library entry C      P cc-pVDZ              selected for orbital group  2
 Library entry C      D cc-pVDZ              selected for orbital group  2
 Library entry H      S cc-pVDZ              selected for orbital group  3
 Library entry H      P cc-pVDZ              selected for orbital group  3

1PROGRAM * SEWARD (Integral evaluation for generally contracted gaussian basis sets)     Author: Roland Lindh, 1990

 Geometry written to block  1 of record 700


 Point group  C2v 



 ATOMIC COORDINATES

 NR  ATOM    CHARGE       X              Y              Z

   1  F       9.00    0.000000000    4.443356132   -1.753691480
   2  F       9.00    0.000000000   -4.443356132   -1.753691480
   3  C       6.00    0.000000000    2.245266144   -0.485454606
   4  C       6.00    0.000000000   -2.245266144   -0.485454606
   5  C       6.00    0.000000000   -2.301668961    2.144849031
   6  C       6.00    0.000000000    2.301668961    2.144849031
   7  C       6.00    0.000000000    0.000000000   -1.857559528
   8  C       6.00    0.000000000    0.000000000    3.444977241
   9  H       1.00    0.000000000    0.000000000   -3.898955521
  10  H       1.00    0.000000000    4.095255951    3.121831611
  11  H       1.00    0.000000000   -4.095255951    3.121831611
  12  H       1.00    0.000000000    0.000000000    5.489995130

 Bond lengths in Bohr (Angstrom)

 1-3  2.537720308  2-4  2.537720308  3-6  2.630908302  3-7  2.631328937  4-5  2.630908302
     ( 1.342903750)     ( 1.342903750)     ( 1.392216713)     ( 1.392439303)     ( 1.392216713)

  4- 7  2.631328937   5- 8  2.643485080   5-11  2.042412606   6- 8  2.643485080   6-10  2.042412606
       ( 1.392439303)       ( 1.398872057)       ( 1.080798203)       ( 1.398872057)       ( 1.080798203)

  7- 9  2.041395993   8-12  2.045017889
       ( 1.080260234)       ( 1.082176859)

 Bond angles

  1-3-6  118.75532053   1-3-7  118.58672247   2-4-5  118.75532053   2-4-7  118.58672247

  3- 6- 8  118.23207706   3- 6-10  119.80594952   3- 7- 4  117.14094925   3- 7- 9  121.42952538

  4- 5- 8  118.23207706   4- 5-11  119.80594952   4- 7- 9  121.42952538   5- 4- 7  122.65795700

  5- 8- 6  121.07898262   5- 8-12  119.46050869   6- 3- 7  122.65795700   6- 8-12  119.46050869

  8- 5-11  121.96197341   8- 6-10  121.96197341

 NUCLEAR CHARGE:                   58
 NUMBER OF PRIMITIVE AOS:         244
 NUMBER OF SYMMETRY AOS:          236
 NUMBER OF CONTRACTIONS:          132   (  54A1  +  21B1  +  42B2  +  15A2  )
 NUMBER OF CORE ORBITALS:           8   (   5A1  +   0B1  +   3B2  +   0A2  )
 NUMBER OF VALENCE ORBITALS:       36   (  16A1  +   5B1  +  12B2  +   3A2  )


 NUCLEAR REPULSION ENERGY  341.99995253


 Eigenvalues of metric

         1 0.399E-03 0.171E-02 0.308E-02 0.130E-01 0.149E-01 0.202E-01 0.239E-01 0.266E-01
         2 0.415E-01 0.101E+00 0.166E+00 0.185E+00 0.214E+00 0.287E+00 0.368E+00 0.411E+00
         3 0.122E-02 0.266E-02 0.318E-02 0.125E-01 0.221E-01 0.268E-01 0.397E-01 0.622E-01
         4 0.910E-01 0.162E+00 0.190E+00 0.277E+00 0.378E+00 0.419E+00 0.474E+00 0.688E+00


 Contracted 2-electron integrals neglected if value below      1.0D-16
 AO integral compression algorithm  1   Integral accuracy      1.0D-16

     90.964 MB (compressed) written to integral file ( 96.7%)

     Node minimum: 90.964 MB, node maximum: 90.964 MB


 NUMBER OF SORTED TWO-ELECTRON INTEGRALS:   10309416.     BUFFER LENGTH:  32768
 NUMBER OF SEGMENTS:   1  SEGMENT LENGTH:   10309416      RECORD LENGTH: 524288

 Memory used in sort:      10.87 MW

 SORT1 READ    11785331. AND WROTE    10207651. INTEGRALS IN     30 RECORDS. CPU TIME:     0.20 SEC, REAL TIME:     0.26 SEC
 SORT2 READ    10207651. AND WROTE    10309416. INTEGRALS IN    347 RECORDS. CPU TIME:     0.14 SEC, REAL TIME:     0.20 SEC

 FILE SIZES:   FILE 1:    83.5 MBYTE,  FILE 4:   125.9 MBYTE,   TOTAL:    209.3 MBYTE

 OPERATOR DM      FOR CENTER  0  COORDINATES:    0.000000    0.000000    0.000000


 **********************************************************************************************************************************
 DATASETS  * FILE   NREC   LENGTH (MB)   RECORD NAMES
              1      19       83.53       500      610      700      900      950      970     1000      129      960     1100   
                                          VAR    BASINP    GEOM    SYMINP    ZMAT    AOBASIS   BASIS     P2S    ABASIS      S 
                                         1400     1410     1200     1210     1080     1600     1650     1300     1700   
                                           T        V       H0       H01     AOSYM     SMH    MOLCAS    ERIS     OPER   

 PROGRAMS   *        TOTAL       INT
 CPU TIMES  *         2.20      2.16
 REAL TIME  *         2.55 SEC
 DISK USED  *       301.16 MB      
 GA USED    *         0.00 MB       (max)       0.00 MB       (current)
 **********************************************************************************************************************************

1PROGRAM * RHF-SCF (CLOSED SHELL)       Authors: W. Meyer, H.-J. Werner


 NUMBER OF ELECTRONS:      29+   29-
 CONVERGENCE THRESHOLDS:    1.00E-10 (Density)    1.00E-13 (Energy)
 MAX. NUMBER OF ITERATIONS:      200
 INTERPOLATION TYPE:            DIIS
 INTERPOLATION STEPS:              2 (START)      1 (STEP)
 LEVEL SHIFTS:                  0.00 (CLOSED)  0.00 (OPEN) 



 Orbital guess generated from atomic densities. Full valence occupancy:   21   5  15   3

 Molecular orbital dump at record        2100.2

 Initial alpha occupancy:  14   3  10   2
 Initial beta  occupancy:  14   3  10   2
 Wave function symmetry:    1

 ITERATION    DDIFF          GRAD             ENERGY        2-EL.EN.            DIPOLE MOMENTS         DIIS
    1      0.000D+00      0.000D+00      -428.34339744    992.294747    0.00000    0.00000    0.46053    0
    2      0.000D+00      0.109D-01      -428.41757208    991.888377    0.00000    0.00000    0.92306    1
    3      0.224D-01      0.495D-02      -428.43158998    992.205657    0.00000    0.00000    0.61421    2
    4      0.714D-02      0.131D-02      -428.43315474    992.263161    0.00000    0.00000    0.72879    3
    5      0.267D-02      0.395D-03      -428.43329026    992.229270    0.00000    0.00000    0.69543    4
    6      0.671D-03      0.828D-04      -428.43329801    992.238182    0.00000    0.00000    0.69983    5
    7      0.177D-03      0.250D-04      -428.43329906    992.241560    0.00000    0.00000    0.69818    6
    8      0.599D-04      0.888D-05      -428.43329919    992.240900    0.00000    0.00000    0.69861    7
    9      0.200D-04      0.405D-05      -428.43329923    992.241272    0.00000    0.00000    0.69833    8
   10      0.107D-04      0.155D-05      -428.43329923    992.241838    0.00000    0.00000    0.69840    8
   11      0.485D-05      0.872D-06      -428.43329924    992.241747    0.00000    0.00000    0.69837    8
   12      0.299D-05      0.348D-06      -428.43329924    992.241844    0.00000    0.00000    0.69838    8
   13      0.172D-05      0.592D-07      -428.43329924    992.241871    0.00000    0.00000    0.69838    8
   14      0.195D-06      0.225D-07      -428.43329924    992.241866    0.00000    0.00000    0.69838    9
   15      0.766D-07      0.526D-08      -428.43329924    992.241866    0.00000    0.00000    0.69838    9
   16      0.160D-07      0.204D-08      -428.43329924    992.241866    0.00000    0.00000    0.69838    9
   17      0.639D-08      0.764D-09      -428.43329924    992.241866    0.00000    0.00000    0.69838    8
   18      0.227D-08      0.156D-09      -428.43329924    992.241866    0.00000    0.00000    0.69838    7
   19      0.407D-09      0.535D-10      -428.43329924    992.241866    0.00000    0.00000    0.69838    7
   20      0.144D-09      0.192D-10      -428.43329924    992.241866    0.00000    0.00000    0.69838    8
   21      0.363D-10      0.368D-11      -428.43329924    992.241866    0.00000    0.00000    0.69838    0

 Final occupancy:  14   3  10   2

 !RHF STATE 1.1 Energy               -428.433299235984
 Nuclear energy                       341.99995253
 One-electron energy                -1266.55418478
 Two-electron energy                  496.12093301
 Virial quotient                       -1.00068778
 !RHF STATE 1.1 Dipole moment           0.00000000     0.00000000     0.69837685
 Dipole moment /Debye                   0.00000000     0.00000000     1.77498063

 Orbital energies:

         1.1          2.1          3.1          4.1          5.1          6.1          7.1          8.1          9.1         10.1
    -26.321205   -11.350263   -11.273381   -11.259754   -11.256288    -1.639725    -1.177590    -1.046125    -0.874807    -0.774455

        11.1         12.1         13.1         14.1         15.1         16.1
     -0.703043    -0.668577    -0.622993    -0.532578     0.180040     0.221081

         1.2          2.2          3.2          4.2          5.2
     -0.703962    -0.512935    -0.360035     0.113372     0.343014

         1.3          2.3          3.3          4.3          5.3          6.3          7.3          8.3          9.3         10.3
    -26.321207   -11.350258   -11.256340    -1.639136    -1.036223    -0.864676    -0.740806    -0.684858    -0.585773    -0.555200

        11.3         12.3
      0.226775     0.340161

         1.4          2.4          3.4          4.4
     -0.696068    -0.347898     0.131211     0.715558


 **********************************************************************************************************************************
 DATASETS  * FILE   NREC   LENGTH (MB)   RECORD NAMES
              1      19       83.53       500      610      700      900      950      970     1000      129      960     1100   
                                          VAR    BASINP    GEOM    SYMINP    ZMAT    AOBASIS   BASIS     P2S    ABASIS      S 
                                         1400     1410     1200     1210     1080     1600     1650     1300     1700   
                                           T        V       H0       H01     AOSYM     SMH    MOLCAS    ERIS     OPER   

              2       3        0.58       700     1000     2100   
                                         GEOM     BASIS     RHF  

 PROGRAMS   *        TOTAL       RHF       INT
 CPU TIMES  *         2.87      0.67      2.16
 REAL TIME  *         3.38 SEC
 DISK USED  *       301.16 MB      
 GA USED    *         0.00 MB       (max)       0.00 MB       (current)
 **********************************************************************************************************************************


1PROGRAM * CCSD (Closed-shell coupled cluster)     Authors: C. Hampel, H.-J. Werner, 1991, M. Deegan, P.J. Knowles, 1992


 Convergence thresholds:  THRVAR = 1.00D-08  THRDEN = 1.00D-12

 CCSD(T)     terms to be evaluated (factor= 1.000)


 Number of core orbitals:           8 (   5   0   3   0 )
 Number of closed-shell orbitals:  21 (   9   3   7   2 )
 Number of external orbitals:     103 (  40  18  32  13 )

 Molecular orbitals read from record     2100.2  Type=RHF/CANONICAL (state 1.1)

 Number of N-1 electron functions:              21
 Number of N-2 electron functions:             231
 Number of singly external CSFs:               664
 Number of doubly external CSFs:            611519
 Total number of CSFs:                      612184

 Length of J-op  integral file:               0.00 MB
 Length of K-op  integral file:               0.40 MB
 Length of 3-ext integral record:             0.00 MB

 Memory could be reduced to 8.58 Mwords without degradation in triples

 Integral transformation finished. Total CPU:   0.28 sec, npass=  1  Memory used:   3.54 MW

 Reference energy:                   -428.43329924

 MP2 singlet pair energy:              -0.67300634
 MP2 triplet pair energy:              -0.46583819
 MP2 correlation energy:               -1.13884453
 MP2 total energy:                   -429.57214377

 SCS-MP2 correlation energy:           -1.09746248   (PS=  1.200000  PT=  0.333333)
 SCS-MP2 total energy:               -429.53076172

 ITER.      SQ.NORM     CORR.ENERGY   TOTAL ENERGY   ENERGY CHANGE        DEN1      VAR(S)    VAR(P)  DIIS     TIME
   1      1.36265249    -1.16857559  -429.60187482    -0.02973105     0.00057656  0.68D-02  0.73D-02  1  1     1.07
   2      1.38921331    -1.17211757  -429.60541681    -0.00354199    -0.02704922  0.14D-03  0.11D-02  2  2     1.87
   3      1.40007720    -1.17272377  -429.60602301    -0.00060620    -0.00540452  0.86D-04  0.10D-03  3  3     2.69
   4      1.40414385    -1.17265026  -429.60594950     0.00007351    -0.00143227  0.49D-05  0.20D-04  4  4     3.49
   5      1.40600707    -1.17268147  -429.60598071    -0.00003121    -0.00045529  0.92D-06  0.22D-05  5  5     4.30
   6      1.40649037    -1.17268739  -429.60598662    -0.00000591    -0.00006897  0.13D-06  0.25D-06  6  6     5.12
   7      1.40657888    -1.17268237  -429.60598160     0.00000502     0.00000025  0.29D-07  0.23D-07  6  1     5.94
   8      1.40660431    -1.17268352  -429.60598276    -0.00000115    -0.00000765  0.64D-08  0.31D-08  6  2     6.76
   9      1.40660569    -1.17268420  -429.60598344    -0.00000068     0.00000232  0.18D-08  0.36D-09  6  3     7.58
  10      1.40660813    -1.17268397  -429.60598321     0.00000023    -0.00000123  0.39D-09  0.79D-10  6  4     8.40
  11      1.40660820    -1.17268422  -429.60598345    -0.00000024     0.00000033  0.47D-10  0.21D-10  6  5     9.22
  12      1.40660840    -1.17268420  -429.60598343     0.00000002    -0.00000007  0.11D-10  0.25D-11  6  6    10.03
  13      1.40660839    -1.17268422  -429.60598345    -0.00000002     0.00000005  0.59D-12  0.58D-12  6  1    10.84
  14      1.40660838    -1.17268422  -429.60598346    -0.00000001     0.00000002  0.15D-12  0.89D-13  6  2    11.67
  15      1.40660838    -1.17268422  -429.60598346     0.00000000     0.00000000  0.41D-13  0.15D-13  6  3    12.48
  16      1.40660838    -1.17268422  -429.60598346    -0.00000000     0.00000000  0.66D-14  0.43D-14  6  4    13.30
  17      1.40660838    -1.17268423  -429.60598346    -0.00000000    -0.00000000  0.17D-14  0.74D-15  6  5    14.11
  18      1.40660838    -1.17268423  -429.60598346    -0.00000000    -0.00000000  0.22D-15  0.11D-15  6  6    14.91
  19      1.40660838    -1.17268423  -429.60598346    -0.00000000    -0.00000000  0.32D-16  0.24D-16  6  1    15.74
  20      1.40660838    -1.17268423  -429.60598346     0.00000000    -0.00000000  0.13D-16  0.30D-17  6  2    16.55
  21      1.40660838    -1.17268423  -429.60598346    -0.00000000    -0.00000000  0.14D-17  0.69D-18  6  3    17.37
  22      1.40660838    -1.17268423  -429.60598346    -0.00000000    -0.00000000  0.44D-18  0.14D-18  6  4    18.18
  23      1.40660838    -1.17268423  -429.60598346     0.00000000    -0.00000000  0.88D-19  0.23D-19  6  5    18.99
  24      1.40660838    -1.17268423  -429.60598346    -0.00000000    -0.00000000  0.77D-20  0.51D-20  6  6    19.80
  25      1.40660838    -1.17268423  -429.60598346    -0.00000000     0.00000000  0.19D-20  0.11D-20  6  1    20.61

 Norm of t1 vector:      0.10854635      S-energy:    -0.00000000      T1 diagnostic:  0.01184338
                                                                       D1 diagnostic:  0.03167798

 Doubles amplitudes (print threshold =  0.500E-01):

         I         J         SYM. A    SYM. B    A         B      T(IJ, AB)

        12        12         2         2         1         1     -0.08704486
        21        21         4         4         1         1     -0.08433543
        21        12         2         4         1         1     -0.05150651


 Total CPU time for triples:     14.41 sec


 RESULTS
 =======

  Reference energy                   -428.433299235985
  CCSD singlet pair energy             -0.757192752791
  CCSD triplet pair energy             -0.415491472680
  CCSD correlation energy              -1.172684225472

  Triples (T) contribution             -0.043178391770
  Total correlation energy             -1.215862617242

  CCSD total energy                  -429.605983461457
  CCSD[T] energy                     -429.651170261201
  CCSD-T energy                      -429.648434471267
 !CCSD(T) total energy               -429.649161853227

 Timing summary (sec):

 STEP                 CPU(USER)    SYS     CPU(TOT)    WALL
 Transformation          0.30      0.05      0.35      0.35
 CCSD iterations        20.32      0.92     21.24     21.27
 Triples                14.41      0.50     14.91     14.93

 Program statistics:

 Available memory in ccsd:               999998136
 Min. memory needed in ccsd:               1649999
 Max. memory used in ccsd:                 2209098
 Max. memory used in cckext:               2371604 (25 integral passes)



 **********************************************************************************************************************************
 DATASETS  * FILE   NREC   LENGTH (MB)   RECORD NAMES
              1      20      121.14       500      610      700      900      950      970     1000      129      960     1100   
                                          VAR    BASINP    GEOM    SYMINP    ZMAT    AOBASIS   BASIS     P2S    ABASIS      S 
                                         1400     1410     1200     1210     1080     1600     1650     1300     1700     1380   
                                           T        V       H0       H01     AOSYM     SMH    MOLCAS    ERIS     OPER     JKOP   

              2       3        0.58       700     1000     2100   
                                         GEOM     BASIS     RHF  

 PROGRAMS   *        TOTAL   CCSD(T)       RHF       INT
 CPU TIMES  *        37.91     35.03      0.67      2.16
 REAL TIME  *        39.96 SEC
 DISK USED  *       321.02 MB      
 GA USED    *         0.00 MB       (max)       0.00 MB       (current)
 **********************************************************************************************************************************

        CCSD(T)         RHF-SCF 
   -429.64916185   -428.43329924
 **********************************************************************************************************************************
 Variable memory released
