
 Primary working directories    : /tmp/1049502.1621.gen4.q
 Secondary working directories  : /tmp/1049502.1621.gen4.q
 Wavefunction directory         : /home/vulcan/jj04645/wfu/
 Main file repository           : /tmp/1049502.1621.gen4.q/

 ARCHNAME  : Linux/x86_64
 FC        : /opt/intel/compilers_and_libraries_2016.1.150/linux/bin/intel64/ifort
 FCVERSION : 16.0.1
 BLASLIB   : -mkl
 id        : ccgc

 Nodes     nprocs
 n054         1
 ga_uses_ma=false, calling ma_init with nominal heap.
 GA-space will be limited to   8.0 MW (determined by -G option)

 Using customized tuning parameters: mindgm=10; mindgv=16; mindgc=4; mindgr=1; noblas=0; mincuda=1000; minvec=7
 default implementation of scratch files=df  

 ***,Optimization of neopentane
 memory,1000,m
 gthresh,energy=1.0d-12,orbital=1.0d-10,oneint=1.0d-16,twoint=1.0d-16,optgrad=1.0d-6,compress=1.0d-13
 geomtyp=xyz
 
 bohr
 geometry = {
  C    0.0000000000   -0.0000000000   -0.0015599490
  C    2.3654418670    0.0000037561   -1.6741799337
  C    0.0000037561   -2.3654418670    1.6710600357
  C   -0.0000037561    2.3654418670    1.6710600357
  C   -2.3654418670   -0.0000037561   -1.6741799337
  H    2.4067777360    1.6756283751   -2.8840285033
  H   -1.6730972194   -2.4139272252    2.8841314991
  H    1.6730972194    2.4139272252    2.8841314991
  H   -2.4067777360   -1.6756283751   -2.8840285033
  H    4.0753201296    0.0014931811   -0.5125112248
  H   -0.0014959217   -4.0799335641    0.5162111056
  H    0.0014959217    4.0799335641    0.5162111056
  H   -4.0753201296   -0.0014931811   -0.5125112248
  H    2.4123666914   -1.6726263134   -2.8879619531
  H    1.6700791326   -2.4194970405    2.8880589490
  H   -1.6700791326    2.4194970405    2.8880589490
  H   -2.4123666914    1.6726263134   -2.8879619531
 }
 
 basis=VDZ
 {rhf;maxit,200}
 {ccsd(t);maxit,200}

 Variables initialized (661), CPU time= 0.00 sec
 Commands  initialized (458), CPU time= 0.01 sec, 486 directives.
 Default parameters read. Elapsed time= 0.05 sec

 Checking input...
 Passed
1


                                         ***  PROGRAM SYSTEM MOLPRO  ***
                         Copyright, University College Cardiff Consultants Limited, 2008

                                    Version 2010.1 linked May 16 2016 07:17:05


 **********************************************************************************************************************************
 LABEL *   Optimization of neopentane                                                    
 Linux-4.4.3/n054(x86_64) 64 bit mpp version                                             DATE: 31-Mar-24          TIME: 02:28:52  
 **********************************************************************************************************************************

 SHA1:             9e8077add272b0f3cad6f7df79ec5211205f459d
 **********************************************************************************************************************************

 THRESHOLDS:

 ZERO    =  1.00D-12  ONEINT  =  1.00D-16  TWOINT  =  1.00D-16  PREFAC  =  1.00D-14  LOCALI  =  1.00D-09  EORDER  =  1.00D-04
 ENERGY  =  1.00D-12  ETEST   =  0.00D+00  EDENS   =  0.00D+00  THRDEDEF=  1.00D-06  GRADIENT=  1.00D-02  STEP    =  1.00D-03
 ORBITAL =  1.00D-10  CIVEC   =  1.00D-05  COEFF   =  1.00D-04  PRINTCI =  5.00D-02  PUNCHCI =  9.90D+01  OPTGRAD =  1.00D-06
 OPTENERG=  1.00D-06  OPTSTEP =  3.00D-04  THRGRAD =  1.00D-10  COMPRESS=  1.00D-13  VARMIN  =  1.00D-07  VARMAX  =  1.00D-03
 THRDOUB =  0.00D+00  THRDIV  =  1.00D-05  THRRED  =  1.00D-07  THRPSP  =  1.00D+00  THRDC   =  1.00D-10  THRCS   =  1.00D-10
 THRNRM  =  1.00D-08  THREQ   =  0.00D+00  THRDE   =  1.00D+00  THRREF  =  1.00D-05  SPARFAC =  1.00D+00  THRDLP  =  1.00D-07
 THRDIA  =  1.00D-10  THRDLS  =  1.00D-07  THRGPS  =  0.00D+00  THRKEX  =  0.00D+00  THRDIS  =  2.00D-01  THRVAR  =  1.00D-10
 THRLOC  =  1.00D-06  THRGAP  =  1.00D-06  THRLOCT = -1.00D+00  THRGAPT = -1.00D+00  THRORB  =  1.00D-06  THRMLTP =  0.00D+00
 THRCPQCI=  1.00D-10  KEXTA   =  0.00D+00  THRCOARS=  0.00D+00  SYMTOL  =  1.00D-06  GRADTOL =  1.00D-06  THROVL  =  1.00D-08
 THRORTH =  1.00D-08  GRID    =  1.00D-06  GRIDMAX =  1.00D-03  DTMAX   =  0.00D+00

 SETTING GEOMTYP        =    XYZ
 ZUNIT=BOHR
 

 Variable memory set to 1000000000 words,  buffer space   230000 words

 SETTING BASIS          =    VDZ


 Recomputing integrals since basis changed


 Using spherical harmonics

 Library entry C      S cc-pVDZ              selected for orbital group  1
 Library entry C      P cc-pVDZ              selected for orbital group  1
 Library entry C      D cc-pVDZ              selected for orbital group  1
 Library entry H      S cc-pVDZ              selected for orbital group  2
 Library entry H      P cc-pVDZ              selected for orbital group  2

1PROGRAM * SEWARD (Integral evaluation for generally contracted gaussian basis sets)     Author: Roland Lindh, 1990

 Geometry written to block  1 of record 700


 Point group  C2  



 ATOMIC COORDINATES

 NR  ATOM    CHARGE       X              Y              Z

   1  C       6.00    0.000000000    0.000000000   -0.001559949
   2  C       6.00    2.365441867    0.000003756   -1.674179934
   3  C       6.00   -2.365441867   -0.000003756   -1.674179934
   4  C       6.00    0.000003756   -2.365441867    1.671060036
   5  C       6.00   -0.000003756    2.365441867    1.671060036
   6  H       1.00    2.406777736    1.675628375   -2.884028503
   7  H       1.00   -2.406777736   -1.675628375   -2.884028503
   8  H       1.00   -1.673097219   -2.413927225    2.884131499
   9  H       1.00    1.673097219    2.413927225    2.884131499
  10  H       1.00    4.075320130    0.001493181   -0.512511225
  11  H       1.00   -4.075320130   -0.001493181   -0.512511225
  12  H       1.00   -0.001495922   -4.079933564    0.516211106
  13  H       1.00    0.001495922    4.079933564    0.516211106
  14  H       1.00    2.412366691   -1.672626313   -2.887961953
  15  H       1.00   -2.412366691    1.672626313   -2.887961953
  16  H       1.00    1.670079133   -2.419497041    2.888058949
  17  H       1.00   -1.670079133    2.419497041    2.888058949

 Bond lengths in Bohr (Angstrom)

 1-2  2.897062795  1-3  2.897062795  1-4  2.897062795  1-5  2.897062795  2-6  2.067162325
     ( 1.533059604)     ( 1.533059604)     ( 1.533059604)     ( 1.533059604)     ( 1.093895190)

  2-10  2.067162326   2-14  2.067162325   3- 7  2.067162325   3-11  2.067162326   3-15  2.067162325
       ( 1.093895190)       ( 1.093895190)       ( 1.093895190)       ( 1.093895190)       ( 1.093895190)

  4- 8  2.067162325   4-12  2.067162325   4-16  2.067162325   5- 9  2.067162325   5-13  2.067162325
       ( 1.093895190)       ( 1.093895190)       ( 1.093895190)       ( 1.093895190)       ( 1.093895190)

  5-17  2.067162325
       ( 1.093895190)

 Bond angles

  1- 2- 6  110.74650492   1- 2-10  110.54393454   1- 2-14  110.94907539   1- 3- 7  110.74650492

  1- 3-11  110.54393454   1- 3-15  110.94907539   1- 4- 8  110.97471811   1- 4-12  110.77214781

  1- 4-16  111.17728852   1- 5- 9  110.97471811   1- 5-13  110.77214781   1- 5-17  111.17728852

  2-1-3  109.47122063   2-1-4  109.47122064   2-1-5  109.47122064   3-1-4  109.47122064

  3- 1- 5  109.47122064   4- 1- 5  109.47122063   6- 2-10  108.16628534   6- 2-14  108.16628252

  7- 3-11  108.16628534   7- 3-15  108.16628252   8- 4-12  107.92668061   8- 4-16  107.92667749

  9- 5-13  107.92668061   9- 5-17  107.92667749  10- 2-14  108.16628402  11- 3-15  108.16628402

 12- 4-16  107.92667915  13- 5-17  107.92667915

 NUCLEAR CHARGE:                   42
 NUMBER OF PRIMITIVE AOS:         219
 NUMBER OF SYMMETRY AOS:          214
 NUMBER OF CONTRACTIONS:          130   (  66A   +  64B   )
 NUMBER OF CORE ORBITALS:           5   (   3A   +   2B   )
 NUMBER OF VALENCE ORBITALS:       32   (  16A   +  16B   )


 NUCLEAR REPULSION ENERGY  198.59924700


 Eigenvalues of metric

         1 0.280E-02 0.502E-02 0.171E-01 0.190E-01 0.237E-01 0.318E-01 0.337E-01 0.337E-01
         2 0.504E-02 0.505E-02 0.189E-01 0.189E-01 0.237E-01 0.237E-01 0.319E-01 0.320E-01


 Contracted 2-electron integrals neglected if value below      1.0D-16
 AO integral compression algorithm  1   Integral accuracy      1.0D-16

     162.267 MB (compressed) written to integral file ( 96.1%)

     Node minimum: 162.267 MB, node maximum: 162.267 MB


 NUMBER OF SORTED TWO-ELECTRON INTEGRALS:   18406246.     BUFFER LENGTH:  32768
 NUMBER OF SEGMENTS:   2  SEGMENT LENGTH:   15998467      RECORD LENGTH: 524288

 Memory used in sort:      16.56 MW

 SORT1 READ    21105840. AND WROTE    18337728. INTEGRALS IN     53 RECORDS. CPU TIME:     0.25 SEC, REAL TIME:     0.36 SEC
 SORT2 READ    18337728. AND WROTE    18406246. INTEGRALS IN    619 RECORDS. CPU TIME:     0.23 SEC, REAL TIME:     0.30 SEC

 FILE SIZES:   FILE 1:   147.2 MBYTE,  FILE 4:   222.3 MBYTE,   TOTAL:    369.6 MBYTE

 OPERATOR DM      FOR CENTER  0  COORDINATES:    0.000000    0.000000    0.000000


 **********************************************************************************************************************************
 DATASETS  * FILE   NREC   LENGTH (MB)   RECORD NAMES
              1      19      147.34       500      610      700      900      950      970     1000      129      960     1100   
                                          VAR    BASINP    GEOM    SYMINP    ZMAT    AOBASIS   BASIS     P2S    ABASIS      S 
                                         1400     1410     1200     1210     1080     1600     1650     1300     1700   
                                           T        V       H0       H01     AOSYM     SMH    MOLCAS    ERIS     OPER   

 PROGRAMS   *        TOTAL       INT
 CPU TIMES  *         3.23      3.19
 REAL TIME  *         3.66 SEC
 DISK USED  *       532.87 MB      
 GA USED    *         0.00 MB       (max)       0.00 MB       (current)
 **********************************************************************************************************************************

1PROGRAM * RHF-SCF (CLOSED SHELL)       Authors: W. Meyer, H.-J. Werner


 NUMBER OF ELECTRONS:      21+   21-
 CONVERGENCE THRESHOLDS:    1.00E-10 (Density)    1.00E-13 (Energy)
 MAX. NUMBER OF ITERATIONS:      200
 INTERPOLATION TYPE:            DIIS
 INTERPOLATION STEPS:              2 (START)      1 (STEP)
 LEVEL SHIFTS:                  0.00 (CLOSED)  0.00 (OPEN) 



 Orbital guess generated from atomic densities. Full valence occupancy:   19  18

 Molecular orbital dump at record        2100.2

 Initial alpha occupancy:  11  10
 Initial beta  occupancy:  11  10
 Wave function symmetry:    1

 ITERATION    DDIFF          GRAD             ENERGY        2-EL.EN.            DIPOLE MOMENTS         DIIS
    1      0.000D+00      0.000D+00      -196.27089093    527.677352    0.00000    0.00000    0.00265    0
    2      0.000D+00      0.657D-02      -196.33874882    521.944006    0.00000    0.00000    0.00101    1
    3      0.131D-01      0.249D-02      -196.34653905    524.514062    0.00000    0.00000    0.00103    2
    4      0.488D-02      0.804D-03      -196.34768578    523.812731    0.00000    0.00000    0.00086    3
    5      0.161D-02      0.166D-03      -196.34772036    523.879245    0.00000    0.00000    0.00080    4
    6      0.279D-03      0.335D-04      -196.34772204    523.875487    0.00000    0.00000    0.00079    5
    7      0.929D-04      0.319D-05      -196.34772206    523.875253    0.00000    0.00000    0.00078    6
    8      0.965D-05      0.688D-06      -196.34772206    523.875212    0.00000    0.00000    0.00078    6
    9      0.194D-05      0.989D-07      -196.34772206    523.875203    0.00000    0.00000    0.00078    5
   10      0.343D-06      0.131D-07      -196.34772206    523.875213    0.00000    0.00000    0.00078    5
   11      0.443D-07      0.393D-08      -196.34772206    523.875208    0.00000    0.00000    0.00078    5
   12      0.822D-08      0.147D-08      -196.34772206    523.875209    0.00000    0.00000    0.00078    6
   13      0.300D-08      0.115D-09      -196.34772206    523.875209    0.00000    0.00000    0.00078    6
   14      0.259D-09      0.353D-10      -196.34772206    523.875209    0.00000    0.00000    0.00078    6
   15      0.910D-10      0.110D-10      -196.34772206    523.875209    0.00000    0.00000    0.00078    6
   16      0.354D-10      0.221D-11      -196.34772206    523.875209    0.00000    0.00000    0.00078    6
   17      0.614D-11      0.749D-12      -196.34772206    523.875209    0.00000    0.00000    0.00078    7
   18      0.158D-11      0.175D-12      -196.34772206    523.875209    0.00000    0.00000    0.00078    6
   19      0.529D-12      0.413D-13      -196.34772206    523.875209    0.00000    0.00000    0.00078    7
   20      0.189D-12      0.244D-13      -196.34772206    523.875209    0.00000    0.00000    0.00078    7
   21      0.119D-12      0.237D-13      -196.34772206    523.875209    0.00000    0.00000    0.00078    8
   22      0.715D-13      0.161D-13      -196.34772206    523.875209    0.00000    0.00000    0.00078    9
   23      0.517D-13      0.173D-13      -196.34772206    523.875209    0.00000    0.00000    0.00078    0

 Final occupancy:  11  10

 !RHF STATE 1.1 Energy               -196.347722063490
 Nuclear energy                       198.59924700
 One-electron energy                 -656.88457365
 Two-electron energy                  261.93760459
 Virial quotient                       -1.00118136
 !RHF STATE 1.1 Dipole moment           0.00000000     0.00000000     0.00077921
 Dipole moment /Debye                   0.00000000     0.00000000     0.00198044

 Orbital energies:

         1.1          2.1          3.1          4.1          5.1          6.1          7.1          8.1          9.1         10.1
    -11.230716   -11.214118   -11.214041    -1.103749    -0.927440    -0.728612    -0.608906    -0.550570    -0.550400    -0.507867

        11.1         12.1         13.1
     -0.450771     0.170676     0.231190

         1.2          2.2          3.2          4.2          5.2          6.2          7.2          8.2          9.2         10.2
    -11.214133   -11.214073    -0.927687    -0.927557    -0.609457    -0.608865    -0.507847    -0.507651    -0.450450    -0.449771

        11.2         12.2
      0.231147     0.231262


 **********************************************************************************************************************************
 DATASETS  * FILE   NREC   LENGTH (MB)   RECORD NAMES
              1      19      147.34       500      610      700      900      950      970     1000      129      960     1100   
                                          VAR    BASINP    GEOM    SYMINP    ZMAT    AOBASIS   BASIS     P2S    ABASIS      S 
                                         1400     1410     1200     1210     1080     1600     1650     1300     1700   
                                           T        V       H0       H01     AOSYM     SMH    MOLCAS    ERIS     OPER   

              2       3        0.72       700     1000     2100   
                                         GEOM     BASIS     RHF  

 PROGRAMS   *        TOTAL       RHF       INT
 CPU TIMES  *         5.29      2.06      3.19
 REAL TIME  *         6.11 SEC
 DISK USED  *       532.87 MB      
 GA USED    *         0.00 MB       (max)       0.00 MB       (current)
 **********************************************************************************************************************************


1PROGRAM * CCSD (Closed-shell coupled cluster)     Authors: C. Hampel, H.-J. Werner, 1991, M. Deegan, P.J. Knowles, 1992


 Convergence thresholds:  THRVAR = 1.00D-08  THRDEN = 1.00D-12

 CCSD(T)     terms to be evaluated (factor= 1.000)


 Number of core orbitals:           5 (   3   2 )
 Number of closed-shell orbitals:  16 (   8   8 )
 Number of external orbitals:     109 (  55  54 )

 Molecular orbitals read from record     2100.2  Type=RHF/CANONICAL (state 1.1)

 Number of N-1 electron functions:              16
 Number of N-2 electron functions:             136
 Number of singly external CSFs:               872
 Number of doubly external CSFs:            761256
 Total number of CSFs:                      762129

 Length of J-op  integral file:               0.00 MB
 Length of K-op  integral file:               0.62 MB
 Length of 3-ext integral record:             0.00 MB

 Memory could be reduced to 14.22 Mwords without degradation in triples

 Integral transformation finished. Total CPU:   0.81 sec, npass=  1  Memory used:   8.40 MW

 Reference energy:                   -196.34772206

 MP2 singlet pair energy:              -0.48845334
 MP2 triplet pair energy:              -0.25007843
 MP2 correlation energy:               -0.73853177
 MP2 total energy:                   -197.08625383

 SCS-MP2 correlation energy:           -0.74174836   (PS=  1.200000  PT=  0.333333)
 SCS-MP2 total energy:               -197.08947043

 ITER.      SQ.NORM     CORR.ENERGY   TOTAL ENERGY   ENERGY CHANGE        DEN1      VAR(S)    VAR(P)  DIIS     TIME
   1      1.28821670    -0.80655679  -197.15427885    -0.06802502    -0.04667743  0.17D-02  0.47D-02  1  1     2.03
   2      1.31152103    -0.81149041  -197.15921248    -0.00493362    -0.02352984  0.47D-04  0.32D-03  2  2     3.34
   3      1.31554323    -0.81163977  -197.15936184    -0.00014936    -0.00244677  0.53D-05  0.22D-04  3  3     4.64
   4      1.31658480    -0.81170226  -197.15942432    -0.00006248    -0.00046130  0.25D-06  0.12D-05  4  4     5.96
   5      1.31670999    -0.81170677  -197.15942884    -0.00000451    -0.00005046  0.15D-07  0.93D-07  5  5     7.27
   6      1.31672253    -0.81170432  -197.15942639     0.00000245    -0.00000859  0.68D-09  0.61D-08  6  6     8.58
   7      1.31672102    -0.81170461  -197.15942667    -0.00000028     0.00000069  0.16D-09  0.52D-09  6  1     9.89
   8      1.31672073    -0.81170475  -197.15942682    -0.00000015     0.00000026  0.78D-11  0.30D-10  6  2    11.21
   9      1.31672044    -0.81170480  -197.15942686    -0.00000005     0.00000026  0.11D-11  0.25D-11  6  3    12.53
  10      1.31672034    -0.81170481  -197.15942687    -0.00000001     0.00000009  0.89D-13  0.22D-12  6  4    13.84
  11      1.31672027    -0.81170481  -197.15942687    -0.00000000     0.00000004  0.94D-14  0.24D-13  6  5    15.15
  12      1.31672024    -0.81170481  -197.15942688    -0.00000000     0.00000002  0.89D-15  0.12D-14  6  1    16.46
  13      1.31672024    -0.81170481  -197.15942688    -0.00000000     0.00000000  0.79D-16  0.70D-16  6  6    17.77
  14      1.31672023    -0.81170481  -197.15942688    -0.00000000     0.00000000  0.15D-16  0.96D-17  6  2    19.08
  15      1.31672023    -0.81170481  -197.15942688    -0.00000000     0.00000000  0.13D-17  0.11D-17  6  3    20.40
  16      1.31672023    -0.81170481  -197.15942688     0.00000000    -0.00000000  0.70D-19  0.92D-19  6  4    21.71
  17      1.31672023    -0.81170481  -197.15942688     0.00000000    -0.00000000  0.35D-20  0.85D-20  6  5    23.03
  18      1.31672023    -0.81170481  -197.15942688     0.00000000    -0.00000000  0.40D-21  0.12D-20  6  1    24.35
  19      1.31672023    -0.81170481  -197.15942688     0.00000000    -0.00000000  0.34D-22  0.16D-21  6  6    25.66

 Norm of t1 vector:      0.05469732      S-energy:    -0.00000000      T1 diagnostic:  0.00683717
                                                                       D1 diagnostic:  0.01261448


 Total CPU time for triples:     26.42 sec


 RESULTS
 =======

  Reference energy                   -196.347722063491
  CCSD singlet pair energy             -0.577588085119
  CCSD triplet pair energy             -0.234116727715
  CCSD correlation energy              -0.811704812834

  Triples (T) contribution             -0.023942503286
  Total correlation energy             -0.835647316120

  CCSD total energy                  -197.159426876325
  CCSD[T] energy                     -197.183828719458
  CCSD-T energy                      -197.183120717022
 !CCSD(T) total energy               -197.183369379611

 Timing summary (sec):

 STEP                 CPU(USER)    SYS     CPU(TOT)    WALL
 Transformation          0.83      0.09      0.92      0.92
 CCSD iterations        24.83      1.06     25.89     25.92
 Triples                26.42      0.80     27.22     27.23

 Program statistics:

 Available memory in ccsd:               999998876
 Min. memory needed in ccsd:               2001507
 Max. memory used in ccsd:                 2680419
 Max. memory used in cckext:               2701130 (19 integral passes)



 **********************************************************************************************************************************
 DATASETS  * FILE   NREC   LENGTH (MB)   RECORD NAMES
              1      20      203.69       500      610      700      900      950      970     1000      129      960     1100   
                                          VAR    BASINP    GEOM    SYMINP    ZMAT    AOBASIS   BASIS     P2S    ABASIS      S 
                                         1400     1410     1200     1210     1080     1600     1650     1300     1700     1380   
                                           T        V       H0       H01     AOSYM     SMH    MOLCAS    ERIS     OPER     JKOP   

              2       3        0.72       700     1000     2100   
                                         GEOM     BASIS     RHF  

 PROGRAMS   *        TOTAL   CCSD(T)       RHF       INT
 CPU TIMES  *        57.38     52.09      2.06      3.19
 REAL TIME  *        60.22 SEC
 DISK USED  *       532.87 MB      
 GA USED    *         0.00 MB       (max)       0.00 MB       (current)
 **********************************************************************************************************************************

        CCSD(T)         RHF-SCF 
   -197.18336938   -196.34772206
 **********************************************************************************************************************************
 Variable memory released
