
 Primary working directories    : /tmp/1192576.90.gen4.q
 Secondary working directories  : /tmp/1192576.90.gen4.q
 Wavefunction directory         : /home/vulcan/mel64643/wfu/
 Main file repository           : /tmp/1192576.90.gen4.q/

 ARCHNAME  : Linux/x86_64
 FC        : /opt/intel/compilers_and_libraries_2016.1.150/linux/bin/intel64/ifort
 FCVERSION : 16.0.1
 BLASLIB   : -mkl
 id        : ccgc

 Nodes     nprocs
 n024         1
 ga_uses_ma=false, calling ma_init with nominal heap.
 GA-space will be limited to   8.0 MW (determined by -G option)

 Using customized tuning parameters: mindgm=10; mindgv=16; mindgc=4; mindgr=1; noblas=0; mincuda=1000; minvec=7
 default implementation of scratch files=df  

 ***,Optimization of h2o_2
 memory,1000,m
 gthresh,energy=1.0d-12,orbital=1.0d-10,oneint=1.0d-16,twoint=1.0d-16,optgrad=1.0d-6,compress=1.0d-13
 geomtyp=xyz
 
 
 
 bohr
 geometry = {
  O   -2.8116488844   -0.2070965800    0.0100000000
  H   -3.5614958369    1.4464438147    0.0000000000
  H   -1.0099316679    0.1061128021    0.0000000000
  O    2.6795153845    0.1976880537    0.0100000000
  H    3.3342733862   -0.7015980800   -1.4388270396
  H    3.3342733862   -0.7015980800    1.4388270396
 }
 
 basis=cc-pvtz
 {rhf;maxit,200}
 {ccsd(t);maxit,200}

 Variables initialized (661), CPU time= 0.00 sec
 Commands  initialized (458), CPU time= 0.00 sec, 486 directives.
 Default parameters read. Elapsed time= 0.04 sec

 Checking input...
 Passed
1


                                         ***  PROGRAM SYSTEM MOLPRO  ***
                         Copyright, University College Cardiff Consultants Limited, 2008

                                    Version 2010.1 linked May 16 2016 07:17:05


 **********************************************************************************************************************************
 LABEL *   Optimization of h2o_2                                                         
 Linux-4.4.3/n024(x86_64) 64 bit mpp version                                             DATE: 29-Aug-24          TIME: 11:09:46  
 **********************************************************************************************************************************

 SHA1:             9e8077add272b0f3cad6f7df79ec5211205f459d
 **********************************************************************************************************************************

 THRESHOLDS:

 ZERO    =  1.00D-12  ONEINT  =  1.00D-16  TWOINT  =  1.00D-16  PREFAC  =  1.00D-14  LOCALI  =  1.00D-09  EORDER  =  1.00D-04
 ENERGY  =  1.00D-12  ETEST   =  0.00D+00  EDENS   =  0.00D+00  THRDEDEF=  1.00D-06  GRADIENT=  1.00D-02  STEP    =  1.00D-03
 ORBITAL =  1.00D-10  CIVEC   =  1.00D-05  COEFF   =  1.00D-04  PRINTCI =  5.00D-02  PUNCHCI =  9.90D+01  OPTGRAD =  1.00D-06
 OPTENERG=  1.00D-06  OPTSTEP =  3.00D-04  THRGRAD =  1.00D-10  COMPRESS=  1.00D-13  VARMIN  =  1.00D-07  VARMAX  =  1.00D-03
 THRDOUB =  0.00D+00  THRDIV  =  1.00D-05  THRRED  =  1.00D-07  THRPSP  =  1.00D+00  THRDC   =  1.00D-10  THRCS   =  1.00D-10
 THRNRM  =  1.00D-08  THREQ   =  0.00D+00  THRDE   =  1.00D+00  THRREF  =  1.00D-05  SPARFAC =  1.00D+00  THRDLP  =  1.00D-07
 THRDIA  =  1.00D-10  THRDLS  =  1.00D-07  THRGPS  =  0.00D+00  THRKEX  =  0.00D+00  THRDIS  =  2.00D-01  THRVAR  =  1.00D-10
 THRLOC  =  1.00D-06  THRGAP  =  1.00D-06  THRLOCT = -1.00D+00  THRGAPT = -1.00D+00  THRORB  =  1.00D-06  THRMLTP =  0.00D+00
 THRCPQCI=  1.00D-10  KEXTA   =  0.00D+00  THRCOARS=  0.00D+00  SYMTOL  =  1.00D-06  GRADTOL =  1.00D-06  THROVL  =  1.00D-08
 THRORTH =  1.00D-08  GRID    =  1.00D-06  GRIDMAX =  1.00D-03  DTMAX   =  0.00D+00

 SETTING GEOMTYP        =    XYZ
 ZUNIT=BOHR
 

 Variable memory set to 1000000000 words,  buffer space   230000 words

 SETTING BASIS          =    CC-PVTZ


 Recomputing integrals since basis changed


 Using spherical harmonics

 Library entry O      S cc-pVTZ              selected for orbital group  1
 Library entry O      P cc-pVTZ              selected for orbital group  1
 Library entry O      D cc-pVTZ              selected for orbital group  1
 Library entry O      F cc-pVTZ              selected for orbital group  1
 Library entry H      S cc-pVTZ              selected for orbital group  2
 Library entry H      P cc-pVTZ              selected for orbital group  2
 Library entry H      D cc-pVTZ              selected for orbital group  2

1PROGRAM * SEWARD (Integral evaluation for generally contracted gaussian basis sets)     Author: Roland Lindh, 1990

 Geometry written to block  1 of record 700


 Point group  C1  



 ATOMIC COORDINATES

 NR  ATOM    CHARGE       X              Y              Z

   1  O       8.00   -2.811648884   -0.207096580    0.010000000
   2  H       1.00   -3.561495837    1.446443815    0.000000000
   3  H       1.00   -1.009931668    0.106112802    0.000000000
   4  O       8.00    2.679515385    0.197688054    0.010000000
   5  H       1.00    3.334273386   -0.701598080   -1.438827040
   6  H       1.00    3.334273386   -0.701598080    1.438827040

 Bond lengths in Bohr (Angstrom)

 1-2  1.815644869  1-3  1.828765990  4-5  1.826615280  4-6  1.810792727
     ( 0.960797884)     ( 0.967741282)     ( 0.966603176)     ( 0.958230241)

 Bond angles

  2-1-3  104.52938643   5-4-6  104.58119805

 NUCLEAR CHARGE:                   20
 NUMBER OF PRIMITIVE AOS:         162
 NUMBER OF SYMMETRY AOS:          148
 NUMBER OF CONTRACTIONS:          116   ( 116A   )
 NUMBER OF CORE ORBITALS:           2   (   2A   )
 NUMBER OF VALENCE ORBITALS:       12   (  12A   )


 NUCLEAR REPULSION ENERGY   36.54996123


 Eigenvalues of metric

         1 0.205E-02 0.252E-02 0.451E-02 0.460E-02 0.530E-02 0.578E-02 0.775E-02 0.780E-02


 Contracted 2-electron integrals neglected if value below      1.0D-16
 AO integral compression algorithm  1   Integral accuracy      1.0D-16

     155.189 MB (compressed) written to integral file ( 72.3%)

     Node minimum: 155.189 MB, node maximum: 155.189 MB


 NUMBER OF SORTED TWO-ELECTRON INTEGRALS:   23028291.     BUFFER LENGTH:  32768
 NUMBER OF SEGMENTS:   2  SEGMENT LENGTH:   15997996      RECORD LENGTH: 524288

 Memory used in sort:      16.56 MW

 SORT1 READ    26802200. AND WROTE    20982708. INTEGRALS IN     61 RECORDS. CPU TIME:     0.26 SEC, REAL TIME:     0.39 SEC
 SORT2 READ    20982708. AND WROTE    23028291. INTEGRALS IN    592 RECORDS. CPU TIME:     0.27 SEC, REAL TIME:     0.34 SEC

 FILE SIZES:   FILE 1:   137.2 MBYTE,  FILE 4:   255.9 MBYTE,   TOTAL:    393.1 MBYTE

 OPERATOR DM      FOR CENTER  0  COORDINATES:    0.000000    0.000000    0.000000


 **********************************************************************************************************************************
 DATASETS  * FILE   NREC   LENGTH (MB)   RECORD NAMES
              1      19      137.39       500      610      700      900      950      970     1000      129      960     1100   
                                          VAR    BASINP    GEOM    SYMINP    ZMAT    AOBASIS   BASIS     P2S    ABASIS      S 
                                         1400     1410     1200     1210     1080     1600     1650     1300     1700   
                                           T        V       H0       H01     AOSYM     SMH    MOLCAS    ERIS     OPER   

 PROGRAMS   *        TOTAL       INT
 CPU TIMES  *         1.77      1.71
 REAL TIME  *         2.31 SEC
 DISK USED  *       548.95 MB      
 GA USED    *         0.00 MB       (max)       0.00 MB       (current)
 **********************************************************************************************************************************

1PROGRAM * RHF-SCF (CLOSED SHELL)       Authors: W. Meyer, H.-J. Werner


 NUMBER OF ELECTRONS:      10+   10-    SPACE SYMMETRY=1    SPIN SYMMETRY: Singlet 
 CONVERGENCE THRESHOLDS:    1.00E-10 (Density)    1.00E-13 (Energy)
 MAX. NUMBER OF ITERATIONS:      200
 INTERPOLATION TYPE:            DIIS
 INTERPOLATION STEPS:              2 (START)      1 (STEP)
 LEVEL SHIFTS:                  0.00 (CLOSED)  0.00 (OPEN) 



 Orbital guess generated from atomic densities. Full valence occupancy:   14

 Molecular orbital dump at record        2100.2

 ITERATION    DDIFF          GRAD             ENERGY        2-EL.EN.            DIPOLE MOMENTS         DIIS
    1      0.000D+00      0.000D+00      -152.05134198    191.702652    1.37923    0.09411   -0.02301    0
    2      0.000D+00      0.713D-02      -152.10305107    185.285110    1.03624    0.03184   -0.01127    1
    3      0.124D-01      0.411D-02      -152.11996918    187.990602    1.08997    0.05374   -0.01339    2
    4      0.400D-02      0.426D-03      -152.12035837    187.828713    1.07630    0.05263   -0.01281    3
    5      0.658D-03      0.112D-03      -152.12039537    187.847473    1.07104    0.05246   -0.01255    4
    6      0.204D-03      0.235D-04      -152.12039766    187.844487    1.06954    0.05252   -0.01248    5
    7      0.513D-04      0.446D-05      -152.12039774    187.844853    1.06926    0.05241   -0.01246    6
    8      0.108D-04      0.152D-05      -152.12039774    187.844689    1.06921    0.05247   -0.01246    6
    9      0.203D-05      0.476D-06      -152.12039774    187.844703    1.06919    0.05246   -0.01246    6
   10      0.817D-06      0.614D-07      -152.12039774    187.844713    1.06919    0.05246   -0.01246    6
   11      0.123D-06      0.158D-07      -152.12039774    187.844710    1.06918    0.05246   -0.01246    6
   12      0.315D-07      0.502D-08      -152.12039774    187.844711    1.06918    0.05246   -0.01246    6
   13      0.989D-08      0.105D-08      -152.12039774    187.844711    1.06918    0.05246   -0.01246    7
   14      0.196D-08      0.293D-09      -152.12039774    187.844711    1.06918    0.05246   -0.01246    7
   15      0.517D-09      0.725D-10      -152.12039774    187.844711    1.06918    0.05246   -0.01246    6
   16      0.155D-09      0.166D-10      -152.12039774    187.844711    1.06918    0.05246   -0.01246    7
   17      0.392D-10      0.635D-11      -152.12039774    187.844711    1.06918    0.05246   -0.01246    7
   18      0.876D-11      0.259D-11      -152.12039774    187.844711    1.06918    0.05246   -0.01246    7
   19      0.525D-11      0.553D-12      -152.12039774    187.844711    1.06918    0.05246   -0.01246    7
   20      0.129D-11      0.180D-12      -152.12039774    187.844711    1.06918    0.05246   -0.01246    0

 Final occupancy:  10

 !RHF STATE 1.1 Energy               -152.120397739861
 Nuclear energy                        36.54996123
 One-electron energy                 -282.59271435
 Two-electron energy                   93.92235538
 Virial quotient                       -1.00096191
 !RHF STATE 1.1 Dipole moment           1.06918418     0.05246039    -0.01245707
 Dipole moment /Debye                   2.71741712     0.13333228    -0.03166065

 Orbital energies:

         1.1          2.1          3.1          4.1          5.1          6.1          7.1          8.1          9.1         10.1
    -20.585056   -20.522744    -1.373442    -1.312116    -0.735491    -0.684459    -0.608470    -0.552247    -0.525420    -0.474557

        11.1         12.1
      0.124213     0.183356


 **********************************************************************************************************************************
 DATASETS  * FILE   NREC   LENGTH (MB)   RECORD NAMES
              1      19      137.39       500      610      700      900      950      970     1000      129      960     1100   
                                          VAR    BASINP    GEOM    SYMINP    ZMAT    AOBASIS   BASIS     P2S    ABASIS      S 
                                         1400     1410     1200     1210     1080     1600     1650     1300     1700   
                                           T        V       H0       H01     AOSYM     SMH    MOLCAS    ERIS     OPER   

              2       3        0.63       700     1000     2100   
                                         GEOM     BASIS     RHF  

 PROGRAMS   *        TOTAL       RHF       INT
 CPU TIMES  *         5.59      3.82      1.71
 REAL TIME  *         6.65 SEC
 DISK USED  *       548.95 MB      
 GA USED    *         0.00 MB       (max)       0.00 MB       (current)
 **********************************************************************************************************************************


1PROGRAM * CCSD (Closed-shell coupled cluster)     Authors: C. Hampel, H.-J. Werner, 1991, M. Deegan, P.J. Knowles, 1992


 Convergence thresholds:  THRVAR = 1.00D-08  THRDEN = 1.00D-12

 CCSD(T)     terms to be evaluated (factor= 1.000)


 Number of core orbitals:           2 (   2 )
 Number of closed-shell orbitals:   8 (   8 )
 Number of external orbitals:     106 ( 106 )

 Molecular orbitals read from record     2100.2  Type=RHF/CANONICAL (state 1.1)

 Number of N-1 electron functions:               8
 Number of N-2 electron functions:              36
 Number of singly external CSFs:               848
 Number of doubly external CSFs:            359976
 Total number of CSFs:                      360825

 Length of J-op  integral file:               0.00 MB
 Length of K-op  integral file:               0.96 MB
 Length of 3-ext integral record:             0.00 MB

 Memory could be reduced to 13.86 Mwords without degradation in triples

 Integral transformation finished. Total CPU:   0.82 sec, npass=  1  Memory used:   8.20 MW

 Reference energy:                   -152.12039774

 MP2 singlet pair energy:              -0.33343928
 MP2 triplet pair energy:              -0.19305528
 MP2 correlation energy:               -0.52649456
 MP2 total energy:                   -152.64689230

 SCS-MP2 correlation energy:           -0.52025042   (PS=  1.200000  PT=  0.333333)
 SCS-MP2 total energy:               -152.64064816

 ITER.      SQ.NORM     CORR.ENERGY   TOTAL ENERGY   ENERGY CHANGE        DEN1      VAR(S)    VAR(P)  DIIS     TIME
   1      1.12179573    -0.53658839  -152.65698613    -0.01009383     0.00002471  0.10D-02  0.17D-02  1  1     1.92
   2      1.12818198    -0.53737757  -152.65777531    -0.00078918    -0.00903100  0.16D-04  0.18D-03  2  2     3.09
   3      1.13028700    -0.53749206  -152.65788980    -0.00011448    -0.00162032  0.54D-05  0.81D-05  3  3     4.25
   4      1.13085849    -0.53750741  -152.65790515    -0.00001535    -0.00033633  0.22D-06  0.52D-06  4  4     5.41
   5      1.13093840    -0.53750333  -152.65790107     0.00000408    -0.00003762  0.88D-07  0.35D-07  5  5     6.58
   6      1.13095819    -0.53750179  -152.65789953     0.00000153    -0.00000693  0.13D-07  0.29D-08  6  6     7.75
   7      1.13096139    -0.53750211  -152.65789985    -0.00000032    -0.00000028  0.20D-08  0.58D-09  6  1     8.92
   8      1.13096292    -0.53750209  -152.65789983     0.00000002     0.00000008  0.31D-09  0.83D-10  6  2    10.09
   9      1.13096353    -0.53750207  -152.65789981     0.00000002     0.00000010  0.28D-10  0.10D-10  6  3    11.27
  10      1.13096369    -0.53750207  -152.65789981     0.00000001     0.00000001  0.40D-11  0.14D-11  6  4    12.43
  11      1.13096367    -0.53750207  -152.65789981    -0.00000000     0.00000004  0.74D-12  0.20D-12  6  5    13.59
  12      1.13096364    -0.53750207  -152.65789981    -0.00000000     0.00000002  0.14D-12  0.28D-13  6  6    14.76
  13      1.13096363    -0.53750207  -152.65789981    -0.00000000     0.00000001  0.21D-13  0.60D-14  6  1    15.91
  14      1.13096362    -0.53750207  -152.65789981    -0.00000000     0.00000000  0.38D-14  0.12D-14  6  2    17.07
  15      1.13096362    -0.53750207  -152.65789981     0.00000000     0.00000000  0.65D-15  0.14D-15  6  3    18.24
  16      1.13096362    -0.53750207  -152.65789981     0.00000000    -0.00000000  0.11D-15  0.29D-16  6  4    19.39
  17      1.13096362    -0.53750207  -152.65789981     0.00000000    -0.00000000  0.14D-16  0.53D-17  6  5    20.55
  18      1.13096362    -0.53750207  -152.65789981    -0.00000000     0.00000000  0.20D-17  0.74D-18  6  6    21.71
  19      1.13096362    -0.53750207  -152.65789981    -0.00000000    -0.00000000  0.44D-18  0.13D-18  6  1    22.87
  20      1.13096362    -0.53750207  -152.65789981    -0.00000000    -0.00000000  0.12D-18  0.27D-19  6  2    24.03
  21      1.13096362    -0.53750207  -152.65789981    -0.00000000    -0.00000000  0.22D-19  0.50D-20  6  3    25.18

 Norm of t1 vector:      0.04062055      S-energy:     0.00000000      T1 diagnostic:  0.00718077
                                                                       D1 diagnostic:  0.01511954


 Total CPU time for triples:     13.31 sec


 RESULTS
 =======

  Reference energy                   -152.120397739861
  CCSD singlet pair energy             -0.365315618945
  CCSD triplet pair energy             -0.172186453378
  CCSD correlation energy              -0.537502072322

  Triples (T) contribution             -0.015836644541
  Total correlation energy             -0.553338716863

  CCSD total energy                  -152.657899812183
  CCSD[T] energy                     -152.674151782681
  CCSD-T energy                      -152.673454710990
 !CCSD(T) total energy               -152.673736456724

 Timing summary (sec):

 STEP                 CPU(USER)    SYS     CPU(TOT)    WALL
 Transformation          0.84      0.07      0.91      0.93
 CCSD iterations        24.34      0.74     25.08     25.27
 Triples                13.31      0.19     13.50     13.52

 Program statistics:

 Available memory in ccsd:               999999644
 Min. memory needed in ccsd:               1115449
 Max. memory used in ccsd:                 1416033
 Max. memory used in cckext:               1097476 (21 integral passes)



 **********************************************************************************************************************************
 DATASETS  * FILE   NREC   LENGTH (MB)   RECORD NAMES
              1      20      181.95       500      610      700      900      950      970     1000      129      960     1100   
                                          VAR    BASINP    GEOM    SYMINP    ZMAT    AOBASIS   BASIS     P2S    ABASIS      S 
                                         1400     1410     1200     1210     1080     1600     1650     1300     1700     1380   
                                           T        V       H0       H01     AOSYM     SMH    MOLCAS    ERIS     OPER     JKOP   

              2       3        0.63       700     1000     2100   
                                         GEOM     BASIS     RHF  

 PROGRAMS   *        TOTAL   CCSD(T)       RHF       INT
 CPU TIMES  *        44.10     38.51      3.82      1.71
 REAL TIME  *        46.41 SEC
 DISK USED  *       548.95 MB      
 GA USED    *         0.00 MB       (max)       0.00 MB       (current)
 **********************************************************************************************************************************

        CCSD(T)         RHF-SCF 
   -152.67373646   -152.12039774
 **********************************************************************************************************************************
 Variable memory released
