
 Primary working directories    : /tmp/943419.163.gen6.q
 Secondary working directories  : /tmp/943419.163.gen6.q
 Wavefunction directory         : /home/vulcan/mel64643/wfu/
 Main file repository           : /tmp/943419.163.gen6.q/

 ARCHNAME  : Linux/x86_64
 FC        : /opt/intel/compilers_and_libraries_2016.1.150/linux/bin/intel64/ifort
 FCVERSION : 16.0.1
 BLASLIB   : -mkl
 id        : ccgc

 Nodes     nprocs
 n086         1
 ga_uses_ma=false, calling ma_init with nominal heap.
 GA-space will be limited to   8.0 MW (determined by -G option)

 Using customized tuning parameters: mindgm=10; mindgv=16; mindgc=4; mindgr=1; noblas=0; mincuda=1000; minvec=7
 default implementation of scratch files=df  

 ***,Optimization of nh3_nitrosmethane
 memory,1000,m
 gthresh,energy=1.0d-12,orbital=1.0d-10,oneint=1.0d-16,twoint=1.0d-16,optgrad=1.0d-6,compress=1.0d-13
 geomtyp=xyz
 
 bohr
 geometry = {
  N   -5.2214976156   -0.1867250796   -0.0015220377
  H   -6.2952157379    0.2290643485   -1.5360528187
  H   -3.7578757696    1.0572062164    0.0003305592
  H   -6.2969140667    0.2264925775    1.5325140756
  H   -0.9279337779   -2.3954706343    0.0001746229
  H    1.8683231179   -3.4313907040   -1.6669700967
  H    1.8883880455   -3.4324339911    1.6663453964
  C    1.1325282028   -2.4671469971    0.0044791254
  N    2.2649689738    0.0997978952   -0.0015341326
  O    0.7093471178    1.7776633775    0.0022353061
 }
 
 basis=aug-cc-pvtz
 {rhf;maxit,200}
 {mp2}

 Variables initialized (661), CPU time= 0.00 sec
 Commands  initialized (458), CPU time= 0.00 sec, 486 directives.
 Default parameters read. Elapsed time= 0.04 sec

 Checking input...
 Passed
1


                                         ***  PROGRAM SYSTEM MOLPRO  ***
                         Copyright, University College Cardiff Consultants Limited, 2008

                                    Version 2010.1 linked May 16 2016 07:17:05


 **********************************************************************************************************************************
 LABEL *   Optimization of nh3_nitrosmethane                                             
 Linux-4.4.3/n086(x86_64) 64 bit mpp version                                             DATE: 25-Oct-23          TIME: 21:42:33  
 **********************************************************************************************************************************

 SHA1:             9e8077add272b0f3cad6f7df79ec5211205f459d
 **********************************************************************************************************************************

 THRESHOLDS:

 ZERO    =  1.00D-12  ONEINT  =  1.00D-16  TWOINT  =  1.00D-16  PREFAC  =  1.00D-14  LOCALI  =  1.00D-09  EORDER  =  1.00D-04
 ENERGY  =  1.00D-12  ETEST   =  0.00D+00  EDENS   =  0.00D+00  THRDEDEF=  1.00D-06  GRADIENT=  1.00D-02  STEP    =  1.00D-03
 ORBITAL =  1.00D-10  CIVEC   =  1.00D-05  COEFF   =  1.00D-04  PRINTCI =  5.00D-02  PUNCHCI =  9.90D+01  OPTGRAD =  1.00D-06
 OPTENERG=  1.00D-06  OPTSTEP =  3.00D-04  THRGRAD =  1.00D-10  COMPRESS=  1.00D-13  VARMIN  =  1.00D-07  VARMAX  =  1.00D-03
 THRDOUB =  0.00D+00  THRDIV  =  1.00D-05  THRRED  =  1.00D-07  THRPSP  =  1.00D+00  THRDC   =  1.00D-10  THRCS   =  1.00D-10
 THRNRM  =  1.00D-08  THREQ   =  0.00D+00  THRDE   =  1.00D+00  THRREF  =  1.00D-05  SPARFAC =  1.00D+00  THRDLP  =  1.00D-07
 THRDIA  =  1.00D-10  THRDLS  =  1.00D-07  THRGPS  =  0.00D+00  THRKEX  =  0.00D+00  THRDIS  =  2.00D-01  THRVAR  =  1.00D-10
 THRLOC  =  1.00D-06  THRGAP  =  1.00D-06  THRLOCT = -1.00D+00  THRGAPT = -1.00D+00  THRORB  =  1.00D-06  THRMLTP =  0.00D+00
 THRCPQCI=  1.00D-10  KEXTA   =  0.00D+00  THRCOARS=  0.00D+00  SYMTOL  =  1.00D-06  GRADTOL =  1.00D-06  THROVL  =  1.00D-08
 THRORTH =  1.00D-08  GRID    =  1.00D-06  GRIDMAX =  1.00D-03  DTMAX   =  0.00D+00

 SETTING GEOMTYP        =    XYZ
 ZUNIT=BOHR
 

 Variable memory set to 1000000000 words,  buffer space   230000 words

 SETTING BASIS          =    AUG-CC-PVTZ


 Recomputing integrals since basis changed


 Using spherical harmonics

 Library entry N      S aug-cc-pVTZ          selected for orbital group  1
 Library entry N      P aug-cc-pVTZ          selected for orbital group  1
 Library entry N      D aug-cc-pVTZ          selected for orbital group  1
 Library entry N      F aug-cc-pVTZ          selected for orbital group  1
 Library entry H      S aug-cc-pVTZ          selected for orbital group  2
 Library entry H      P aug-cc-pVTZ          selected for orbital group  2
 Library entry H      D aug-cc-pVTZ          selected for orbital group  2
 Library entry C      S aug-cc-pVTZ          selected for orbital group  3
 Library entry C      P aug-cc-pVTZ          selected for orbital group  3
 Library entry C      D aug-cc-pVTZ          selected for orbital group  3
 Library entry C      F aug-cc-pVTZ          selected for orbital group  3
 Library entry O      S aug-cc-pVTZ          selected for orbital group  5
 Library entry O      P aug-cc-pVTZ          selected for orbital group  5
 Library entry O      D aug-cc-pVTZ          selected for orbital group  5
 Library entry O      F aug-cc-pVTZ          selected for orbital group  5

1PROGRAM * SEWARD (Integral evaluation for generally contracted gaussian basis sets)     Author: Roland Lindh, 1990

 Geometry written to block  1 of record 700


 Point group  C1  



 ATOMIC COORDINATES

 NR  ATOM    CHARGE       X              Y              Z

   1  N       7.00   -5.221497616   -0.186725080   -0.001522038
   2  H       1.00   -6.295215738    0.229064348   -1.536052819
   3  H       1.00   -3.757875770    1.057206216    0.000330559
   4  H       1.00   -6.296914067    0.226492577    1.532514076
   5  H       1.00   -0.927933778   -2.395470634    0.000174623
   6  H       1.00    1.868323118   -3.431390704   -1.666970097
   7  H       1.00    1.888388045   -3.432433991    1.666345396
   8  C       6.00    1.132528203   -2.467146997    0.004479125
   9  N       7.00    2.264968974    0.099797895   -0.001534133
  10  O       8.00    0.709347118    1.777663377    0.002235306

 Bond lengths in Bohr (Angstrom)

 1-2  1.918472354  1-3  1.920822066  1-4  1.918472354  5-8  2.061712784  6-8  2.065164058
     ( 1.015211846)     ( 1.016455260)     ( 1.015211846)     ( 1.091011417)     ( 1.092837752)

  7- 8  2.065164058   8- 9  2.805648649   9-10  2.288057286
       ( 1.092837752)       ( 1.484685321)       ( 1.210787769)

 Bond angles

  2-1-3  106.67095379   2-1-4  106.21107417   3-1-4  106.67095379   5-8-6  111.75356308

  5-8-7  112.56384403   5-8-9  111.81259323   6-8-7  107.61715628   6-8-9  106.35819342

  7- 8- 9  106.35819140   8- 9-10  113.35946296

 NUCLEAR CHARGE:                   34
 NUMBER OF PRIMITIVE AOS:         430
 NUMBER OF SYMMETRY AOS:          382
 NUMBER OF CONTRACTIONS:          322   ( 322A   )
 NUMBER OF CORE ORBITALS:           4   (   4A   )
 NUMBER OF VALENCE ORBITALS:       22   (  22A   )


 NUCLEAR REPULSION ENERGY  117.53194934


 Eigenvalues of metric

         1 0.331E-04 0.529E-04 0.821E-04 0.105E-03 0.118E-03 0.169E-03 0.232E-03 0.237E-03


 Contracted 2-electron integrals neglected if value below      1.0D-16
 AO integral compression algorithm  1   Integral accuracy      1.0D-16

     9698.542 MB (compressed) written to integral file ( 80.5%)

     Node minimum: 9698.542 MB, node maximum: 9698.542 MB


 NUMBER OF SORTED TWO-ELECTRON INTEGRALS: 1352182006.     BUFFER LENGTH:  32768
 NUMBER OF SEGMENTS:  43  SEGMENT LENGTH:   31998710      RECORD LENGTH: 524288

 Memory used in sort:      32.56 MW

 SORT1 READ  1506454996. AND WROTE  1291476865. INTEGRALS IN   3716 RECORDS. CPU TIME:    14.74 SEC, REAL TIME:    38.36 SEC
 SORT2 READ  1291476865. AND WROTE  1352182006. INTEGRALS IN  36997 RECORDS. CPU TIME:     8.31 SEC, REAL TIME:    41.06 SEC

 FILE SIZES:   FILE 1:  8809.6 MBYTE,  FILE 4: 15586.1 MBYTE,   TOTAL:  24395.7 MBYTE

 OPERATOR DM      FOR CENTER  0  COORDINATES:    0.000000    0.000000    0.000000


 **********************************************************************************************************************************
 DATASETS  * FILE   NREC   LENGTH (MB)   RECORD NAMES
              1      19     8810.85       500      610      700      900      950      970     1000      129      960     1100   
                                          VAR    BASINP    GEOM    SYMINP    ZMAT    AOBASIS   BASIS     P2S    ABASIS      S 
                                         1400     1410     1200     1210     1080     1600     1650     1300     1700   
                                           T        V       H0       H01     AOSYM     SMH    MOLCAS    ERIS     OPER   

 PROGRAMS   *        TOTAL       INT
 CPU TIMES  *        55.51     55.47
 REAL TIME  *       117.03 SEC
 DISK USED  *        34.10 GB      
 GA USED    *         0.00 MB       (max)       0.00 MB       (current)
 **********************************************************************************************************************************

1PROGRAM * RHF-SCF (CLOSED SHELL)       Authors: W. Meyer, H.-J. Werner


 NUMBER OF ELECTRONS:      17+   17-    SPACE SYMMETRY=1    SPIN SYMMETRY: Singlet 
 CONVERGENCE THRESHOLDS:    1.00E-10 (Density)    1.00E-13 (Energy)
 MAX. NUMBER OF ITERATIONS:      200
 INTERPOLATION TYPE:            DIIS
 INTERPOLATION STEPS:              2 (START)      1 (STEP)
 LEVEL SHIFTS:                  0.00 (CLOSED)  0.00 (OPEN) 



 Orbital guess generated from atomic densities. Full valence occupancy:   26

 Molecular orbital dump at record        2100.2

 ITERATION    DDIFF          GRAD             ENERGY        2-EL.EN.            DIPOLE MOMENTS         DIIS
    1      0.000D+00      0.000D+00      -225.01927115    393.763102    0.05933   -0.58755   -0.00197    0
    2      0.000D+00      0.278D-02      -225.07994990    393.194863   -0.57496   -0.37904    0.00101    1
    3      0.485D-02      0.199D-02      -225.11441755    393.794337   -0.23938   -0.54934    0.00002    2
    4      0.202D-02      0.385D-03      -225.11664088    393.651299   -0.31440   -0.45381    0.00022    3
    5      0.550D-03      0.158D-03      -225.11707325    393.661464   -0.31126   -0.48215    0.00027    4
    6      0.231D-03      0.387D-04      -225.11712058    393.686330   -0.31714   -0.47849    0.00030    5
    7      0.827D-04      0.147D-04      -225.11712744    393.670793   -0.31900   -0.47851    0.00031    6
    8      0.340D-04      0.597D-05      -225.11712854    393.677493   -0.32005   -0.47839    0.00031    7
    9      0.132D-04      0.261D-05      -225.11712878    393.676025   -0.32036   -0.47808    0.00032    8
   10      0.715D-05      0.793D-06      -225.11712880    393.675734   -0.32047   -0.47788    0.00032    8
   11      0.229D-05      0.262D-06      -225.11712881    393.675854   -0.32049   -0.47778    0.00032    8
   12      0.721D-06      0.854D-07      -225.11712881    393.675804   -0.32049   -0.47776    0.00032    8
   13      0.286D-06      0.298D-07      -225.11712881    393.675799   -0.32049   -0.47775    0.00032    8
   14      0.724D-07      0.154D-07      -225.11712881    393.675801   -0.32049   -0.47775    0.00032    9
   15      0.357D-07      0.543D-08      -225.11712881    393.675801   -0.32049   -0.47775    0.00032    8
   16      0.166D-07      0.404D-08      -225.11712881    393.675801   -0.32049   -0.47775    0.00032    8
   17      0.309D-07      0.175D-08      -225.11712881    393.675802   -0.32049   -0.47775    0.00032    8
   18      0.185D-07      0.363D-09      -225.11712881    393.675801   -0.32049   -0.47775    0.00032    9
   19      0.230D-08      0.103D-09      -225.11712881    393.675801   -0.32049   -0.47775    0.00032    9
   20      0.280D-09      0.332D-10      -225.11712881    393.675801   -0.32049   -0.47775    0.00032    9
   21      0.931D-10      0.108D-10      -225.11712881    393.675801   -0.32049   -0.47775    0.00032    9
   22      0.328D-10      0.439D-11      -225.11712881    393.675801   -0.32049   -0.47775    0.00032    9
   23      0.231D-10      0.194D-11      -225.11712881    393.675801   -0.32049   -0.47775    0.00032    9
   24      0.252D-10      0.981D-12      -225.11712881    393.675801   -0.32049   -0.47775    0.00032    8
   25      0.112D-10      0.534D-12      -225.11712881    393.675801   -0.32049   -0.47775    0.00032    8
   26      0.165D-10      0.260D-12      -225.11712881    393.675801   -0.32049   -0.47775    0.00032    9
   27      0.113D-10      0.200D-12      -225.11712881    393.675801   -0.32049   -0.47775    0.00032    9
   28      0.766D-11      0.226D-12      -225.11712881    393.675801   -0.32049   -0.47775    0.00032    9
   29      0.486D-11      0.197D-12      -225.11712881    393.675801   -0.32049   -0.47775    0.00032    9
   30      0.340D-11      0.140D-12      -225.11712881    393.675801   -0.32049   -0.47775    0.00032    9
   31      0.366D-11      0.152D-12      -225.11712881    393.675801   -0.32049   -0.47775    0.00032    9
   32      0.273D-11      0.159D-12      -225.11712881    393.675801   -0.32049   -0.47775    0.00032    9
   33      0.311D-11      0.150D-12      -225.11712881    393.675801   -0.32049   -0.47775    0.00032    9
   34      0.295D-11      0.153D-12      -225.11712881    393.675801   -0.32049   -0.47775    0.00032    9
   35      0.191D-11      0.139D-12      -225.11712881    393.675801   -0.32049   -0.47775    0.00032    9
   36      0.185D-11      0.171D-12      -225.11712881    393.675801   -0.32049   -0.47775    0.00032    0

 Final occupancy:  17

 !RHF STATE 1.1 Energy               -225.117128807589
 Nuclear energy                       117.53194934
 One-electron energy                 -539.48697887
 Two-electron energy                  196.83790072
 Virial quotient                       -1.00193645
 !RHF STATE 1.1 Dipole moment          -0.32049056    -0.47774975     0.00032084
 Dipole moment /Debye                  -0.81455240    -1.21423922     0.00081544

 Orbital energies:

         1.1          2.1          3.1          4.1          5.1          6.1          7.1          8.1          9.1         10.1
    -20.630761   -15.705188   -15.539055   -11.263323    -1.513845    -1.138956    -1.073101    -0.860531    -0.692723    -0.675926

        11.1         12.1         13.1         14.1         15.1         16.1         17.1         18.1         19.1
     -0.636879    -0.624454    -0.624065    -0.556534    -0.535715    -0.429335    -0.405197     0.028828     0.038581


 **********************************************************************************************************************************
 DATASETS  * FILE   NREC   LENGTH (MB)   RECORD NAMES
              1      19     8810.85       500      610      700      900      950      970     1000      129      960     1100   
                                          VAR    BASINP    GEOM    SYMINP    ZMAT    AOBASIS   BASIS     P2S    ABASIS      S 
                                         1400     1410     1200     1210     1080     1600     1650     1300     1700   
                                           T        V       H0       H01     AOSYM     SMH    MOLCAS    ERIS     OPER   

              2       3        2.54       700     1000     2100   
                                         GEOM     BASIS     RHF  

 PROGRAMS   *        TOTAL       RHF       INT
 CPU TIMES  *       388.71    333.20     55.47
 REAL TIME  *       478.49 SEC
 DISK USED  *        34.10 GB      
 GA USED    *         0.00 MB       (max)       0.00 MB       (current)
 **********************************************************************************************************************************


1PROGRAM * MP2 (Closed-shell)     Authors: C. Hampel, H.-J. Werner, 1991, M. Deegan, P.J. Knowles, 1992


 Convergence thresholds:  THRVAR = 1.00D-08  THRDEN = 1.00D-12

 Number of core orbitals:           4 (   4 )
 Number of closed-shell orbitals:  13 (  13 )
 Number of external orbitals:     305 ( 305 )

 Molecular orbitals read from record     2100.2  Type=RHF/CANONICAL (state 1.1)

 Number of N-1 electron functions:              13
 Number of N-2 electron functions:              91
 Number of singly external CSFs:              3965
 Number of doubly external CSFs:           7862595
 Total number of CSFs:                     7866561

 Length of J-op  integral file:               0.00 MB
 Length of K-op  integral file:               7.17 MB

 Integral transformation finished. Total CPU:  18.57 sec, npass=  1  Memory used:  17.90 MW

 Memory needed for MP2:                      0.51 MW

 SCS-MP2 correlation energy:           -0.858268523107   (PS=  1.200000  PT=  0.333333)
 SCS-MP2 total energy:               -225.975397330696


  Reference energy                   -225.117128807590
  MP2 singlet pair energy              -0.556615745509
  MP2 triplet pair energy              -0.305886902940
  MP2 correlation energy               -0.862502648449

 !MP2 total energy                   -225.979631456038


 **********************************************************************************************************************************
 DATASETS  * FILE   NREC   LENGTH (MB)   RECORD NAMES
              1      20     8926.10       500      610      700      900      950      970     1000      129      960     1100   
                                          VAR    BASINP    GEOM    SYMINP    ZMAT    AOBASIS   BASIS     P2S    ABASIS      S 
                                         1400     1410     1200     1210     1080     1600     1650     1300     1700     1380   
                                           T        V       H0       H01     AOSYM     SMH    MOLCAS    ERIS     OPER     JKOP   

              2       3        2.54       700     1000     2100   
                                         GEOM     BASIS     RHF  

 PROGRAMS   *        TOTAL       MP2       RHF       INT
 CPU TIMES  *       407.92     19.21    333.20     55.47
 REAL TIME  *       498.70 SEC
 DISK USED  *        34.10 GB      
 GA USED    *         0.00 MB       (max)       0.00 MB       (current)
 **********************************************************************************************************************************

        MP2             RHF-SCF 
   -225.97963146   -225.11712881
 **********************************************************************************************************************************
 Variable memory released
