
 Primary working directories    : /tmp/943417.147.gen6.q
 Secondary working directories  : /tmp/943417.147.gen6.q
 Wavefunction directory         : /home/vulcan/mel64643/wfu/
 Main file repository           : /tmp/943417.147.gen6.q/

 ARCHNAME  : Linux/x86_64
 FC        : /opt/intel/compilers_and_libraries_2016.1.150/linux/bin/intel64/ifort
 FCVERSION : 16.0.1
 BLASLIB   : -mkl
 id        : ccgc

 Nodes     nprocs
 n076         1
 ga_uses_ma=false, calling ma_init with nominal heap.
 GA-space will be limited to   8.0 MW (determined by -G option)

 Using customized tuning parameters: mindgm=10; mindgv=16; mindgc=4; mindgr=1; noblas=0; mincuda=1000; minvec=7
 default implementation of scratch files=df  

 ***,Optimization of nh3_nitrosmethane
 memory,1000,m
 gthresh,energy=1.0d-12,orbital=1.0d-10,oneint=1.0d-16,twoint=1.0d-16,optgrad=1.0d-6,compress=1.0d-13
 geomtyp=xyz
 
 bohr
 geometry = {
  N   -5.2206601374   -0.1861060511   -0.0000000000
  H   -6.2951262935    0.2286596434   -1.5342842209
  H   -3.7567342178    1.0574687602    0.0000000000
  H   -6.2951262935    0.2286596434    1.5342842209
  H   -0.9218390273   -2.3967063109    0.0000000000
  H    1.8783787974   -3.4331619926   -1.6699848509
  H    1.8783787974   -3.4331619926    1.6699848509
  C    1.1305080448   -2.4669212466    0.0000000000
  N    2.2614699310    0.1006826072   -0.0000000000
  O    0.7048688890    1.7776439485   -0.0000000000
 }
 
 basis=cc-pvdz
 {rhf;maxit,200}
 {ccsd(t);maxit,200}

 Variables initialized (661), CPU time= 0.00 sec
 Commands  initialized (458), CPU time= 0.01 sec, 486 directives.
 Default parameters read. Elapsed time= 0.05 sec

 Checking input...
 Passed
1


                                         ***  PROGRAM SYSTEM MOLPRO  ***
                         Copyright, University College Cardiff Consultants Limited, 2008

                                    Version 2010.1 linked May 16 2016 07:17:05


 **********************************************************************************************************************************
 LABEL *   Optimization of nh3_nitrosmethane                                             
 Linux-4.4.3/n076(x86_64) 64 bit mpp version                                             DATE: 25-Oct-23          TIME: 16:44:49  
 **********************************************************************************************************************************

 SHA1:             9e8077add272b0f3cad6f7df79ec5211205f459d
 **********************************************************************************************************************************

 THRESHOLDS:

 ZERO    =  1.00D-12  ONEINT  =  1.00D-16  TWOINT  =  1.00D-16  PREFAC  =  1.00D-14  LOCALI  =  1.00D-09  EORDER  =  1.00D-04
 ENERGY  =  1.00D-12  ETEST   =  0.00D+00  EDENS   =  0.00D+00  THRDEDEF=  1.00D-06  GRADIENT=  1.00D-02  STEP    =  1.00D-03
 ORBITAL =  1.00D-10  CIVEC   =  1.00D-05  COEFF   =  1.00D-04  PRINTCI =  5.00D-02  PUNCHCI =  9.90D+01  OPTGRAD =  1.00D-06
 OPTENERG=  1.00D-06  OPTSTEP =  3.00D-04  THRGRAD =  1.00D-10  COMPRESS=  1.00D-13  VARMIN  =  1.00D-07  VARMAX  =  1.00D-03
 THRDOUB =  0.00D+00  THRDIV  =  1.00D-05  THRRED  =  1.00D-07  THRPSP  =  1.00D+00  THRDC   =  1.00D-10  THRCS   =  1.00D-10
 THRNRM  =  1.00D-08  THREQ   =  0.00D+00  THRDE   =  1.00D+00  THRREF  =  1.00D-05  SPARFAC =  1.00D+00  THRDLP  =  1.00D-07
 THRDIA  =  1.00D-10  THRDLS  =  1.00D-07  THRGPS  =  0.00D+00  THRKEX  =  0.00D+00  THRDIS  =  2.00D-01  THRVAR  =  1.00D-10
 THRLOC  =  1.00D-06  THRGAP  =  1.00D-06  THRLOCT = -1.00D+00  THRGAPT = -1.00D+00  THRORB  =  1.00D-06  THRMLTP =  0.00D+00
 THRCPQCI=  1.00D-10  KEXTA   =  0.00D+00  THRCOARS=  0.00D+00  SYMTOL  =  1.00D-06  GRADTOL =  1.00D-06  THROVL  =  1.00D-08
 THRORTH =  1.00D-08  GRID    =  1.00D-06  GRIDMAX =  1.00D-03  DTMAX   =  0.00D+00

 SETTING GEOMTYP        =    XYZ
 ZUNIT=BOHR
 

 Variable memory set to 1000000000 words,  buffer space   230000 words

 SETTING BASIS          =    CC-PVDZ


 Recomputing integrals since basis changed


 Using spherical harmonics

 Library entry N      S cc-pVDZ              selected for orbital group  1
 Library entry N      P cc-pVDZ              selected for orbital group  1
 Library entry N      D cc-pVDZ              selected for orbital group  1
 Library entry H      S cc-pVDZ              selected for orbital group  2
 Library entry H      P cc-pVDZ              selected for orbital group  2
 Library entry C      S cc-pVDZ              selected for orbital group  3
 Library entry C      P cc-pVDZ              selected for orbital group  3
 Library entry C      D cc-pVDZ              selected for orbital group  3
 Library entry O      S cc-pVDZ              selected for orbital group  5
 Library entry O      P cc-pVDZ              selected for orbital group  5
 Library entry O      D cc-pVDZ              selected for orbital group  5

1PROGRAM * SEWARD (Integral evaluation for generally contracted gaussian basis sets)     Author: Roland Lindh, 1990

 Geometry written to block  1 of record 700


 Point group  Cs  



 ATOMIC COORDINATES

 NR  ATOM    CHARGE       X              Y              Z

   1  N       7.00   -5.220660137   -0.186106051    0.000000000
   2  H       1.00   -6.295126294    0.228659643   -1.534284221
   3  H       1.00   -6.295126294    0.228659643    1.534284221
   4  H       1.00   -3.756734218    1.057468760    0.000000000
   5  H       1.00   -0.921839027   -2.396706311    0.000000000
   6  H       1.00    1.878378797   -3.433161993   -1.669984851
   7  H       1.00    1.878378797   -3.433161993    1.669984851
   8  C       6.00    1.130508045   -2.466921247    0.000000000
   9  N       7.00    2.261469931    0.100682607    0.000000000
  10  O       8.00    0.704868889    1.777643948    0.000000000

 Bond lengths in Bohr (Angstrom)

 1-2  1.918472354  1-3  1.918472354  1-4  1.920822066  5-8  2.053547818  6-8  2.069246540
     ( 1.015211846)     ( 1.015211846)     ( 1.016455260)     ( 1.086690703)     ( 1.094998109)

  7- 8  2.069246540   8- 9  2.805648648   9-10  2.288057286
       ( 1.094998109)       ( 1.484685321)       ( 1.210787769)

 Bond angles

  2-1-3  106.21107416   2-1-4  106.67095379   3-1-4  106.67095379   5-8-6  112.15889812

  5-8-7  112.15889812   5-8-9  111.81278773   6-8-7  107.61734999   6-8-9  106.35838658

  7- 8- 9  106.35838658   8- 9-10  113.35946299

 NUCLEAR CHARGE:                   34
 NUMBER OF PRIMITIVE AOS:         150
 NUMBER OF SYMMETRY AOS:          146
 NUMBER OF CONTRACTIONS:           86   (  58A'  +  28A"  )
 NUMBER OF CORE ORBITALS:           4   (   4A'  +   0A"  )
 NUMBER OF VALENCE ORBITALS:       22   (  16A'  +   6A"  )


 NUCLEAR REPULSION ENERGY  117.54916379


 Eigenvalues of metric

         1 0.626E-02 0.967E-02 0.151E-01 0.179E-01 0.298E-01 0.389E-01 0.411E-01 0.450E-01
         2 0.373E-01 0.407E-01 0.500E-01 0.774E-01 0.114E+00 0.146E+00 0.149E+00 0.201E+00


 Contracted 2-electron integrals neglected if value below      1.0D-16
 AO integral compression algorithm  1   Integral accuracy      1.0D-16

     28.574 MB (compressed) written to integral file ( 86.5%)

     Node minimum: 28.574 MB, node maximum: 28.574 MB


 NUMBER OF SORTED TWO-ELECTRON INTEGRALS:    3631235.     BUFFER LENGTH:  32768
 NUMBER OF SEGMENTS:   1  SEGMENT LENGTH:    3631235      RECORD LENGTH: 524288

 Memory used in sort:       4.19 MW

 SORT1 READ     4137582. AND WROTE     3571030. INTEGRALS IN     11 RECORDS. CPU TIME:     0.05 SEC, REAL TIME:     0.07 SEC
 SORT2 READ     3571030. AND WROTE     3631235. INTEGRALS IN    109 RECORDS. CPU TIME:     0.05 SEC, REAL TIME:     0.07 SEC

 FILE SIZES:   FILE 1:    28.1 MBYTE,  FILE 4:    46.2 MBYTE,   TOTAL:     74.3 MBYTE

 OPERATOR DM      FOR CENTER  0  COORDINATES:    0.000000    0.000000    0.000000


 **********************************************************************************************************************************
 DATASETS  * FILE   NREC   LENGTH (MB)   RECORD NAMES
              1      19       28.15       500      610      700      900      950      970     1000      129      960     1100   
                                          VAR    BASINP    GEOM    SYMINP    ZMAT    AOBASIS   BASIS     P2S    ABASIS      S 
                                         1400     1410     1200     1210     1080     1600     1650     1300     1700   
                                           T        V       H0       H01     AOSYM     SMH    MOLCAS    ERIS     OPER   

 PROGRAMS   *        TOTAL       INT
 CPU TIMES  *         0.67      0.63
 REAL TIME  *         0.92 SEC
 DISK USED  *       103.63 MB      
 GA USED    *         0.00 MB       (max)       0.00 MB       (current)
 **********************************************************************************************************************************

1PROGRAM * RHF-SCF (CLOSED SHELL)       Authors: W. Meyer, H.-J. Werner


 NUMBER OF ELECTRONS:      17+   17-
 CONVERGENCE THRESHOLDS:    1.00E-10 (Density)    1.00E-13 (Energy)
 MAX. NUMBER OF ITERATIONS:      200
 INTERPOLATION TYPE:            DIIS
 INTERPOLATION STEPS:              2 (START)      1 (STEP)
 LEVEL SHIFTS:                  0.00 (CLOSED)  0.00 (OPEN) 



 Orbital guess generated from atomic densities. Full valence occupancy:   20   6

 Molecular orbital dump at record        2100.2

 Initial alpha occupancy:  14   3
 Initial beta  occupancy:  14   3
 Wave function symmetry:    1

 ITERATION    DDIFF          GRAD             ENERGY        2-EL.EN.            DIPOLE MOMENTS         DIIS
    1      0.000D+00      0.000D+00      -224.94753880    394.097282    0.09461   -0.55325    0.00000    0
    2      0.000D+00      0.134D-01      -225.00912244    393.549268   -0.58714   -0.30188    0.00000    1
    3      0.250D-01      0.906D-02      -225.04073751    394.062127   -0.25397   -0.50347    0.00000    2
    4      0.108D-01      0.182D-02      -225.04286464    393.952461   -0.33216   -0.41375    0.00000    3
    5      0.286D-02      0.702D-03      -225.04323522    393.949230   -0.33356   -0.44027    0.00000    4
    6      0.120D-02      0.170D-03      -225.04327141    393.971205   -0.33846   -0.43847    0.00000    5
    7      0.404D-03      0.677D-04      -225.04327712    393.959127   -0.34007   -0.43871    0.00000    6
    8      0.165D-03      0.258D-04      -225.04327794    393.964690   -0.34083   -0.43869    0.00000    7
    9      0.565D-04      0.107D-04      -225.04327810    393.963376   -0.34100   -0.43840    0.00000    8
   10      0.289D-04      0.296D-05      -225.04327811    393.963202   -0.34105   -0.43825    0.00000    8
   11      0.839D-05      0.898D-06      -225.04327811    393.963253   -0.34107   -0.43818    0.00000    8
   12      0.241D-05      0.285D-06      -225.04327811    393.963217   -0.34107   -0.43816    0.00000    8
   13      0.969D-06      0.882D-07      -225.04327811    393.963211   -0.34107   -0.43816    0.00000    8
   14      0.228D-06      0.435D-07      -225.04327811    393.963212   -0.34107   -0.43816    0.00000    8
   15      0.113D-06      0.815D-08      -225.04327811    393.963213   -0.34107   -0.43816    0.00000    8
   16      0.158D-07      0.226D-08      -225.04327811    393.963212   -0.34107   -0.43816    0.00000    8
   17      0.547D-08      0.588D-09      -225.04327811    393.963212   -0.34107   -0.43816    0.00000    7
   18      0.137D-08      0.162D-09      -225.04327811    393.963212   -0.34107   -0.43816    0.00000    7
   19      0.356D-09      0.550D-10      -225.04327811    393.963212   -0.34107   -0.43816    0.00000    7
   20      0.129D-09      0.138D-10      -225.04327811    393.963212   -0.34107   -0.43816    0.00000    7
   21      0.364D-10      0.544D-11      -225.04327811    393.963212   -0.34107   -0.43816    0.00000    7
   22      0.125D-10      0.237D-11      -225.04327811    393.963212   -0.34107   -0.43816    0.00000    8
   23      0.457D-11      0.774D-12      -225.04327811    393.963212   -0.34107   -0.43816    0.00000    8
   24      0.161D-11      0.159D-12      -225.04327811    393.963212   -0.34107   -0.43816    0.00000    8
   25      0.418D-12      0.679D-13      -225.04327811    393.963212   -0.34107   -0.43816    0.00000    8
   26      0.164D-12      0.224D-13      -225.04327811    393.963212   -0.34107   -0.43816    0.00000    8
   27      0.670D-13      0.136D-13      -225.04327811    393.963212   -0.34107   -0.43816    0.00000    8
   28      0.448D-13      0.117D-13      -225.04327811    393.963212   -0.34107   -0.43816    0.00000    0

 Final occupancy:  14   3

 !RHF STATE 1.1 Energy               -225.043278112644
 Nuclear energy                       117.54916379
 One-electron energy                 -539.57404809
 Two-electron energy                  196.98160618
 Virial quotient                       -1.00147325
 !RHF STATE 1.1 Dipole moment          -0.34107415    -0.43815814     0.00000000
 Dipole moment /Debye                  -0.86686725    -1.11361397     0.00000000

 Orbital energies:

         1.1          2.1          3.1          4.1          5.1          6.1          7.1          8.1          9.1         10.1
    -20.625837   -15.698270   -15.537355   -11.265210    -1.511145    -1.130729    -1.069300    -0.855162    -0.685954    -0.668961

        11.1         12.1         13.1         14.1         15.1         16.1
     -0.613950    -0.551374    -0.420174    -0.396805     0.187035     0.206117

         1.2          2.2          3.2          4.2          5.2
     -0.631409    -0.615063    -0.528721     0.111387     0.251938


 **********************************************************************************************************************************
 DATASETS  * FILE   NREC   LENGTH (MB)   RECORD NAMES
              1      19       28.15       500      610      700      900      950      970     1000      129      960     1100   
                                          VAR    BASINP    GEOM    SYMINP    ZMAT    AOBASIS   BASIS     P2S    ABASIS      S 
                                         1400     1410     1200     1210     1080     1600     1650     1300     1700   
                                           T        V       H0       H01     AOSYM     SMH    MOLCAS    ERIS     OPER   

              2       3        0.50       700     1000     2100   
                                         GEOM     BASIS     RHF  

 PROGRAMS   *        TOTAL       RHF       INT
 CPU TIMES  *         1.18      0.51      0.63
 REAL TIME  *         1.53 SEC
 DISK USED  *       103.63 MB      
 GA USED    *         0.00 MB       (max)       0.00 MB       (current)
 **********************************************************************************************************************************


1PROGRAM * CCSD (Closed-shell coupled cluster)     Authors: C. Hampel, H.-J. Werner, 1991, M. Deegan, P.J. Knowles, 1992


 Convergence thresholds:  THRVAR = 1.00D-08  THRDEN = 1.00D-12

 CCSD(T)     terms to be evaluated (factor= 1.000)


 Number of core orbitals:           4 (   4   0 )
 Number of closed-shell orbitals:  13 (  10   3 )
 Number of external orbitals:      69 (  44  25 )

 Molecular orbitals read from record     2100.2  Type=RHF/CANONICAL (state 1.1)

 Number of N-1 electron functions:              13
 Number of N-2 electron functions:              91
 Number of singly external CSFs:               515
 Number of doubly external CSFs:            206023
 Total number of CSFs:                      206539

 Length of J-op  integral file:               0.00 MB
 Length of K-op  integral file:               0.32 MB
 Length of 3-ext integral record:             0.00 MB

 Memory could be reduced to 3.40 Mwords without degradation in triples

 Integral transformation finished. Total CPU:   0.08 sec, npass=  1  Memory used:   1.58 MW

 Reference energy:                   -225.04327811

 MP2 singlet pair energy:              -0.42934412
 MP2 triplet pair energy:              -0.24967548
 MP2 correlation energy:               -0.67901960
 MP2 total energy:                   -225.72229771

 SCS-MP2 correlation energy:           -0.67056657   (PS=  1.200000  PT=  0.333333)
 SCS-MP2 total energy:               -225.71384468

 ITER.      SQ.NORM     CORR.ENERGY   TOTAL ENERGY   ENERGY CHANGE        DEN1      VAR(S)    VAR(P)  DIIS     TIME
   1      1.22626270    -0.71499832  -225.75827643    -0.03597872    -0.01362933  0.43D-02  0.46D-02  1  1     0.30
   2      1.24682277    -0.71834136  -225.76161947    -0.00334304    -0.02048301  0.13D-03  0.80D-03  2  2     0.52
   3      1.25564039    -0.71901308  -225.76229119    -0.00067172    -0.00425496  0.99D-04  0.58D-04  3  3     0.74
   4      1.25928811    -0.71900449  -225.76228260     0.00000859    -0.00124900  0.73D-05  0.10D-04  4  4     0.95
   5      1.26067701    -0.71902314  -225.76230125    -0.00001866    -0.00031633  0.14D-05  0.16D-05  5  5     1.17
   6      1.26106555    -0.71899647  -225.76227458     0.00002667    -0.00004582  0.73D-07  0.35D-06  6  6     1.39
   7      1.26115478    -0.71899461  -225.76227272     0.00000186    -0.00000206  0.20D-07  0.95D-07  6  2     1.61
   8      1.26117703    -0.71899474  -225.76227285    -0.00000013     0.00000223  0.88D-08  0.23D-07  6  5     1.83
   9      1.26117222    -0.71899562  -225.76227374    -0.00000088     0.00000157  0.17D-08  0.26D-08  6  1     2.05
  10      1.26117203    -0.71899589  -225.76227400    -0.00000026    -0.00000139  0.38D-09  0.29D-09  6  3     2.28
  11      1.26117053    -0.71899615  -225.76227426    -0.00000026     0.00000086  0.74D-10  0.47D-10  6  4     2.49
  12      1.26116980    -0.71899621  -225.76227433    -0.00000006     0.00000022  0.18D-10  0.10D-10  6  6     2.71
  13      1.26116908    -0.71899625  -225.76227436    -0.00000003     0.00000017  0.33D-11  0.16D-11  6  2     2.93
  14      1.26116872    -0.71899626  -225.76227438    -0.00000002     0.00000012  0.65D-12  0.44D-12  6  1     3.15
  15      1.26116846    -0.71899627  -225.76227438    -0.00000001     0.00000005  0.52D-13  0.66D-13  6  5     3.37
  16      1.26116840    -0.71899627  -225.76227439    -0.00000000     0.00000001  0.10D-13  0.24D-13  6  3     3.58
  17      1.26116837    -0.71899628  -225.76227439    -0.00000000     0.00000001  0.58D-15  0.72D-14  6  4     3.81
  18      1.26116836    -0.71899628  -225.76227439    -0.00000000    -0.00000000  0.19D-15  0.16D-14  6  6     4.02
  19      1.26116836    -0.71899628  -225.76227439    -0.00000000    -0.00000000  0.21D-15  0.30D-15  6  2     4.24
  20      1.26116836    -0.71899628  -225.76227439     0.00000000     0.00000000  0.84D-16  0.62D-16  6  1     4.47
  21      1.26116836    -0.71899628  -225.76227439     0.00000000     0.00000000  0.23D-16  0.12D-16  6  5     4.68
  22      1.26116836    -0.71899628  -225.76227439     0.00000000    -0.00000000  0.23D-17  0.22D-17  6  4     4.89
  23      1.26116836    -0.71899628  -225.76227439     0.00000000    -0.00000000  0.46D-18  0.25D-18  6  3     5.11
  24      1.26116836    -0.71899628  -225.76227439     0.00000000    -0.00000000  0.82D-19  0.37D-19  6  6     5.33
  25      1.26116836    -0.71899628  -225.76227439     0.00000000    -0.00000000  0.20D-19  0.89D-20  6  5     5.54
  26      1.26116836    -0.71899628  -225.76227439     0.00000000    -0.00000000  0.29D-20  0.15D-20  6  2     5.77

 Norm of t1 vector:      0.09906283      S-energy:     0.00000000      T1 diagnostic:  0.01373754
                                                                       D1 diagnostic:  0.04979366

 Doubles amplitudes (print threshold =  0.500E-01):

         I         J         SYM. A    SYM. B    A         B      T(IJ, AB)

        11        11         2         2         1         1     -0.06261809
        13        11         2         2         1         1     -0.06582542
        13        13         2         2         1         1     -0.09313329


 Total CPU time for triples:      2.19 sec


 RESULTS
 =======

  Reference energy                   -225.043278112644
  CCSD singlet pair energy             -0.498434442299
  CCSD triplet pair energy             -0.220561834386
  CCSD correlation energy              -0.718996276684

  Triples (T) contribution             -0.021532960580
  Total correlation energy             -0.740529237264

  CCSD total energy                  -225.762274389328
  CCSD[T] energy                     -225.785153165223
  CCSD-T energy                      -225.783407435585
 !CCSD(T) total energy               -225.783807349908

 Timing summary (sec):

 STEP                 CPU(USER)    SYS     CPU(TOT)    WALL
 Transformation          0.09      0.02      0.11      0.11
 CCSD iterations         5.68      0.30      5.98      6.01
 Triples                 2.19      0.04      2.23      2.25

 Program statistics:

 Available memory in ccsd:               999999224
 Min. memory needed in ccsd:                602268
 Max. memory used in ccsd:                  776096
 Max. memory used in cckext:                873141 (26 integral passes)



 **********************************************************************************************************************************
 DATASETS  * FILE   NREC   LENGTH (MB)   RECORD NAMES
              1      20       41.32       500      610      700      900      950      970     1000      129      960     1100   
                                          VAR    BASINP    GEOM    SYMINP    ZMAT    AOBASIS   BASIS     P2S    ABASIS      S 
                                         1400     1410     1200     1210     1080     1600     1650     1300     1700     1380   
                                           T        V       H0       H01     AOSYM     SMH    MOLCAS    ERIS     OPER     JKOP   

              2       3        0.50       700     1000     2100   
                                         GEOM     BASIS     RHF  

 PROGRAMS   *        TOTAL   CCSD(T)       RHF       INT
 CPU TIMES  *         9.15      7.97      0.51      0.63
 REAL TIME  *         9.93 SEC
 DISK USED  *       107.69 MB      
 GA USED    *         0.00 MB       (max)       0.00 MB       (current)
 **********************************************************************************************************************************

        CCSD(T)         RHF-SCF 
   -225.78380735   -225.04327811
 **********************************************************************************************************************************
 Variable memory released
