
 Primary working directories    : /tmp/984874.372.gen4.q
 Secondary working directories  : /tmp/984874.372.gen4.q
 Wavefunction directory         : /home/vulcan/mel64643/wfu/
 Main file repository           : /tmp/984874.372.gen4.q/

 ARCHNAME  : Linux/x86_64
 FC        : /opt/intel/compilers_and_libraries_2016.1.150/linux/bin/intel64/ifort
 FCVERSION : 16.0.1
 BLASLIB   : -mkl
 id        : ccgc

 Nodes     nprocs
 n049         1
 ga_uses_ma=false, calling ma_init with nominal heap.
 GA-space will be limited to   8.0 MW (determined by -G option)

 Using customized tuning parameters: mindgm=10; mindgv=16; mindgc=4; mindgr=1; noblas=0; mincuda=1000; minvec=7
 default implementation of scratch files=df  

 ***,Optimization of formic acid
 memory,1000,m
 gthresh,energy=1.0d-12,orbital=1.0d-10,oneint=1.0d-16,twoint=1.0d-16,optgrad=1.0d-6,compress=1.0d-13
 geomtyp=xyz
 
 
 
 bohr
 geometry = {
  C   -3.4927763630   -0.8317857537    0.0000000000
  O   -3.0941888712    1.6229274903   -0.0000000000
  O   -1.8840763861   -2.4885943471    0.0000000000
  H   -5.5143809289   -1.2634692477    0.0000000000
  H   -1.2430685461    1.9600708978   -0.0000000000
  C    3.4936599315    0.8277469287    0.0000000000
  O    3.0950724397   -1.6269663153   -0.0000000000
  O    1.8849599546    2.4845555221    0.0000000000
  H    5.5108466549    1.2796245475    0.0000000000
  H    1.2439521146   -1.9641097227   -0.0000000000
 }
 
 basis=VTZ
 {rhf;maxit,200}
 {ccsd(t);maxit,200}

 Variables initialized (661), CPU time= 0.01 sec
 Commands  initialized (458), CPU time= 0.00 sec, 486 directives.
 Default parameters read. Elapsed time= 0.06 sec

 Checking input...
 Passed
1


                                         ***  PROGRAM SYSTEM MOLPRO  ***
                         Copyright, University College Cardiff Consultants Limited, 2008

                                    Version 2010.1 linked May 16 2016 07:17:05


 **********************************************************************************************************************************
 LABEL *   Optimization of formic acid                                                   
 Linux-4.4.3/n049(x86_64) 64 bit mpp version                                             DATE: 24-Jan-24          TIME: 15:51:45  
 **********************************************************************************************************************************

 SHA1:             9e8077add272b0f3cad6f7df79ec5211205f459d
 **********************************************************************************************************************************

 THRESHOLDS:

 ZERO    =  1.00D-12  ONEINT  =  1.00D-16  TWOINT  =  1.00D-16  PREFAC  =  1.00D-14  LOCALI  =  1.00D-09  EORDER  =  1.00D-04
 ENERGY  =  1.00D-12  ETEST   =  0.00D+00  EDENS   =  0.00D+00  THRDEDEF=  1.00D-06  GRADIENT=  1.00D-02  STEP    =  1.00D-03
 ORBITAL =  1.00D-10  CIVEC   =  1.00D-05  COEFF   =  1.00D-04  PRINTCI =  5.00D-02  PUNCHCI =  9.90D+01  OPTGRAD =  1.00D-06
 OPTENERG=  1.00D-06  OPTSTEP =  3.00D-04  THRGRAD =  1.00D-10  COMPRESS=  1.00D-13  VARMIN  =  1.00D-07  VARMAX  =  1.00D-03
 THRDOUB =  0.00D+00  THRDIV  =  1.00D-05  THRRED  =  1.00D-07  THRPSP  =  1.00D+00  THRDC   =  1.00D-10  THRCS   =  1.00D-10
 THRNRM  =  1.00D-08  THREQ   =  0.00D+00  THRDE   =  1.00D+00  THRREF  =  1.00D-05  SPARFAC =  1.00D+00  THRDLP  =  1.00D-07
 THRDIA  =  1.00D-10  THRDLS  =  1.00D-07  THRGPS  =  0.00D+00  THRKEX  =  0.00D+00  THRDIS  =  2.00D-01  THRVAR  =  1.00D-10
 THRLOC  =  1.00D-06  THRGAP  =  1.00D-06  THRLOCT = -1.00D+00  THRGAPT = -1.00D+00  THRORB  =  1.00D-06  THRMLTP =  0.00D+00
 THRCPQCI=  1.00D-10  KEXTA   =  0.00D+00  THRCOARS=  0.00D+00  SYMTOL  =  1.00D-06  GRADTOL =  1.00D-06  THROVL  =  1.00D-08
 THRORTH =  1.00D-08  GRID    =  1.00D-06  GRIDMAX =  1.00D-03  DTMAX   =  0.00D+00

 SETTING GEOMTYP        =    XYZ
 ZUNIT=BOHR
 

 Variable memory set to 1000000000 words,  buffer space   230000 words

 SETTING BASIS          =    VTZ


 Recomputing integrals since basis changed


 Using spherical harmonics

 Library entry C      S cc-pVTZ              selected for orbital group  1
 Library entry C      P cc-pVTZ              selected for orbital group  1
 Library entry C      D cc-pVTZ              selected for orbital group  1
 Library entry C      F cc-pVTZ              selected for orbital group  1
 Library entry O      S cc-pVTZ              selected for orbital group  2
 Library entry O      P cc-pVTZ              selected for orbital group  2
 Library entry O      D cc-pVTZ              selected for orbital group  2
 Library entry O      F cc-pVTZ              selected for orbital group  2
 Library entry H      S cc-pVTZ              selected for orbital group  3
 Library entry H      P cc-pVTZ              selected for orbital group  3
 Library entry H      D cc-pVTZ              selected for orbital group  3

1PROGRAM * SEWARD (Integral evaluation for generally contracted gaussian basis sets)     Author: Roland Lindh, 1990

 Geometry written to block  1 of record 700


 Point group  Cs  



 ATOMIC COORDINATES

 NR  ATOM    CHARGE       X              Y              Z

   1  C       6.00   -3.492776363   -0.831785754    0.000000000
   2  O       8.00   -3.094188871    1.622927490    0.000000000
   3  O       8.00   -1.884076386   -2.488594347    0.000000000
   4  H       1.00   -5.514380929   -1.263469248    0.000000000
   5  H       1.00   -1.243068546    1.960070898    0.000000000
   6  C       6.00    3.493659931    0.827746929    0.000000000
   7  O       8.00    3.095072440   -1.626966315    0.000000000
   8  O       8.00    1.884959955    2.484555522    0.000000000
   9  H       1.00    5.510846655    1.279624548    0.000000000
  10  H       1.00    1.243952115   -1.964109723    0.000000000

 Bond lengths in Bohr (Angstrom)

 1-2  2.486863305  1-3  2.309313823  1-4  2.067180606  2-5  1.881571719  6-7  2.486863305
     ( 1.315991383)     ( 1.222036243)     ( 1.093904864)     ( 0.995684871)     ( 1.315991383)

  6- 8  2.309313823   6- 9  2.067180606   7-10  1.881571719
       ( 1.222036243)       ( 1.093904864)       ( 0.995684871)

 Bond angles

  1-2-5  109.54509197   2-1-3  126.62105407   2-1-4  111.27661715   3-1-4  122.10232878

  6- 7-10  109.54509197   7- 6- 8  126.62105407   7- 6- 9  111.84957494   8- 6- 9  121.52937098

 NUCLEAR CHARGE:                   48
 NUMBER OF PRIMITIVE AOS:         350
 NUMBER OF SYMMETRY AOS:          316
 NUMBER OF CONTRACTIONS:          236   ( 160A'  +  76A"  )
 NUMBER OF CORE ORBITALS:           6   (   6A'  +   0A"  )
 NUMBER OF VALENCE ORBITALS:       28   (  22A'  +   6A"  )


 NUCLEAR REPULSION ENERGY  235.49968887


 Eigenvalues of metric

         1 0.133E-02 0.142E-02 0.159E-02 0.159E-02 0.224E-02 0.268E-02 0.353E-02 0.360E-02
         2 0.289E-01 0.290E-01 0.387E-01 0.392E-01 0.431E-01 0.439E-01 0.716E-01 0.759E-01


 Contracted 2-electron integrals neglected if value below      1.0D-16
 AO integral compression algorithm  1   Integral accuracy      1.0D-16

     1241.252 MB (compressed) written to integral file ( 72.2%)

     Node minimum: 1241.252 MB, node maximum: 1241.252 MB


 NUMBER OF SORTED TWO-ELECTRON INTEGRALS:  200296481.     BUFFER LENGTH:  32768
 NUMBER OF SEGMENTS:  13  SEGMENT LENGTH:   15999503      RECORD LENGTH: 524288

 Memory used in sort:      16.56 MW

 SORT1 READ   214809325. AND WROTE   182089130. INTEGRALS IN    528 RECORDS. CPU TIME:     2.83 SEC, REAL TIME:     3.83 SEC
 SORT2 READ   182089130. AND WROTE   200296481. INTEGRALS IN   4735 RECORDS. CPU TIME:     1.84 SEC, REAL TIME:     2.53 SEC

 FILE SIZES:   FILE 1:  1207.8 MBYTE,  FILE 4:  2214.6 MBYTE,   TOTAL:   3422.4 MBYTE

 OPERATOR DM      FOR CENTER  0  COORDINATES:    0.000000    0.000000    0.000000


 **********************************************************************************************************************************
 DATASETS  * FILE   NREC   LENGTH (MB)   RECORD NAMES
              1      19     1208.11       500      610      700      900      950      970     1000      129      960     1100   
                                          VAR    BASINP    GEOM    SYMINP    ZMAT    AOBASIS   BASIS     P2S    ABASIS      S 
                                         1400     1410     1200     1210     1080     1600     1650     1300     1700   
                                           T        V       H0       H01     AOSYM     SMH    MOLCAS    ERIS     OPER   

 PROGRAMS   *        TOTAL       INT
 CPU TIMES  *        21.70     21.65
 REAL TIME  *        24.50 SEC
 DISK USED  *         4.66 GB      
 GA USED    *         0.01 MB       (max)       0.00 MB       (current)
 **********************************************************************************************************************************

1PROGRAM * RHF-SCF (CLOSED SHELL)       Authors: W. Meyer, H.-J. Werner


 NUMBER OF ELECTRONS:      24+   24-
 CONVERGENCE THRESHOLDS:    1.00E-10 (Density)    1.00E-13 (Energy)
 MAX. NUMBER OF ITERATIONS:      200
 INTERPOLATION TYPE:            DIIS
 INTERPOLATION STEPS:              2 (START)      1 (STEP)
 LEVEL SHIFTS:                  0.00 (CLOSED)  0.00 (OPEN) 



 Orbital guess generated from atomic densities. Full valence occupancy:   28   6

 Molecular orbital dump at record        2100.2

 Initial alpha occupancy:  20   4
 Initial beta  occupancy:  20   4
 Wave function symmetry:    1

 ITERATION    DDIFF          GRAD             ENERGY        2-EL.EN.            DIPOLE MOMENTS         DIIS
    1      0.000D+00      0.000D+00      -377.56187755    747.140764    0.00081   -0.00108    0.00000    0
    2      0.000D+00      0.668D-02      -377.64939747    744.124359   -0.00028    0.00312    0.00000    1
    3      0.108D-01      0.435D-02      -377.69886513    746.431315    0.00016    0.00136    0.00000    2
    4      0.424D-02      0.582D-03      -377.70040567    746.116569    0.00005    0.00157    0.00000    3
    5      0.801D-03      0.255D-03      -377.70068292    746.155025    0.00005    0.00153    0.00000    4
    6      0.333D-03      0.739D-04      -377.70073065    746.199487    0.00002    0.00154    0.00000    5
    7      0.128D-03      0.319D-04      -377.70074173    746.181968    0.00001    0.00154    0.00000    6
    8      0.703D-04      0.103D-04      -377.70074304    746.187775    0.00000    0.00154    0.00000    7
    9      0.269D-04      0.330D-05      -377.70074316    746.186286    0.00000    0.00154    0.00000    8
   10      0.803D-05      0.992D-06      -377.70074317    746.186485    0.00000    0.00154    0.00000    7
   11      0.269D-05      0.295D-06      -377.70074317    746.186434    0.00000    0.00154    0.00000    8
   12      0.817D-06      0.514D-07      -377.70074317    746.186437    0.00000    0.00154    0.00000    8
   13      0.130D-06      0.186D-07      -377.70074317    746.186435    0.00000    0.00154    0.00000    8
   14      0.291D-07      0.875D-08      -377.70074317    746.186436    0.00000    0.00154    0.00000    8
   15      0.152D-07      0.176D-08      -377.70074317    746.186436    0.00000    0.00154    0.00000    8
   16      0.349D-08      0.739D-09      -377.70074317    746.186436    0.00000    0.00154    0.00000    8
   17      0.107D-08      0.211D-09      -377.70074317    746.186436    0.00000    0.00154    0.00000    8
   18      0.350D-09      0.665D-10      -377.70074317    746.186436    0.00000    0.00154    0.00000    8
   19      0.109D-09      0.242D-10      -377.70074317    746.186436    0.00000    0.00154    0.00000    8
   20      0.435D-10      0.768D-11      -377.70074317    746.186436    0.00000    0.00154    0.00000    8
   21      0.128D-10      0.303D-11      -377.70074317    746.186436    0.00000    0.00154    0.00000    0

 Final occupancy:  20   4

 !RHF STATE 1.1 Energy               -377.700743171925
 Nuclear energy                       235.49968887
 One-electron energy                 -986.29365001
 Two-electron energy                  373.09321797
 Virial quotient                       -1.00167953
 !RHF STATE 1.1 Dipole moment           0.00000157     0.00154061     0.00000000
 Dipole moment /Debye                   0.00000399     0.00391559     0.00000000

 Orbital energies:

         1.1          2.1          3.1          4.1          5.1          6.1          7.1          8.1          9.1         10.1
    -20.614323   -20.614081   -20.573856   -20.573594   -11.406331   -11.406268    -1.482701    -1.469906    -1.385363    -1.371319

        11.1         12.1         13.1         14.1         15.1         16.1         17.1         18.1         19.1         20.1
     -0.917253    -0.881579    -0.767014    -0.731333    -0.722451    -0.693273    -0.619102    -0.579242    -0.496081    -0.472953

        21.1         22.1
      0.164177     0.165026

         1.2          2.2          3.2          4.2          5.2          6.2
     -0.643420    -0.633172    -0.505192    -0.493802     0.147175     0.154309


 **********************************************************************************************************************************
 DATASETS  * FILE   NREC   LENGTH (MB)   RECORD NAMES
              1      19     1208.11       500      610      700      900      950      970     1000      129      960     1100   
                                          VAR    BASINP    GEOM    SYMINP    ZMAT    AOBASIS   BASIS     P2S    ABASIS      S 
                                         1400     1410     1200     1210     1080     1600     1650     1300     1700   
                                           T        V       H0       H01     AOSYM     SMH    MOLCAS    ERIS     OPER   

              2       3        1.08       700     1000     2100   
                                         GEOM     BASIS     RHF  

 PROGRAMS   *        TOTAL       RHF       INT
 CPU TIMES  *        49.61     27.91     21.65
 REAL TIME  *        55.15 SEC
 DISK USED  *         4.66 GB      
 GA USED    *         0.01 MB       (max)       0.00 MB       (current)
 **********************************************************************************************************************************


1PROGRAM * CCSD (Closed-shell coupled cluster)     Authors: C. Hampel, H.-J. Werner, 1991, M. Deegan, P.J. Knowles, 1992


 Convergence thresholds:  THRVAR = 1.00D-08  THRDEN = 1.00D-12

 CCSD(T)     terms to be evaluated (factor= 1.000)


 Number of core orbitals:           6 (   6   0 )
 Number of closed-shell orbitals:  18 (  14   4 )
 Number of external orbitals:     212 ( 140  72 )

 Molecular orbitals read from record     2100.2  Type=RHF/CANONICAL (state 1.1)

 Number of N-1 electron functions:              18
 Number of N-2 electron functions:             171
 Number of singly external CSFs:              2248
 Number of doubly external CSFs:           3757972
 Total number of CSFs:                     3760221

 Length of J-op  integral file:               0.00 MB
 Length of K-op  integral file:               2.20 MB
 Length of 3-ext integral record:             0.00 MB

 Memory could be reduced to 109.30 Mwords without degradation in triples

 Integral transformation finished. Total CPU:   8.70 sec, npass=  1  Memory used:  37.15 MW

 Reference energy:                   -377.70074317

 MP2 singlet pair energy:              -0.77632076
 MP2 triplet pair energy:              -0.49236629
 MP2 correlation energy:               -1.26868706
 MP2 total energy:                   -378.96943023

 SCS-MP2 correlation energy:           -1.23794616   (PS=  1.200000  PT=  0.333333)
 SCS-MP2 total energy:               -378.93868934

 ITER.      SQ.NORM     CORR.ENERGY   TOTAL ENERGY   ENERGY CHANGE        DEN1      VAR(S)    VAR(P)  DIIS     TIME
   1      1.30954405    -1.27605630  -378.97679947    -0.00736924     0.02991475  0.10D-01  0.65D-02  1  1    22.64
   2      1.33265364    -1.27537026  -378.97611343     0.00068604    -0.02910442  0.23D-03  0.93D-03  2  2    36.94
   3      1.34384667    -1.27594733  -378.97669050    -0.00057708    -0.00515063  0.24D-03  0.46D-04  3  3    51.25
   4      1.34911512    -1.27569651  -378.97643968     0.00025082    -0.00196169  0.24D-04  0.88D-05  4  4    65.58
   5      1.35151954    -1.27564513  -378.97638830     0.00005138    -0.00054353  0.25D-05  0.83D-06  5  5    79.91
   6      1.35210327    -1.27559569  -378.97633887     0.00004943    -0.00005464  0.14D-06  0.80D-07  6  6    94.25
   7      1.35219501    -1.27559079  -378.97633396     0.00000490    -0.00000885  0.12D-07  0.12D-07  6  2   108.58
   8      1.35219101    -1.27559203  -378.97633520    -0.00000124     0.00000755  0.26D-08  0.13D-08  6  3   122.92
   9      1.35220030    -1.27559066  -378.97633383     0.00000138    -0.00000279  0.23D-09  0.13D-09  6  1   137.25
  10      1.35219966    -1.27559077  -378.97633394    -0.00000011     0.00000021  0.57D-10  0.25D-10  6  5   151.57
  11      1.35219985    -1.27559080  -378.97633397    -0.00000003     0.00000004  0.13D-10  0.43D-11  6  4   165.90
  12      1.35219958    -1.27559082  -378.97633399    -0.00000002     0.00000010  0.28D-11  0.73D-12  6  6   180.23
  13      1.35219938    -1.27559085  -378.97633402    -0.00000003     0.00000009  0.64D-12  0.16D-12  6  2   194.56
  14      1.35219930    -1.27559085  -378.97633402    -0.00000000     0.00000001  0.85D-13  0.41D-13  6  3   208.84
  15      1.35219927    -1.27559085  -378.97633402    -0.00000000     0.00000000  0.11D-13  0.46D-14  6  1   223.13
  16      1.35219926    -1.27559085  -378.97633402    -0.00000000     0.00000000  0.18D-14  0.87D-15  6  4   237.40
  17      1.35219926    -1.27559085  -378.97633402    -0.00000000    -0.00000000  0.29D-15  0.16D-15  6  5   251.69
  18      1.35219926    -1.27559085  -378.97633402    -0.00000000     0.00000000  0.41D-16  0.20D-16  6  6   265.96
  19      1.35219926    -1.27559085  -378.97633402    -0.00000000    -0.00000000  0.75D-17  0.42D-17  6  2   280.21
  20      1.35219926    -1.27559085  -378.97633402     0.00000000    -0.00000000  0.11D-17  0.59D-18  6  3   294.50
  21      1.35219926    -1.27559085  -378.97633402    -0.00000000     0.00000000  0.17D-18  0.86D-19  6  1   308.77
  22      1.35219926    -1.27559085  -378.97633402     0.00000000    -0.00000000  0.29D-19  0.13D-19  6  4   323.05
  23      1.35219926    -1.27559085  -378.97633402     0.00000000     0.00000000  0.54D-20  0.24D-20  6  2   337.33
  24      1.35219926    -1.27559085  -378.97633402     0.00000000    -0.00000000  0.16D-20  0.35D-21  6  5   351.63

 Norm of t1 vector:      0.14435980      S-energy:     0.00000000      T1 diagnostic:  0.01701297
                                                                       D1 diagnostic:  0.06088523

 Singles amplitudes (print threshold =  0.500E-01):

         I         SYM. A    A   T(IA)

        15         2         1      0.05361297
        16         2         2      0.05562215


 Total CPU time for triples:    396.71 sec


 RESULTS
 =======

  Reference energy                   -377.700743171925
  CCSD singlet pair energy             -0.840680229531
  CCSD triplet pair energy             -0.434910623100
  CCSD correlation energy              -1.275590852627

  Triples (T) contribution             -0.054466345206
  Total correlation energy             -1.330057197833

  CCSD total energy                  -378.976334024552
  CCSD[T] energy                     -379.034215623338
  CCSD-T energy                      -379.029427172654
 !CCSD(T) total energy               -379.030800369758

 Timing summary (sec):

 STEP                 CPU(USER)    SYS     CPU(TOT)    WALL
 Transformation          8.86      0.64      9.50      9.50
 CCSD iterations       342.78      8.21    350.99    351.13
 Triples               396.71      8.23    404.94    405.00

 Program statistics:

 Available memory in ccsd:               999998604
 Min. memory needed in ccsd:               9310224
 Max. memory used in ccsd:                12787052
 Max. memory used in cckext:              12250851 (24 integral passes)



 **********************************************************************************************************************************
 DATASETS  * FILE   NREC   LENGTH (MB)   RECORD NAMES
              1      20     1621.80       500      610      700      900      950      970     1000      129      960     1100   
                                          VAR    BASINP    GEOM    SYMINP    ZMAT    AOBASIS   BASIS     P2S    ABASIS      S 
                                         1400     1410     1200     1210     1080     1600     1650     1300     1700     1380   
                                           T        V       H0       H01     AOSYM     SMH    MOLCAS    ERIS     OPER     JKOP   

              2       3        1.08       700     1000     2100   
                                         GEOM     BASIS     RHF  

 PROGRAMS   *        TOTAL   CCSD(T)       RHF       INT
 CPU TIMES  *       797.98    748.37     27.91     21.65
 REAL TIME  *       820.86 SEC
 DISK USED  *         4.66 GB      
 GA USED    *         0.01 MB       (max)       0.00 MB       (current)
 **********************************************************************************************************************************

        CCSD(T)         RHF-SCF 
   -379.03080037   -377.70074317
 **********************************************************************************************************************************
 Variable memory released
