
 Primary working directories    : /tmp/879303.686.gen4.q
 Secondary working directories  : /tmp/879303.686.gen4.q
 Wavefunction directory         : /home/vulcan/lo21740/wfu/
 Main file repository           : /tmp/879303.686.gen4.q/

 ARCHNAME  : Linux/x86_64
 FC        : /opt/intel/compilers_and_libraries_2016.1.150/linux/bin/intel64/ifort
 FCVERSION : 16.0.1
 BLASLIB   : -mkl
 id        : ccgc

 Nodes     nprocs
 n049         1
 ga_uses_ma=false, calling ma_init with nominal heap.
 GA-space will be limited to   8.0 MW (determined by -G option)

 Using customized tuning parameters: mindgm=10; mindgv=16; mindgc=4; mindgr=1; noblas=0; mincuda=1000; minvec=7
 default implementation of scratch files=df  

 ***,Optimization of formamide
 memory,1000,m
 gthresh,energy=1.0d-12,orbital=1.0d-10,oneint=1.0d-16,twoint=1.0d-16,optgrad=1.0d-6,compress=1.0d-13
 geomtyp=xyz
 
 bohr
 geometry = {
  C   -3.8330318508    0.0858612284   -0.0000000000
  O   -2.7305345431    2.1373781511    0.0000000000
  N   -2.6876918527   -2.1783994577   -0.0000000000
  H   -3.7402689871   -3.7560926458    0.0000000000
  H   -0.7528031377   -2.3021611765   -0.0000000000
  H   -5.9116357930   -0.0201986856   -0.0000000000
  C    3.8325823978   -0.0852047220   -0.0000000000
  O    2.7365231838   -2.1367457589   -0.0000000000
  N    2.6825910366    2.1785445985    0.0000000000
  H    3.7431763615    3.7567258375    0.0000000000
  H    0.7490665521    2.3013552103    0.0000000000
  H    5.9120266325    0.0189374207   -0.0000000000
 }
 
 basis=AVDZ, H=VDZ
 {rhf;maxit,200}
 {ccsd(t);maxit,200}

 Variables initialized (661), CPU time= 0.00 sec
 Commands  initialized (458), CPU time= 0.00 sec, 486 directives.
 Default parameters read. Elapsed time= 0.04 sec

 Checking input...
 Passed
1


                                         ***  PROGRAM SYSTEM MOLPRO  ***
                         Copyright, University College Cardiff Consultants Limited, 2008

                                    Version 2010.1 linked May 16 2016 07:17:05


 **********************************************************************************************************************************
 LABEL *   Optimization of formamide                                                     
 Linux-4.4.3/n049(x86_64) 64 bit mpp version                                             DATE: 23-May-23          TIME: 18:40:53  
 **********************************************************************************************************************************

 SHA1:             9e8077add272b0f3cad6f7df79ec5211205f459d
 **********************************************************************************************************************************

 THRESHOLDS:

 ZERO    =  1.00D-12  ONEINT  =  1.00D-16  TWOINT  =  1.00D-16  PREFAC  =  1.00D-14  LOCALI  =  1.00D-09  EORDER  =  1.00D-04
 ENERGY  =  1.00D-12  ETEST   =  0.00D+00  EDENS   =  0.00D+00  THRDEDEF=  1.00D-06  GRADIENT=  1.00D-02  STEP    =  1.00D-03
 ORBITAL =  1.00D-10  CIVEC   =  1.00D-05  COEFF   =  1.00D-04  PRINTCI =  5.00D-02  PUNCHCI =  9.90D+01  OPTGRAD =  1.00D-06
 OPTENERG=  1.00D-06  OPTSTEP =  3.00D-04  THRGRAD =  1.00D-10  COMPRESS=  1.00D-13  VARMIN  =  1.00D-07  VARMAX  =  1.00D-03
 THRDOUB =  0.00D+00  THRDIV  =  1.00D-05  THRRED  =  1.00D-07  THRPSP  =  1.00D+00  THRDC   =  1.00D-10  THRCS   =  1.00D-10
 THRNRM  =  1.00D-08  THREQ   =  0.00D+00  THRDE   =  1.00D+00  THRREF  =  1.00D-05  SPARFAC =  1.00D+00  THRDLP  =  1.00D-07
 THRDIA  =  1.00D-10  THRDLS  =  1.00D-07  THRGPS  =  0.00D+00  THRKEX  =  0.00D+00  THRDIS  =  2.00D-01  THRVAR  =  1.00D-10
 THRLOC  =  1.00D-06  THRGAP  =  1.00D-06  THRLOCT = -1.00D+00  THRGAPT = -1.00D+00  THRORB  =  1.00D-06  THRMLTP =  0.00D+00
 THRCPQCI=  1.00D-10  KEXTA   =  0.00D+00  THRCOARS=  0.00D+00  SYMTOL  =  1.00D-06  GRADTOL =  1.00D-06  THROVL  =  1.00D-08
 THRORTH =  1.00D-08  GRID    =  1.00D-06  GRIDMAX =  1.00D-03  DTMAX   =  0.00D+00

 SETTING GEOMTYP        =    XYZ
 ZUNIT=BOHR
 

 Variable memory set to 1000000000 words,  buffer space   230000 words

 SETTING BASIS          =    AVDZ,H=VDZ


 Recomputing integrals since basis changed


 Using spherical harmonics

 Library entry C      S aug-cc-pVDZ          selected for orbital group  1
 Library entry C      P aug-cc-pVDZ          selected for orbital group  1
 Library entry C      D aug-cc-pVDZ          selected for orbital group  1
 Library entry O      S aug-cc-pVDZ          selected for orbital group  2
 Library entry O      P aug-cc-pVDZ          selected for orbital group  2
 Library entry O      D aug-cc-pVDZ          selected for orbital group  2
 Library entry N      S aug-cc-pVDZ          selected for orbital group  3
 Library entry N      P aug-cc-pVDZ          selected for orbital group  3
 Library entry N      D aug-cc-pVDZ          selected for orbital group  3
 Library entry H      S cc-pVDZ              selected for orbital group  4
 Library entry H      P cc-pVDZ              selected for orbital group  4

1PROGRAM * SEWARD (Integral evaluation for generally contracted gaussian basis sets)     Author: Roland Lindh, 1990

 Geometry written to block  1 of record 700


 Point group  Cs  



 ATOMIC COORDINATES

 NR  ATOM    CHARGE       X              Y              Z

   1  C       6.00   -3.833031851    0.085861228    0.000000000
   2  O       8.00   -2.730534543    2.137378151    0.000000000
   3  N       7.00   -2.687691853   -2.178399458    0.000000000
   4  H       1.00   -3.740268987   -3.756092646    0.000000000
   5  H       1.00   -0.752803138   -2.302161176    0.000000000
   6  H       1.00   -5.911635793   -0.020198686    0.000000000
   7  C       6.00    3.832582398   -0.085204722    0.000000000
   8  O       8.00    2.736523184   -2.136745759    0.000000000
   9  N       7.00    2.682591037    2.178544598    0.000000000
  10  H       1.00    3.743176362    3.756725837    0.000000000
  11  H       1.00    0.749066552    2.301355210    0.000000000
  12  H       1.00    5.912026632    0.018937421    0.000000000

 Bond lengths in Bohr (Angstrom)

 1-2  2.328995920  1-3  2.537455451  1-6  2.081308015  3-4  1.896584936  3-5  1.938842774
     ( 1.232451561)     ( 1.342763594)     ( 1.101380767)     ( 1.003629523)     ( 1.025991408)

  7- 8  2.325976446   7- 9  2.539102423   7-12  2.082050410   9-10  1.901446096   9-11  1.937420806
       ( 1.230853724)       ( 1.343635134)       ( 1.101773625)       ( 1.006201938)       ( 1.025238935)

 Bond angles

  1-3-4  119.45844741   1-3-5  120.49167370   2-1-3  124.91431668   2-1-6  121.17480713

  3- 1- 6  113.91087619   4- 3- 5  120.04987888   7- 9-10  119.16700600   7- 9-11  120.56504684

  8- 7- 9  124.95542529   8- 7-12  120.98094597   9- 7-12  114.06362875  10- 9-11  120.26794716

 NUCLEAR CHARGE:                   48
 NUMBER OF PRIMITIVE AOS:         264
 NUMBER OF SYMMETRY AOS:          252
 NUMBER OF CONTRACTIONS:          168   ( 120A'  +  48A"  )
 NUMBER OF CORE ORBITALS:           6   (   6A'  +   0A"  )
 NUMBER OF VALENCE ORBITALS:       30   (  24A'  +   6A"  )


 NUCLEAR REPULSION ENERGY  230.37991424


 Eigenvalues of metric

         1 0.418E-03 0.626E-03 0.115E-02 0.135E-02 0.162E-02 0.169E-02 0.367E-02 0.438E-02
         2 0.210E-01 0.257E-01 0.335E-01 0.382E-01 0.524E-01 0.593E-01 0.104E+00 0.140E+00


 Contracted 2-electron integrals neglected if value below      1.0D-16
 AO integral compression algorithm  1   Integral accuracy      1.0D-16

     435.683 MB (compressed) written to integral file ( 92.6%)

     Node minimum: 435.683 MB, node maximum: 435.683 MB


 NUMBER OF SORTED TWO-ELECTRON INTEGRALS:   52662786.     BUFFER LENGTH:  32768
 NUMBER OF SEGMENTS:   4  SEGMENT LENGTH:   15997996      RECORD LENGTH: 524288

 Memory used in sort:      16.56 MW

 SORT1 READ    58796158. AND WROTE    51990862. INTEGRALS IN    151 RECORDS. CPU TIME:     0.67 SEC, REAL TIME:     0.99 SEC
 SORT2 READ    51990862. AND WROTE    52662786. INTEGRALS IN   1662 RECORDS. CPU TIME:     0.46 SEC, REAL TIME:     0.69 SEC

 FILE SIZES:   FILE 1:   399.6 MBYTE,  FILE 4:   633.4 MBYTE,   TOTAL:   1033.0 MBYTE

 OPERATOR DM      FOR CENTER  0  COORDINATES:    0.000000    0.000000    0.000000


 **********************************************************************************************************************************
 DATASETS  * FILE   NREC   LENGTH (MB)   RECORD NAMES
              1      19      399.77       500      610      700      900      950      970     1000      129      960     1100   
                                          VAR    BASINP    GEOM    SYMINP    ZMAT    AOBASIS   BASIS     P2S    ABASIS      S 
                                         1400     1410     1200     1210     1080     1600     1650     1300     1700   
                                           T        V       H0       H01     AOSYM     SMH    MOLCAS    ERIS     OPER   

 PROGRAMS   *        TOTAL       INT
 CPU TIMES  *         6.01      5.98
 REAL TIME  *         6.96 SEC
 DISK USED  *         1.47 GB      
 GA USED    *         0.00 MB       (max)       0.00 MB       (current)
 **********************************************************************************************************************************

1PROGRAM * RHF-SCF (CLOSED SHELL)       Authors: W. Meyer, H.-J. Werner


 NUMBER OF ELECTRONS:      24+   24-
 CONVERGENCE THRESHOLDS:    1.00E-10 (Density)    1.00E-13 (Energy)
 MAX. NUMBER OF ITERATIONS:      200
 INTERPOLATION TYPE:            DIIS
 INTERPOLATION STEPS:              2 (START)      1 (STEP)
 LEVEL SHIFTS:                  0.00 (CLOSED)  0.00 (OPEN) 



 Orbital guess generated from atomic densities. Full valence occupancy:   30   6

 Molecular orbital dump at record        2100.2

 Initial alpha occupancy:  20   4
 Initial beta  occupancy:  20   4
 Wave function symmetry:    1

 ITERATION    DDIFF          GRAD             ENERGY        2-EL.EN.            DIPOLE MOMENTS         DIIS
    1      0.000D+00      0.000D+00      -337.80356518    704.443471   -0.00693   -0.00576    0.00000    0
    2      0.000D+00      0.835D-02      -337.88100567    698.828441   -0.00526   -0.00434    0.00000    1
    3      0.160D-01      0.609D-02      -337.93901264    701.576041   -0.00648   -0.00554    0.00000    2
    4      0.632D-02      0.802D-03      -337.94122351    701.479370   -0.00609   -0.00510    0.00000    3
    5      0.139D-02      0.276D-03      -337.94149100    701.413600   -0.00625   -0.00549    0.00000    4
    6      0.498D-03      0.907D-04      -337.94155217    701.439327   -0.00617   -0.00534    0.00000    5
    7      0.216D-03      0.402D-04      -337.94156311    701.430371   -0.00621   -0.00548    0.00000    6
    8      0.107D-03      0.119D-04      -337.94156405    701.435949   -0.00617   -0.00535    0.00000    7
    9      0.329D-04      0.369D-05      -337.94156412    701.433549   -0.00621   -0.00548    0.00000    8
   10      0.885D-05      0.135D-05      -337.94156413    701.433937   -0.00618   -0.00538    0.00000    7
   11      0.374D-05      0.510D-06      -337.94156413    701.434004   -0.00619   -0.00544    0.00000    8
   12      0.843D-06      0.189D-06      -337.94156413    701.433955   -0.00619   -0.00543    0.00000    9
   13      0.408D-06      0.264D-07      -337.94156413    701.433957   -0.00619   -0.00543    0.00000    8
   14      0.740D-07      0.886D-08      -337.94156413    701.433960   -0.00619   -0.00543    0.00000    7
   15      0.262D-07      0.368D-08      -337.94156413    701.433959   -0.00619   -0.00543    0.00000    8
   16      0.806D-08      0.584D-09      -337.94156413    701.433959   -0.00619   -0.00543    0.00000    8
   17      0.131D-08      0.146D-09      -337.94156413    701.433959   -0.00619   -0.00543    0.00000    7
   18      0.311D-09      0.600D-10      -337.94156413    701.433959   -0.00619   -0.00543    0.00000    7
   19      0.119D-09      0.150D-10      -337.94156413    701.433959   -0.00619   -0.00543    0.00000    7
   20      0.287D-10      0.651D-11      -337.94156413    701.433959   -0.00619   -0.00543    0.00000    7
   21      0.147D-10      0.256D-11      -337.94156413    701.433959   -0.00619   -0.00543    0.00000    8
   22      0.639D-11      0.874D-12      -337.94156413    701.433959   -0.00619   -0.00543    0.00000    7
   23      0.263D-11      0.353D-12      -337.94156413    701.433959   -0.00619   -0.00543    0.00000    8
   24      0.198D-11      0.185D-12      -337.94156413    701.433959   -0.00619   -0.00543    0.00000    9
   25      0.158D-11      0.795D-13      -337.94156413    701.433959   -0.00619   -0.00543    0.00000    9
   26      0.125D-11      0.816D-13      -337.94156413    701.433959   -0.00619   -0.00543    0.00000    9
   27      0.758D-12      0.631D-13      -337.94156413    701.433959   -0.00619   -0.00543    0.00000    9
   28      0.480D-12      0.521D-13      -337.94156413    701.433959   -0.00619   -0.00543    0.00000    9
   29      0.309D-12      0.869D-13      -337.94156413    701.433959   -0.00619   -0.00543    0.00000    9
   30      0.634D-13      0.689D-13      -337.94156413    701.433959   -0.00619   -0.00543    0.00000    9
   31      0.186D-12      0.659D-13      -337.94156413    701.433959   -0.00619   -0.00543    0.00000    9
   32      0.187D-12      0.688D-13      -337.94156413    701.433959   -0.00619   -0.00543    0.00000    9
   33      0.286D-12      0.587D-13      -337.94156413    701.433959   -0.00619   -0.00543    0.00000    0

 Final occupancy:  20   4

 !RHF STATE 1.1 Energy               -337.941564133028
 Nuclear energy                       230.37991424
 One-electron energy                 -919.03845787
 Two-electron energy                  350.71697949
 Virial quotient                       -1.00180946
 !RHF STATE 1.1 Dipole moment          -0.00618948    -0.00542765     0.00000000
 Dipole moment /Debye                  -0.01573107    -0.01379479     0.00000000

 Orbital energies:

         1.1          2.1          3.1          4.1          5.1          6.1          7.1          8.1          9.1         10.1
    -20.540811   -20.540682   -15.589796   -15.589378   -11.368783   -11.368324    -1.389131    -1.384385    -1.218198    -1.211981

        11.1         12.1         13.1         14.1         15.1         16.1         17.1         18.1         19.1         20.1
     -0.860415    -0.835337    -0.749578    -0.740570    -0.705347    -0.644759    -0.618999    -0.593314    -0.454215    -0.429118

        21.1         22.1
      0.067993     0.068850

         1.2          2.2          3.2          4.2          5.2          6.2
     -0.573620    -0.565625    -0.420193    -0.409689     0.093985     0.104077


 **********************************************************************************************************************************
 DATASETS  * FILE   NREC   LENGTH (MB)   RECORD NAMES
              1      19      399.77       500      610      700      900      950      970     1000      129      960     1100   
                                          VAR    BASINP    GEOM    SYMINP    ZMAT    AOBASIS   BASIS     P2S    ABASIS      S 
                                         1400     1410     1200     1210     1080     1600     1650     1300     1700   
                                           T        V       H0       H01     AOSYM     SMH    MOLCAS    ERIS     OPER   

              2       3        0.80       700     1000     2100   
                                         GEOM     BASIS     RHF  

 PROGRAMS   *        TOTAL       RHF       INT
 CPU TIMES  *        16.40     10.39      5.98
 REAL TIME  *        18.85 SEC
 DISK USED  *         1.47 GB      
 GA USED    *         0.00 MB       (max)       0.00 MB       (current)
 **********************************************************************************************************************************


1PROGRAM * CCSD (Closed-shell coupled cluster)     Authors: C. Hampel, H.-J. Werner, 1991, M. Deegan, P.J. Knowles, 1992


 Convergence thresholds:  THRVAR = 1.00D-08  THRDEN = 1.00D-12

 CCSD(T)     terms to be evaluated (factor= 1.000)


 Number of core orbitals:           6 (   6   0 )
 Number of closed-shell orbitals:  18 (  14   4 )
 Number of external orbitals:     144 ( 100  44 )

 Molecular orbitals read from record     2100.2  Type=RHF/CANONICAL (state 1.1)

 Number of N-1 electron functions:              18
 Number of N-2 electron functions:             171
 Number of singly external CSFs:              1576
 Number of doubly external CSFs:           1759312
 Total number of CSFs:                     1760889

 Length of J-op  integral file:               0.00 MB
 Length of K-op  integral file:               1.19 MB
 Length of 3-ext integral record:             0.00 MB

 Memory could be reduced to 36.48 Mwords without degradation in triples

 Integral transformation finished. Total CPU:   2.04 sec, npass=  1  Memory used:  15.90 MW

 Reference energy:                   -337.94156413

 MP2 singlet pair energy:              -0.61972476
 MP2 triplet pair energy:              -0.40489241
 MP2 correlation energy:               -1.02461717
 MP2 total energy:                   -338.96618130

 SCS-MP2 correlation energy:           -0.99560277   (PS=  1.200000  PT=  0.333333)
 SCS-MP2 total energy:               -338.93716690

 ITER.      SQ.NORM     CORR.ENERGY   TOTAL ENERGY   ENERGY CHANGE        DEN1      VAR(S)    VAR(P)  DIIS     TIME
   1      1.31890169    -1.05330817  -338.99487231    -0.02869100     0.00244903  0.10D-01  0.60D-02  1  1     6.78
   2      1.34437678    -1.05525638  -338.99682052    -0.00194821    -0.02588361  0.22D-03  0.11D-02  2  2    11.66
   3      1.35698182    -1.05615391  -338.99771804    -0.00089752    -0.00555573  0.22D-03  0.51D-04  3  3    16.54
   4      1.36218648    -1.05588994  -338.99745407     0.00026397    -0.00168791  0.21D-04  0.93D-05  4  4    21.43
   5      1.36431308    -1.05583362  -338.99739775     0.00005632    -0.00044298  0.26D-05  0.11D-05  5  5    26.32
   6      1.36482269    -1.05580415  -338.99736828     0.00002947    -0.00004761  0.24D-06  0.17D-06  6  6    31.20
   7      1.36495050    -1.05579218  -338.99735632     0.00001196    -0.00000768  0.31D-07  0.22D-07  6  2    36.09
   8      1.36497460    -1.05579204  -338.99735618     0.00000014     0.00000001  0.57D-08  0.26D-08  6  1    40.98
   9      1.36497694    -1.05579174  -338.99735588     0.00000030     0.00000184  0.92D-09  0.46D-09  6  4    45.88
  10      1.36498103    -1.05579169  -338.99735582     0.00000006    -0.00000044  0.25D-09  0.46D-10  6  3    50.77
  11      1.36498124    -1.05579176  -338.99735590    -0.00000008     0.00000016  0.38D-10  0.11D-10  6  5    55.66
  12      1.36498105    -1.05579178  -338.99735591    -0.00000002     0.00000008  0.52D-11  0.26D-11  6  6    60.56
  13      1.36498075    -1.05579182  -338.99735595    -0.00000004     0.00000013  0.80D-12  0.34D-12  6  2    65.46
  14      1.36498060    -1.05579183  -338.99735596    -0.00000001     0.00000004  0.11D-12  0.68D-13  6  1    70.35
  15      1.36498053    -1.05579183  -338.99735596    -0.00000000     0.00000001  0.21D-13  0.13D-13  6  4    75.24
  16      1.36498050    -1.05579183  -338.99735597    -0.00000000     0.00000000  0.38D-14  0.21D-14  6  3    80.11
  17      1.36498049    -1.05579183  -338.99735597    -0.00000000    -0.00000000  0.95D-15  0.35D-15  6  5    84.99
  18      1.36498049    -1.05579183  -338.99735597    -0.00000000     0.00000000  0.13D-15  0.85D-16  6  6    89.86
  19      1.36498049    -1.05579183  -338.99735597    -0.00000000     0.00000000  0.36D-16  0.14D-16  6  2    94.75
  20      1.36498049    -1.05579183  -338.99735597    -0.00000000     0.00000000  0.68D-17  0.24D-17  6  1    99.64
  21      1.36498048    -1.05579183  -338.99735597    -0.00000000     0.00000000  0.13D-17  0.68D-18  6  4   104.53
  22      1.36498048    -1.05579183  -338.99735597    -0.00000000     0.00000000  0.39D-18  0.17D-18  6  3   109.42
  23      1.36498048    -1.05579183  -338.99735597    -0.00000000     0.00000000  0.10D-18  0.29D-19  6  5   114.29
  24      1.36498048    -1.05579183  -338.99735597    -0.00000000    -0.00000000  0.24D-19  0.99D-20  6  1   119.18
  25      1.36498048    -1.05579183  -338.99735597     0.00000000    -0.00000000  0.44D-20  0.12D-20  6  6   124.07

 Norm of t1 vector:      0.14810559      S-energy:    -0.00000000      T1 diagnostic:  0.01745441
                                                                       D1 diagnostic:  0.05910082


 Total CPU time for triples:    112.05 sec


 RESULTS
 =======

  Reference energy                   -337.941564133029
  CCSD singlet pair energy             -0.696892449215
  CCSD triplet pair energy             -0.358899385299
  CCSD correlation energy              -1.055791834515

  Triples (T) contribution             -0.039305217973
  Total correlation energy             -1.095097052488

  CCSD total energy                  -338.997355967544
  CCSD[T] energy                     -339.039861589952
  CCSD-T energy                      -339.035563243205
 !CCSD(T) total energy               -339.036661185517

 Timing summary (sec):

 STEP                 CPU(USER)    SYS     CPU(TOT)    WALL
 Transformation          2.10      0.24      2.34      2.35
 CCSD iterations       121.97      3.44    125.41    126.75
 Triples               112.05      2.75    114.80    114.81

 Program statistics:

 Available memory in ccsd:               999998604
 Min. memory needed in ccsd:               4522204
 Max. memory used in ccsd:                 6130884
 Max. memory used in cckext:               6038575 (25 integral passes)



 **********************************************************************************************************************************
 DATASETS  * FILE   NREC   LENGTH (MB)   RECORD NAMES
              1      20      543.98       500      610      700      900      950      970     1000      129      960     1100   
                                          VAR    BASINP    GEOM    SYMINP    ZMAT    AOBASIS   BASIS     P2S    ABASIS      S 
                                         1400     1410     1200     1210     1080     1600     1650     1300     1700     1380   
                                           T        V       H0       H01     AOSYM     SMH    MOLCAS    ERIS     OPER     JKOP   

              2       3        0.80       700     1000     2100   
                                         GEOM     BASIS     RHF  

 PROGRAMS   *        TOTAL   CCSD(T)       RHF       INT
 CPU TIMES  *       252.54    236.14     10.39      5.98
 REAL TIME  *       262.82 SEC
 DISK USED  *         1.47 GB      
 GA USED    *         0.00 MB       (max)       0.00 MB       (current)
 **********************************************************************************************************************************

        CCSD(T)         RHF-SCF 
   -339.03666119   -337.94156413
 **********************************************************************************************************************************
 Variable memory released
