
 Primary working directories    : /tmp/943183.295.gen6.q
 Secondary working directories  : /tmp/943183.295.gen6.q
 Wavefunction directory         : /home/vulcan/mel64643/wfu/
 Main file repository           : /tmp/943183.295.gen6.q/

 ARCHNAME  : Linux/x86_64
 FC        : /opt/intel/compilers_and_libraries_2016.1.150/linux/bin/intel64/ifort
 FCVERSION : 16.0.1
 BLASLIB   : -mkl
 id        : ccgc

 Nodes     nprocs
 n091         1
 ga_uses_ma=false, calling ma_init with nominal heap.
 GA-space will be limited to   8.0 MW (determined by -G option)

 Using customized tuning parameters: mindgm=10; mindgv=16; mindgc=4; mindgr=1; noblas=0; mincuda=1000; minvec=7
 default implementation of scratch files=df  

 ***,Optimization of h2o_2
 memory,1000,m
 gthresh,energy=1.0d-12,orbital=1.0d-10,oneint=1.0d-16,twoint=1.0d-16,optgrad=1.0d-6,compress=1.0d-13
 geomtyp=xyz
 
 bohr
 geometry = {
  C   -0.0009537794   -3.4210796939    0.0003811570
  H   -0.9738434205   -2.7310622365   -1.6790286623
  H   -0.9689002311   -2.7314937104    1.6828218021
  H    1.9400725669   -2.7315425143   -0.0023843865
  H   -0.0011433482   -5.4808915262    0.0001170709
  C    0.0018766991    3.4224177475    0.0012553179
  H   -0.0088972444    5.4772002932    0.0033479706
  H    0.9807924511    2.7378692426   -1.6830239510
  H    0.9711419898    2.7377432165    1.6788212900
  H   -1.9401456831    2.7208391815   -0.0023076086
 }
 
 basis=AVDZ, H=VDZ
 {rhf;maxit,200}
 {ccsd(t);maxit,200}

 Variables initialized (661), CPU time= 0.01 sec
 Commands  initialized (458), CPU time= 0.00 sec, 486 directives.
 Default parameters read. Elapsed time= 0.05 sec

 Checking input...
 Passed
1


                                         ***  PROGRAM SYSTEM MOLPRO  ***
                         Copyright, University College Cardiff Consultants Limited, 2008

                                    Version 2010.1 linked May 16 2016 07:17:05


 **********************************************************************************************************************************
 LABEL *   Optimization of h2o_2                                                         
 Linux-4.4.3/n091(x86_64) 64 bit mpp version                                             DATE: 23-Oct-23          TIME: 11:49:48  
 **********************************************************************************************************************************

 SHA1:             9e8077add272b0f3cad6f7df79ec5211205f459d
 **********************************************************************************************************************************

 THRESHOLDS:

 ZERO    =  1.00D-12  ONEINT  =  1.00D-16  TWOINT  =  1.00D-16  PREFAC  =  1.00D-14  LOCALI  =  1.00D-09  EORDER  =  1.00D-04
 ENERGY  =  1.00D-12  ETEST   =  0.00D+00  EDENS   =  0.00D+00  THRDEDEF=  1.00D-06  GRADIENT=  1.00D-02  STEP    =  1.00D-03
 ORBITAL =  1.00D-10  CIVEC   =  1.00D-05  COEFF   =  1.00D-04  PRINTCI =  5.00D-02  PUNCHCI =  9.90D+01  OPTGRAD =  1.00D-06
 OPTENERG=  1.00D-06  OPTSTEP =  3.00D-04  THRGRAD =  1.00D-10  COMPRESS=  1.00D-13  VARMIN  =  1.00D-07  VARMAX  =  1.00D-03
 THRDOUB =  0.00D+00  THRDIV  =  1.00D-05  THRRED  =  1.00D-07  THRPSP  =  1.00D+00  THRDC   =  1.00D-10  THRCS   =  1.00D-10
 THRNRM  =  1.00D-08  THREQ   =  0.00D+00  THRDE   =  1.00D+00  THRREF  =  1.00D-05  SPARFAC =  1.00D+00  THRDLP  =  1.00D-07
 THRDIA  =  1.00D-10  THRDLS  =  1.00D-07  THRGPS  =  0.00D+00  THRKEX  =  0.00D+00  THRDIS  =  2.00D-01  THRVAR  =  1.00D-10
 THRLOC  =  1.00D-06  THRGAP  =  1.00D-06  THRLOCT = -1.00D+00  THRGAPT = -1.00D+00  THRORB  =  1.00D-06  THRMLTP =  0.00D+00
 THRCPQCI=  1.00D-10  KEXTA   =  0.00D+00  THRCOARS=  0.00D+00  SYMTOL  =  1.00D-06  GRADTOL =  1.00D-06  THROVL  =  1.00D-08
 THRORTH =  1.00D-08  GRID    =  1.00D-06  GRIDMAX =  1.00D-03  DTMAX   =  0.00D+00

 SETTING GEOMTYP        =    XYZ
 ZUNIT=BOHR
 

 Variable memory set to 1000000000 words,  buffer space   230000 words

 SETTING BASIS          =    AVDZ,H=VDZ


 Recomputing integrals since basis changed


 Using spherical harmonics

 Library entry C      S aug-cc-pVDZ          selected for orbital group  1
 Library entry C      P aug-cc-pVDZ          selected for orbital group  1
 Library entry C      D aug-cc-pVDZ          selected for orbital group  1
 Library entry H      S cc-pVDZ              selected for orbital group  2
 Library entry H      P cc-pVDZ              selected for orbital group  2

1PROGRAM * SEWARD (Integral evaluation for generally contracted gaussian basis sets)     Author: Roland Lindh, 1990

 Geometry written to block  1 of record 700


 Point group  C1  



 ATOMIC COORDINATES

 NR  ATOM    CHARGE       X              Y              Z

   1  C       6.00   -0.000953779   -3.421079694    0.000381157
   2  H       1.00   -0.973843420   -2.731062237   -1.679028662
   3  H       1.00   -0.968900231   -2.731493710    1.682821802
   4  H       1.00    1.940072567   -2.731542514   -0.002384386
   5  H       1.00   -0.001143348   -5.480891526    0.000117071
   6  C       6.00    0.001876699    3.422417747    0.001255318
   7  H       1.00   -0.008897244    5.477200293    0.003347971
   8  H       1.00    0.980792451    2.737869243   -1.683023951
   9  H       1.00    0.971141990    2.737743217    1.678821290
  10  H       1.00   -1.940145683    2.720839182   -0.002307609

 Bond lengths in Bohr (Angstrom)

 1-2  2.059867881  1-3  2.059867881  1-4  2.059867095  1-5  2.059811858  6-7  2.054811857
     ( 1.090035136)     ( 1.090035136)     ( 1.090034720)     ( 1.090005490)     ( 1.087359603)

  6- 8  2.064867880   6- 9  2.054867881   6-10  2.064867093
       ( 1.092681022)       ( 1.087389250)       ( 1.092680605)

 Bond angles

  2-1-3  109.37992579   2-1-4  109.37980975   2-1-5  109.56240831   3-1-4  109.37980975

  3-1-5  109.56240831   4-1-5  109.56250040   7-6-8  109.56240824   7-6-9  109.56240830

  7- 6-10  109.56250047   8- 6- 9  109.37992581   8- 6-10  109.37980975   9- 6-10  109.37980975

 NUCLEAR CHARGE:                   20
 NUMBER OF PRIMITIVE AOS:         130
 NUMBER OF SYMMETRY AOS:          126
 NUMBER OF CONTRACTIONS:           86   (  86A   )
 NUMBER OF CORE ORBITALS:           2   (   2A   )
 NUMBER OF VALENCE ORBITALS:       16   (  16A   )


 NUCLEAR REPULSION ENERGY   41.34271226


 Eigenvalues of metric

         1 0.535E-02 0.665E-02 0.904E-02 0.114E-01 0.117E-01 0.118E-01 0.140E-01 0.141E-01


 Contracted 2-electron integrals neglected if value below      1.0D-16
 AO integral compression algorithm  1   Integral accuracy      1.0D-16

     57.410 MB (compressed) written to integral file ( 87.4%)

     Node minimum: 57.410 MB, node maximum: 57.410 MB


 NUMBER OF SORTED TWO-ELECTRON INTEGRALS:    6999411.     BUFFER LENGTH:  32768
 NUMBER OF SEGMENTS:   1  SEGMENT LENGTH:    6999411      RECORD LENGTH: 524288

 Memory used in sort:       7.56 MW

 SORT1 READ     8242194. AND WROTE     6851273. INTEGRALS IN     20 RECORDS. CPU TIME:     0.07 SEC, REAL TIME:     0.11 SEC
 SORT2 READ     6851273. AND WROTE     6999411. INTEGRALS IN    219 RECORDS. CPU TIME:     0.07 SEC, REAL TIME:     0.11 SEC

 FILE SIZES:   FILE 1:    52.0 MBYTE,  FILE 4:    83.9 MBYTE,   TOTAL:    135.9 MBYTE

 OPERATOR DM      FOR CENTER  0  COORDINATES:    0.000000    0.000000    0.000000


 **********************************************************************************************************************************
 DATASETS  * FILE   NREC   LENGTH (MB)   RECORD NAMES
              1      19       52.06       500      610      700      900      950      970     1000      129      960     1100   
                                          VAR    BASINP    GEOM    SYMINP    ZMAT    AOBASIS   BASIS     P2S    ABASIS      S 
                                         1400     1410     1200     1210     1080     1600     1650     1300     1700   
                                           T        V       H0       H01     AOSYM     SMH    MOLCAS    ERIS     OPER   

 PROGRAMS   *        TOTAL       INT
 CPU TIMES  *         0.60      0.56
 REAL TIME  *         0.91 SEC
 DISK USED  *       194.07 MB      
 GA USED    *         0.00 MB       (max)       0.00 MB       (current)
 **********************************************************************************************************************************

1PROGRAM * RHF-SCF (CLOSED SHELL)       Authors: W. Meyer, H.-J. Werner


 NUMBER OF ELECTRONS:      10+   10-    SPACE SYMMETRY=1    SPIN SYMMETRY: Singlet 
 CONVERGENCE THRESHOLDS:    1.00E-10 (Density)    1.00E-13 (Energy)
 MAX. NUMBER OF ITERATIONS:      200
 INTERPOLATION TYPE:            DIIS
 INTERPOLATION STEPS:              2 (START)      1 (STEP)
 LEVEL SHIFTS:                  0.00 (CLOSED)  0.00 (OPEN) 



 Orbital guess generated from atomic densities. Full valence occupancy:   18

 Molecular orbital dump at record        2100.2

 ITERATION    DDIFF          GRAD             ENERGY        2-EL.EN.            DIPOLE MOMENTS         DIIS
    1      0.000D+00      0.000D+00       -80.36118423    134.781508   -0.00116   -0.00166   -0.00208    0
    2      0.000D+00      0.502D-02       -80.39312434    132.493516    0.00070    0.00084    0.00110    1
    3      0.106D-01      0.186D-02       -80.39707826    133.314264    0.00059    0.00092    0.00098    2
    4      0.347D-02      0.507D-03       -80.39766188    133.182010    0.00075    0.00124    0.00128    3
    5      0.114D-02      0.611D-04       -80.39766969    133.189408    0.00077    0.00128    0.00132    4
    6      0.162D-03      0.345D-05       -80.39766973    133.189239    0.00077    0.00129    0.00132    5
    7      0.156D-04      0.267D-06       -80.39766973    133.189229    0.00077    0.00129    0.00132    5
    8      0.864D-06      0.479D-07       -80.39766973    133.189229    0.00077    0.00129    0.00132    4
    9      0.114D-06      0.815D-08       -80.39766973    133.189231    0.00077    0.00129    0.00132    4
   10      0.235D-07      0.125D-08       -80.39766973    133.189231    0.00077    0.00129    0.00132    5
   11      0.287D-08      0.349D-09       -80.39766973    133.189231    0.00077    0.00129    0.00132    5
   12      0.808D-09      0.103D-09       -80.39766973    133.189231    0.00077    0.00129    0.00132    6
   13      0.255D-09      0.177D-10       -80.39766973    133.189231    0.00077    0.00129    0.00132    6
   14      0.475D-10      0.357D-11       -80.39766973    133.189231    0.00077    0.00129    0.00132    6
   15      0.142D-10      0.459D-12       -80.39766973    133.189231    0.00077    0.00129    0.00132    6
   16      0.153D-11      0.117D-12       -80.39766973    133.189231    0.00077    0.00129    0.00132    6
   17      0.285D-12      0.359D-13       -80.39766973    133.189231    0.00077    0.00129    0.00132    6
   18      0.121D-12      0.143D-13       -80.39766973    133.189231    0.00077    0.00129    0.00132    0

 Final occupancy:  10

 !RHF STATE 1.1 Energy                -80.397669726634
 Nuclear energy                        41.34271226
 One-electron energy                 -188.33499734
 Two-electron energy                   66.59461535
 Virial quotient                       -1.00212432
 !RHF STATE 1.1 Dipole moment           0.00076860     0.00129129     0.00132320
 Dipole moment /Debye                   0.00195346     0.00328193     0.00336303

 Orbital energies:

         1.1          2.1          3.1          4.1          5.1          6.1          7.1          8.1          9.1         10.1
    -11.215478   -11.215452    -0.945465    -0.939586    -0.551069    -0.546489    -0.545963    -0.539133    -0.538495    -0.535753

        11.1         12.1
      0.080164     0.084202


 **********************************************************************************************************************************
 DATASETS  * FILE   NREC   LENGTH (MB)   RECORD NAMES
              1      19       52.06       500      610      700      900      950      970     1000      129      960     1100   
                                          VAR    BASINP    GEOM    SYMINP    ZMAT    AOBASIS   BASIS     P2S    ABASIS      S 
                                         1400     1410     1200     1210     1080     1600     1650     1300     1700   
                                           T        V       H0       H01     AOSYM     SMH    MOLCAS    ERIS     OPER   

              2       3        0.57       700     1000     2100   
                                         GEOM     BASIS     RHF  

 PROGRAMS   *        TOTAL       RHF       INT
 CPU TIMES  *         1.42      0.82      0.56
 REAL TIME  *         1.83 SEC
 DISK USED  *       194.07 MB      
 GA USED    *         0.00 MB       (max)       0.00 MB       (current)
 **********************************************************************************************************************************


1PROGRAM * CCSD (Closed-shell coupled cluster)     Authors: C. Hampel, H.-J. Werner, 1991, M. Deegan, P.J. Knowles, 1992


 Convergence thresholds:  THRVAR = 1.00D-08  THRDEN = 1.00D-12

 CCSD(T)     terms to be evaluated (factor= 1.000)


 Number of core orbitals:           2 (   2 )
 Number of closed-shell orbitals:   8 (   8 )
 Number of external orbitals:      76 (  76 )

 Molecular orbitals read from record     2100.2  Type=RHF/CANONICAL (state 1.1)

 Number of N-1 electron functions:               8
 Number of N-2 electron functions:              36
 Number of singly external CSFs:               608
 Number of doubly external CSFs:            185136
 Total number of CSFs:                      185745

 Length of J-op  integral file:               0.00 MB
 Length of K-op  integral file:               0.54 MB
 Length of 3-ext integral record:             0.00 MB

 Memory could be reduced to 5.45 Mwords without degradation in triples

 Integral transformation finished. Total CPU:   0.17 sec, npass=  1  Memory used:   3.53 MW

 Reference energy:                    -80.39766973

 MP2 singlet pair energy:              -0.23821343
 MP2 triplet pair energy:              -0.09578825
 MP2 correlation energy:               -0.33400169
 MP2 total energy:                    -80.73167141

 SCS-MP2 correlation energy:           -0.34545770   (PS=  1.200000  PT=  0.333333)
 SCS-MP2 total energy:                -80.74312743

 ITER.      SQ.NORM     CORR.ENERGY   TOTAL ENERGY   ENERGY CHANGE        DEN1      VAR(S)    VAR(P)  DIIS     TIME
   1      1.13988427    -0.37811973   -80.77578946    -0.04411804    -0.03297270  0.68D-03  0.24D-02  1  1     0.42
   2      1.15302710    -0.38091316   -80.77858288    -0.00279343    -0.01280919  0.15D-04  0.11D-03  2  2     0.68
   3      1.15509802    -0.38105134   -80.77872107    -0.00013819    -0.00107882  0.24D-05  0.62D-05  3  3     0.95
   4      1.15552626    -0.38106897   -80.77873870    -0.00001763    -0.00017351  0.60D-07  0.37D-06  4  4     1.21
   5      1.15558686    -0.38106502   -80.77873475     0.00000396    -0.00002813  0.29D-08  0.21D-07  5  5     1.48
   6      1.15558910    -0.38106438   -80.77873410     0.00000064    -0.00000061  0.19D-09  0.15D-08  6  6     1.75
   7      1.15558926    -0.38106465   -80.77873438    -0.00000028     0.00000005  0.15D-10  0.95D-10  6  1     2.02
   8      1.15558933    -0.38106467   -80.77873439    -0.00000001    -0.00000009  0.18D-11  0.64D-11  6  2     2.28
   9      1.15558924    -0.38106466   -80.77873439     0.00000000     0.00000002  0.37D-12  0.44D-12  6  4     2.55
  10      1.15558923    -0.38106466   -80.77873439    -0.00000000    -0.00000000  0.29D-13  0.33D-13  6  3     2.82
  11      1.15558922    -0.38106467   -80.77873439    -0.00000000     0.00000000  0.24D-14  0.30D-14  6  5     3.08
  12      1.15558922    -0.38106467   -80.77873439    -0.00000000     0.00000000  0.20D-15  0.31D-15  6  6     3.35
  13      1.15558922    -0.38106467   -80.77873439    -0.00000000     0.00000000  0.12D-16  0.39D-16  6  1     3.62
  14      1.15558922    -0.38106467   -80.77873439    -0.00000000     0.00000000  0.16D-17  0.49D-17  6  2     3.88
  15      1.15558922    -0.38106467   -80.77873439    -0.00000000     0.00000000  0.11D-18  0.51D-18  6  4     4.15
  16      1.15558922    -0.38106467   -80.77873439    -0.00000000     0.00000000  0.11D-19  0.44D-19  6  3     4.42
  17      1.15558922    -0.38106467   -80.77873439     0.00000000    -0.00000000  0.21D-21  0.38D-20  6  6     4.68
  18      1.15558922    -0.38106467   -80.77873439     0.00000000    -0.00000000  0.34D-22  0.80D-22  6  5     4.95

 Norm of t1 vector:      0.03875625      S-energy:    -0.00000000      T1 diagnostic:  0.00685120
                                                                       D1 diagnostic:  0.01213952


 Total CPU time for triples:      2.19 sec


 RESULTS
 =======

  Reference energy                    -80.397669726634
  CCSD singlet pair energy             -0.287790411345
  CCSD triplet pair energy             -0.093274254945
  CCSD correlation energy              -0.381064666290

  Triples (T) contribution             -0.008788298585
  Total correlation energy             -0.389852964875

  CCSD total energy                   -80.778734392925
  CCSD[T] energy                      -80.787737303511
  CCSD-T energy                       -80.787410639062
 !CCSD(T) total energy                -80.787522691510

 Timing summary (sec):

 STEP                 CPU(USER)    SYS     CPU(TOT)    WALL
 Transformation          0.17      0.03      0.20      0.20
 CCSD iterations         4.78      0.21      4.99      5.02
 Triples                 2.19      0.08      2.27      2.27

 Program statistics:

 Available memory in ccsd:               999999644
 Min. memory needed in ccsd:                591289
 Max. memory used in ccsd:                  742713
 Max. memory used in cckext:                619606 (18 integral passes)



 **********************************************************************************************************************************
 DATASETS  * FILE   NREC   LENGTH (MB)   RECORD NAMES
              1      20       69.64       500      610      700      900      950      970     1000      129      960     1100   
                                          VAR    BASINP    GEOM    SYMINP    ZMAT    AOBASIS   BASIS     P2S    ABASIS      S 
                                         1400     1410     1200     1210     1080     1600     1650     1300     1700     1380   
                                           T        V       H0       H01     AOSYM     SMH    MOLCAS    ERIS     OPER     JKOP   

              2       3        0.57       700     1000     2100   
                                         GEOM     BASIS     RHF  

 PROGRAMS   *        TOTAL   CCSD(T)       RHF       INT
 CPU TIMES  *         8.57      7.15      0.82      0.56
 REAL TIME  *         9.34 SEC
 DISK USED  *       194.07 MB      
 GA USED    *         0.00 MB       (max)       0.00 MB       (current)
 **********************************************************************************************************************************

        CCSD(T)         RHF-SCF 
    -80.78752269    -80.39766973
 **********************************************************************************************************************************
 Variable memory released
