
 Primary working directories    : /tmp/878919.115.gen6.q
 Secondary working directories  : /tmp/878919.115.gen6.q
 Wavefunction directory         : /home/vulcan/lo21740/wfu/
 Main file repository           : /tmp/878919.115.gen6.q/

 ARCHNAME  : Linux/x86_64
 FC        : /opt/intel/compilers_and_libraries_2016.1.150/linux/bin/intel64/ifort
 FCVERSION : 16.0.1
 BLASLIB   : -mkl
 id        : ccgc

 Nodes     nprocs
 n091         1
 ga_uses_ma=false, calling ma_init with nominal heap.
 GA-space will be limited to   8.0 MW (determined by -G option)

 Using customized tuning parameters: mindgm=10; mindgv=16; mindgc=4; mindgr=1; noblas=0; mincuda=1000; minvec=7
 default implementation of scratch files=df  

 ***,Optimization of formamide
 memory,1000,m
 gthresh,energy=1.0d-12,orbital=1.0d-10,oneint=1.0d-16,twoint=1.0d-16,optgrad=1.0d-6,compress=1.0d-13
 geomtyp=xyz
 
 bohr
 geometry = {
  C   -3.8187943414    0.0871484153    0.0000049010
  O   -2.7269003870    2.1408390295    0.0001388158
  N   -2.6775839720   -2.1804014706   -0.0002357364
  H   -3.7364514477   -3.7556815428   -0.0000082375
  H   -0.7504332978   -2.3083723786    0.0003653187
  H   -5.8927964893   -0.0173122626   -0.0000015401
  C    3.8187943414   -0.0871484153   -0.0000049010
  O    2.7269003870   -2.1408390295   -0.0001388158
  N    2.6775839720    2.1804014706    0.0002357364
  H    3.7364514477    3.7556815428    0.0000082375
  H    0.7504332978    2.3083723786   -0.0003653187
  H    5.8927964893    0.0173122626    0.0000015401
 }
 
 basis=VDZ
 {rhf;maxit,200}
 {ccsd(t);maxit,200}

 Variables initialized (661), CPU time= 0.01 sec
 Commands  initialized (458), CPU time= 0.00 sec, 486 directives.
 Default parameters read. Elapsed time= 0.05 sec

 Checking input...
 Passed
1


                                         ***  PROGRAM SYSTEM MOLPRO  ***
                         Copyright, University College Cardiff Consultants Limited, 2008

                                    Version 2010.1 linked May 16 2016 07:17:05


 **********************************************************************************************************************************
 LABEL *   Optimization of formamide                                                     
 Linux-4.4.3/n091(x86_64) 64 bit mpp version                                             DATE: 22-May-23          TIME: 18:51:37  
 **********************************************************************************************************************************

 SHA1:             9e8077add272b0f3cad6f7df79ec5211205f459d
 **********************************************************************************************************************************

 THRESHOLDS:

 ZERO    =  1.00D-12  ONEINT  =  1.00D-16  TWOINT  =  1.00D-16  PREFAC  =  1.00D-14  LOCALI  =  1.00D-09  EORDER  =  1.00D-04
 ENERGY  =  1.00D-12  ETEST   =  0.00D+00  EDENS   =  0.00D+00  THRDEDEF=  1.00D-06  GRADIENT=  1.00D-02  STEP    =  1.00D-03
 ORBITAL =  1.00D-10  CIVEC   =  1.00D-05  COEFF   =  1.00D-04  PRINTCI =  5.00D-02  PUNCHCI =  9.90D+01  OPTGRAD =  1.00D-06
 OPTENERG=  1.00D-06  OPTSTEP =  3.00D-04  THRGRAD =  1.00D-10  COMPRESS=  1.00D-13  VARMIN  =  1.00D-07  VARMAX  =  1.00D-03
 THRDOUB =  0.00D+00  THRDIV  =  1.00D-05  THRRED  =  1.00D-07  THRPSP  =  1.00D+00  THRDC   =  1.00D-10  THRCS   =  1.00D-10
 THRNRM  =  1.00D-08  THREQ   =  0.00D+00  THRDE   =  1.00D+00  THRREF  =  1.00D-05  SPARFAC =  1.00D+00  THRDLP  =  1.00D-07
 THRDIA  =  1.00D-10  THRDLS  =  1.00D-07  THRGPS  =  0.00D+00  THRKEX  =  0.00D+00  THRDIS  =  2.00D-01  THRVAR  =  1.00D-10
 THRLOC  =  1.00D-06  THRGAP  =  1.00D-06  THRLOCT = -1.00D+00  THRGAPT = -1.00D+00  THRORB  =  1.00D-06  THRMLTP =  0.00D+00
 THRCPQCI=  1.00D-10  KEXTA   =  0.00D+00  THRCOARS=  0.00D+00  SYMTOL  =  1.00D-06  GRADTOL =  1.00D-06  THROVL  =  1.00D-08
 THRORTH =  1.00D-08  GRID    =  1.00D-06  GRIDMAX =  1.00D-03  DTMAX   =  0.00D+00

 SETTING GEOMTYP        =    XYZ
 ZUNIT=BOHR
 

 Variable memory set to 1000000000 words,  buffer space   230000 words

 SETTING BASIS          =    VDZ


 Recomputing integrals since basis changed


 Using spherical harmonics

 Library entry C      S cc-pVDZ              selected for orbital group  1
 Library entry C      P cc-pVDZ              selected for orbital group  1
 Library entry C      D cc-pVDZ              selected for orbital group  1
 Library entry O      S cc-pVDZ              selected for orbital group  2
 Library entry O      P cc-pVDZ              selected for orbital group  2
 Library entry O      D cc-pVDZ              selected for orbital group  2
 Library entry N      S cc-pVDZ              selected for orbital group  3
 Library entry N      P cc-pVDZ              selected for orbital group  3
 Library entry N      D cc-pVDZ              selected for orbital group  3
 Library entry H      S cc-pVDZ              selected for orbital group  4
 Library entry H      P cc-pVDZ              selected for orbital group  4

1PROGRAM * SEWARD (Integral evaluation for generally contracted gaussian basis sets)     Author: Roland Lindh, 1990

 Geometry written to block  1 of record 700


 Point group  Ci  



 ATOMIC COORDINATES

 NR  ATOM    CHARGE       X              Y              Z

   1  C       6.00   -3.818794341    0.087148415    0.000004901
   2  C       6.00    3.818794341   -0.087148415   -0.000004901
   3  O       8.00   -2.726900387    2.140839029    0.000138816
   4  O       8.00    2.726900387   -2.140839029   -0.000138816
   5  N       7.00   -2.677583972   -2.180401471   -0.000235736
   6  N       7.00    2.677583972    2.180401471    0.000235736
   7  H       1.00   -3.736451448   -3.755681543   -0.000008238
   8  H       1.00    3.736451448    3.755681543    0.000008238
   9  H       1.00   -0.750433298   -2.308372379    0.000365319
  10  H       1.00    0.750433298    2.308372379   -0.000365319
  11  H       1.00   -5.892796489   -0.017312263   -0.000001540
  12  H       1.00    5.892796489    0.017312263    0.000001540

 Bond lengths in Bohr (Angstrom)

  1- 3  2.325914350   1- 5  2.538531790   1-11  2.076631152   2- 4  2.325914350   2- 6  2.538531790
       ( 1.230820864)       ( 1.343333168)       ( 1.098905877)       ( 1.230820864)       ( 1.343333168)

  2-12  2.076631152   5- 7  1.898080001   5- 9  1.931394997   6- 8  1.898080001   6-10  1.931394997
       ( 1.098905877)       ( 1.004420677)       ( 1.022050214)       ( 1.004420677)       ( 1.022050214)

 Bond angles

  1- 5- 7  119.37674633   1- 5- 9  120.51425428   2- 6- 8  119.37674633   2- 6-10  120.51425428

  3- 1- 5  125.28642682   3- 1-11  120.88178213   4- 2- 6  125.28642682   4- 2-12  120.88178213

  5- 1-11  113.83179100   6- 2-12  113.83179100   7- 5- 9  120.10899020   8- 6-10  120.10899020

 NUCLEAR CHARGE:                   48
 NUMBER OF PRIMITIVE AOS:         204
 NUMBER OF SYMMETRY AOS:          198
 NUMBER OF CONTRACTIONS:          114   (  57Ag  +  57Au  )
 NUMBER OF CORE ORBITALS:           6   (   3Ag  +   3Au  )
 NUMBER OF VALENCE ORBITALS:       30   (  15Ag  +  15Au  )


 NUCLEAR REPULSION ENERGY  230.62861234


 Eigenvalues of metric

         1 0.555E-02 0.107E-01 0.152E-01 0.238E-01 0.304E-01 0.404E-01 0.417E-01 0.486E-01
         2 0.570E-02 0.113E-01 0.153E-01 0.241E-01 0.280E-01 0.397E-01 0.410E-01 0.431E-01


 Contracted 2-electron integrals neglected if value below      1.0D-16
 AO integral compression algorithm  1   Integral accuracy      1.0D-16

     90.702 MB (compressed) written to integral file ( 85.8%)

     Node minimum: 90.702 MB, node maximum: 90.702 MB


 NUMBER OF SORTED TWO-ELECTRON INTEGRALS:   10931289.     BUFFER LENGTH:  32768
 NUMBER OF SEGMENTS:   1  SEGMENT LENGTH:   10931289      RECORD LENGTH: 524288

 Memory used in sort:      11.49 MW

 SORT1 READ    13250584. AND WROTE    10930266. INTEGRALS IN     32 RECORDS. CPU TIME:     0.13 SEC, REAL TIME:     0.19 SEC
 SORT2 READ    10930266. AND WROTE    10931289. INTEGRALS IN    346 RECORDS. CPU TIME:     0.13 SEC, REAL TIME:     0.19 SEC

 FILE SIZES:   FILE 1:    79.4 MBYTE,  FILE 4:   134.3 MBYTE,   TOTAL:    213.6 MBYTE

 OPERATOR DM      FOR CENTER  0  COORDINATES:    0.000000    0.000000    0.000000


 **********************************************************************************************************************************
 DATASETS  * FILE   NREC   LENGTH (MB)   RECORD NAMES
              1      19       79.46       500      610      700      900      950      970     1000      129      960     1100   
                                          VAR    BASINP    GEOM    SYMINP    ZMAT    AOBASIS   BASIS     P2S    ABASIS      S 
                                         1400     1410     1200     1210     1080     1600     1650     1300     1700   
                                           T        V       H0       H01     AOSYM     SMH    MOLCAS    ERIS     OPER   

 PROGRAMS   *        TOTAL       INT
 CPU TIMES  *         1.49      1.45
 REAL TIME  *         1.85 SEC
 DISK USED  *       305.19 MB      
 GA USED    *         0.00 MB       (max)       0.00 MB       (current)
 **********************************************************************************************************************************

1PROGRAM * RHF-SCF (CLOSED SHELL)       Authors: W. Meyer, H.-J. Werner


 NUMBER OF ELECTRONS:      24+   24-
 CONVERGENCE THRESHOLDS:    1.00E-10 (Density)    1.00E-13 (Energy)
 MAX. NUMBER OF ITERATIONS:      200
 INTERPOLATION TYPE:            DIIS
 INTERPOLATION STEPS:              2 (START)      1 (STEP)
 LEVEL SHIFTS:                  0.00 (CLOSED)  0.00 (OPEN) 



 Orbital guess generated from atomic densities. Full valence occupancy:   18  18

 Molecular orbital dump at record        2100.2

 Initial alpha occupancy:  12  12
 Initial beta  occupancy:  12  12
 Wave function symmetry:    1

 ITERATION    DDIFF          GRAD             ENERGY        2-EL.EN.            DIPOLE MOMENTS         DIIS
    1      0.000D+00      0.000D+00      -337.77961224    705.639182    0.00000    0.00000    0.00000    0
    2      0.000D+00      0.134D-01      -337.85818211    700.454836    0.00000    0.00000    0.00000    1
    3      0.267D-01      0.951D-02      -337.91360148    702.925240    0.00000    0.00000    0.00000    2
    4      0.102D-01      0.126D-02      -337.91570107    702.910005    0.00000    0.00000    0.00000    3
    5      0.226D-02      0.442D-03      -337.91596737    702.838816    0.00000    0.00000    0.00000    4
    6      0.812D-03      0.147D-03      -337.91603480    702.857797    0.00000    0.00000    0.00000    5
    7      0.376D-03      0.658D-04      -337.91604610    702.853359    0.00000    0.00000    0.00000    6
    8      0.191D-03      0.173D-04      -337.91604679    702.853839    0.00000    0.00000    0.00000    7
    9      0.489D-04      0.440D-05      -337.91604685    702.853458    0.00000    0.00000    0.00000    7
   10      0.136D-04      0.973D-06      -337.91604685    702.853688    0.00000    0.00000    0.00000    7
   11      0.269D-05      0.242D-06      -337.91604685    702.853602    0.00000    0.00000    0.00000    7
   12      0.641D-06      0.856D-07      -337.91604685    702.853609    0.00000    0.00000    0.00000    7
   13      0.186D-06      0.282D-07      -337.91604685    702.853614    0.00000    0.00000    0.00000    7
   14      0.717D-07      0.649D-08      -337.91604685    702.853613    0.00000    0.00000    0.00000    7
   15      0.154D-07      0.141D-08      -337.91604685    702.853613    0.00000    0.00000    0.00000    7
   16      0.326D-08      0.341D-09      -337.91604685    702.853613    0.00000    0.00000    0.00000    7
   17      0.680D-09      0.131D-09      -337.91604685    702.853613    0.00000    0.00000    0.00000    7
   18      0.314D-09      0.287D-10      -337.91604685    702.853613    0.00000    0.00000    0.00000    7
   19      0.744D-10      0.861D-11      -337.91604685    702.853613    0.00000    0.00000    0.00000    7
   20      0.191D-10      0.152D-11      -337.91604685    702.853613    0.00000    0.00000    0.00000    7
   21      0.320D-11      0.519D-12      -337.91604685    702.853613    0.00000    0.00000    0.00000    7
   22      0.120D-11      0.173D-12      -337.91604685    702.853613    0.00000    0.00000    0.00000    7
   23      0.416D-12      0.930D-13      -337.91604685    702.853613    0.00000    0.00000    0.00000    7
   24      0.264D-12      0.412D-13      -337.91604685    702.853613    0.00000    0.00000    0.00000    8
   25      0.104D-12      0.239D-13      -337.91604685    702.853613    0.00000    0.00000    0.00000    8
   26      0.629D-13      0.139D-13      -337.91604685    702.853613    0.00000    0.00000    0.00000    0

 Final occupancy:  12  12

 !RHF STATE 1.1 Energy               -337.916046847718
 Nuclear energy                       230.62861234
 One-electron energy                 -919.97146571
 Two-electron energy                  351.42680652
 Virial quotient                       -1.00140487
 !RHF STATE 1.1 Dipole moment           0.00000000     0.00000000     0.00000000
 Dipole moment /Debye                   0.00000000     0.00000000     0.00000000

 Orbital energies:

         1.1          2.1          3.1          4.1          5.1          6.1          7.1          8.1          9.1         10.1
    -20.525385   -15.577147   -11.359058    -1.378306    -1.202452    -0.852297    -0.740581    -0.634360    -0.610318    -0.557598

        11.1         12.1         13.1         14.1
     -0.443573    -0.410749     0.186236     0.201518

         1.2          2.2          3.2          4.2          5.2          6.2          7.2          8.2          9.2         10.2
    -20.525384   -15.577145   -11.359059    -1.373519    -1.208666    -0.827099    -0.731630    -0.695988    -0.583927    -0.565132

        11.2         12.2         13.2         14.2
     -0.418446    -0.401109     0.188157     0.194589


 **********************************************************************************************************************************
 DATASETS  * FILE   NREC   LENGTH (MB)   RECORD NAMES
              1      19       79.46       500      610      700      900      950      970     1000      129      960     1100   
                                          VAR    BASINP    GEOM    SYMINP    ZMAT    AOBASIS   BASIS     P2S    ABASIS      S 
                                         1400     1410     1200     1210     1080     1600     1650     1300     1700   
                                           T        V       H0       H01     AOSYM     SMH    MOLCAS    ERIS     OPER   

              2       3        0.59       700     1000     2100   
                                         GEOM     BASIS     RHF  

 PROGRAMS   *        TOTAL       RHF       INT
 CPU TIMES  *         2.90      1.41      1.45
 REAL TIME  *         3.50 SEC
 DISK USED  *       305.19 MB      
 GA USED    *         0.00 MB       (max)       0.00 MB       (current)
 **********************************************************************************************************************************


1PROGRAM * CCSD (Closed-shell coupled cluster)     Authors: C. Hampel, H.-J. Werner, 1991, M. Deegan, P.J. Knowles, 1992


 Convergence thresholds:  THRVAR = 1.00D-08  THRDEN = 1.00D-12

 CCSD(T)     terms to be evaluated (factor= 1.000)


 Number of core orbitals:           6 (   3   3 )
 Number of closed-shell orbitals:  18 (   9   9 )
 Number of external orbitals:      90 (  45  45 )

 Molecular orbitals read from record     2100.2  Type=RHF/CANONICAL (state 1.1)

 Number of N-1 electron functions:              18
 Number of N-2 electron functions:             171
 Number of singly external CSFs:               810
 Number of doubly external CSFs:            656910
 Total number of CSFs:                      657721

 Length of J-op  integral file:               0.00 MB
 Length of K-op  integral file:               0.48 MB
 Length of 3-ext integral record:             0.00 MB

 Memory could be reduced to 9.36 Mwords without degradation in triples

 Integral transformation finished. Total CPU:   0.44 sec, npass=  1  Memory used:   6.56 MW

 Reference energy:                   -337.91604685

 MP2 singlet pair energy:              -0.58947148
 MP2 triplet pair energy:              -0.38306458
 MP2 correlation energy:               -0.97253606
 MP2 total energy:                   -338.88858291

 SCS-MP2 correlation energy:           -0.94571707   (PS=  1.200000  PT=  0.333333)
 SCS-MP2 total energy:               -338.86176392

 ITER.      SQ.NORM     CORR.ENERGY   TOTAL ENERGY   ENERGY CHANGE        DEN1      VAR(S)    VAR(P)  DIIS     TIME
   1      1.29747717    -1.00451786  -338.92056470    -0.03198180    -0.00235765  0.96D-02  0.55D-02  1  1     1.31
   2      1.32234648    -1.00715537  -338.92320222    -0.00263752    -0.02512964  0.22D-03  0.11D-02  2  2     2.22
   3      1.33497653    -1.00812778  -338.92417462    -0.00097240    -0.00559690  0.22D-03  0.47D-04  3  3     3.13
   4      1.34033543    -1.00789905  -338.92394590     0.00022873    -0.00169459  0.20D-04  0.80D-05  4  4     4.05
   5      1.34244466    -1.00783525  -338.92388210     0.00006380    -0.00043475  0.19D-05  0.10D-05  5  5     4.97
   6      1.34291171    -1.00780452  -338.92385137     0.00003073    -0.00004133  0.15D-06  0.13D-06  6  6     5.88
   7      1.34301671    -1.00779487  -338.92384172     0.00000965    -0.00000528  0.14D-07  0.15D-07  6  2     6.79
   8      1.34303458    -1.00779496  -338.92384181    -0.00000009     0.00000001  0.18D-08  0.17D-08  6  1     7.71
   9      1.34303606    -1.00779465  -338.92384150     0.00000031     0.00000150  0.28D-09  0.21D-09  6  4     8.61
  10      1.34303906    -1.00779461  -338.92384146     0.00000004    -0.00000042  0.75D-10  0.20D-10  6  3     9.52
  11      1.34303895    -1.00779468  -338.92384153    -0.00000007     0.00000017  0.14D-10  0.48D-11  6  5    10.44
  12      1.34303875    -1.00779470  -338.92384155    -0.00000002     0.00000008  0.31D-11  0.12D-11  6  6    11.36
  13      1.34303852    -1.00779473  -338.92384158    -0.00000003     0.00000010  0.41D-12  0.18D-12  6  2    12.28
  14      1.34303842    -1.00779474  -338.92384159    -0.00000001     0.00000003  0.79D-13  0.30D-13  6  1    13.20
  15      1.34303840    -1.00779474  -338.92384159    -0.00000000     0.00000000  0.13D-13  0.71D-14  6  4    14.11
  16      1.34303839    -1.00779474  -338.92384159    -0.00000000    -0.00000000  0.32D-14  0.12D-14  6  3    15.03
  17      1.34303838    -1.00779474  -338.92384159    -0.00000000    -0.00000000  0.81D-15  0.18D-15  6  5    15.96
  18      1.34303838    -1.00779474  -338.92384159    -0.00000000     0.00000000  0.61D-16  0.55D-16  6  6    16.87
  19      1.34303838    -1.00779474  -338.92384159    -0.00000000     0.00000000  0.27D-16  0.54D-17  6  4    17.79
  20      1.34303838    -1.00779474  -338.92384159    -0.00000000     0.00000000  0.15D-17  0.84D-18  6  2    18.71
  21      1.34303838    -1.00779474  -338.92384159    -0.00000000     0.00000000  0.32D-18  0.14D-18  6  1    19.62
  22      1.34303838    -1.00779474  -338.92384159     0.00000000    -0.00000000  0.71D-19  0.17D-19  6  3    20.54
  23      1.34303838    -1.00779474  -338.92384159     0.00000000    -0.00000000  0.10D-19  0.53D-20  6  5    21.45
  24      1.34303838    -1.00779474  -338.92384159     0.00000000    -0.00000000  0.14D-20  0.56D-21  6  6    22.37
  25      1.34303838    -1.00779474  -338.92384159     0.00000000    -0.00000000  0.22D-21  0.11D-21  6  4    23.28
  26      1.34303838    -1.00779474  -338.92384159    -0.00000000     0.00000000  0.61D-22  0.18D-22  6  2    24.20

 Norm of t1 vector:      0.14896131      S-energy:     0.00000000      T1 diagnostic:  0.01755526
                                                                       D1 diagnostic:  0.06223054

 Singles amplitudes (print threshold =  0.500E-01):

         I         SYM. A    A   T(IA)

         7         1         2      0.05865792
        16         2         2      0.05771104


 Total CPU time for triples:     13.33 sec


 RESULTS
 =======

  Reference energy                   -337.916046847717
  CCSD singlet pair energy             -0.667702635916
  CCSD triplet pair energy             -0.340092106949
  CCSD correlation energy              -1.007794742866

  Triples (T) contribution             -0.032219712578
  Total correlation energy             -1.040014455443

  CCSD total energy                  -338.923841590583
  CCSD[T] energy                     -338.959053865444
  CCSD-T energy                      -338.955083856858
 !CCSD(T) total energy               -338.956061303161

 Timing summary (sec):

 STEP                 CPU(USER)    SYS     CPU(TOT)    WALL
 Transformation          0.46      0.07      0.53      0.53
 CCSD iterations        23.74      0.93     24.67     24.71
 Triples                13.33      0.46     13.79     13.81

 Program statistics:

 Available memory in ccsd:               999998604
 Min. memory needed in ccsd:               1741948
 Max. memory used in ccsd:                 2318344
 Max. memory used in cckext:               2485613 (26 integral passes)



 **********************************************************************************************************************************
 DATASETS  * FILE   NREC   LENGTH (MB)   RECORD NAMES
              1      20      119.48       500      610      700      900      950      970     1000      129      960     1100   
                                          VAR    BASINP    GEOM    SYMINP    ZMAT    AOBASIS   BASIS     P2S    ABASIS      S 
                                         1400     1410     1200     1210     1080     1600     1650     1300     1700     1380   
                                           T        V       H0       H01     AOSYM     SMH    MOLCAS    ERIS     OPER     JKOP   

              2       3        0.59       700     1000     2100   
                                         GEOM     BASIS     RHF  

 PROGRAMS   *        TOTAL   CCSD(T)       RHF       INT
 CPU TIMES  *        40.44     37.54      1.41      1.45
 REAL TIME  *        42.59 SEC
 DISK USED  *       324.02 MB      
 GA USED    *         0.00 MB       (max)       0.00 MB       (current)
 **********************************************************************************************************************************

        CCSD(T)         RHF-SCF 
   -338.95606130   -337.91604685
 **********************************************************************************************************************************
 Variable memory released
