
 Primary working directories    : /tmp/1003441.30.gen6.q
 Secondary working directories  : /tmp/1003441.30.gen6.q
 Wavefunction directory         : /home/vulcan/jj04645/wfu/
 Main file repository           : /tmp/1003441.30.gen6.q/

 ARCHNAME  : Linux/x86_64
 FC        : /opt/intel/compilers_and_libraries_2016.1.150/linux/bin/intel64/ifort
 FCVERSION : 16.0.1
 BLASLIB   : -mkl
 id        : ccgc

 Nodes     nprocs
 n080         1
 ga_uses_ma=false, calling ma_init with nominal heap.
 GA-space will be limited to   8.0 MW (determined by -G option)

 Using customized tuning parameters: mindgm=10; mindgv=16; mindgc=4; mindgr=1; noblas=0; mincuda=1000; minvec=7
 default implementation of scratch files=df  

 ***,Optimization of acetyl acetylene
 memory,1000,m
 gthresh,energy=1.0d-12,orbital=1.0d-10,oneint=1.0d-16,twoint=1.0d-16,optgrad=1.0d-6,compress=1.0d-13
 geomtyp=xyz
 
 bohr
 geometry = {
  H    3.3779568782   -1.7705476315   -1.6619535179
  C    2.2787298581   -2.3150425214   -0.0019055874
  H    1.9309160944   -4.3414912451    0.0093734560
  C   -0.2167249140   -0.9128294917   -0.0019055874
  H    3.3732134232   -1.7789894556    1.6640135866
  O   -2.2631546573   -1.9546682882   -0.0019055875
  C   -0.0209883849    1.8537836241   -0.0019055874
  C    0.2057452816    4.1351199749   -0.0019055874
  H    0.3554315998    6.1402298717   -0.0019055874
 }
 
 basis=VDZ
 {rhf;maxit,200}
 {ccsd(t);maxit,200}

 Variables initialized (661), CPU time= 0.00 sec
 Commands  initialized (458), CPU time= 0.01 sec, 486 directives.
 Default parameters read. Elapsed time= 0.04 sec

 Checking input...
 Passed
1


                                         ***  PROGRAM SYSTEM MOLPRO  ***
                         Copyright, University College Cardiff Consultants Limited, 2008

                                    Version 2010.1 linked May 16 2016 07:17:05


 **********************************************************************************************************************************
 LABEL *   Optimization of acetyl acetylene                                              
 Linux-4.4.3/n080(x86_64) 64 bit mpp version                                             DATE: 15-Feb-24          TIME: 13:10:21  
 **********************************************************************************************************************************

 SHA1:             9e8077add272b0f3cad6f7df79ec5211205f459d
 **********************************************************************************************************************************

 THRESHOLDS:

 ZERO    =  1.00D-12  ONEINT  =  1.00D-16  TWOINT  =  1.00D-16  PREFAC  =  1.00D-14  LOCALI  =  1.00D-09  EORDER  =  1.00D-04
 ENERGY  =  1.00D-12  ETEST   =  0.00D+00  EDENS   =  0.00D+00  THRDEDEF=  1.00D-06  GRADIENT=  1.00D-02  STEP    =  1.00D-03
 ORBITAL =  1.00D-10  CIVEC   =  1.00D-05  COEFF   =  1.00D-04  PRINTCI =  5.00D-02  PUNCHCI =  9.90D+01  OPTGRAD =  1.00D-06
 OPTENERG=  1.00D-06  OPTSTEP =  3.00D-04  THRGRAD =  1.00D-10  COMPRESS=  1.00D-13  VARMIN  =  1.00D-07  VARMAX  =  1.00D-03
 THRDOUB =  0.00D+00  THRDIV  =  1.00D-05  THRRED  =  1.00D-07  THRPSP  =  1.00D+00  THRDC   =  1.00D-10  THRCS   =  1.00D-10
 THRNRM  =  1.00D-08  THREQ   =  0.00D+00  THRDE   =  1.00D+00  THRREF  =  1.00D-05  SPARFAC =  1.00D+00  THRDLP  =  1.00D-07
 THRDIA  =  1.00D-10  THRDLS  =  1.00D-07  THRGPS  =  0.00D+00  THRKEX  =  0.00D+00  THRDIS  =  2.00D-01  THRVAR  =  1.00D-10
 THRLOC  =  1.00D-06  THRGAP  =  1.00D-06  THRLOCT = -1.00D+00  THRGAPT = -1.00D+00  THRORB  =  1.00D-06  THRMLTP =  0.00D+00
 THRCPQCI=  1.00D-10  KEXTA   =  0.00D+00  THRCOARS=  0.00D+00  SYMTOL  =  1.00D-06  GRADTOL =  1.00D-06  THROVL  =  1.00D-08
 THRORTH =  1.00D-08  GRID    =  1.00D-06  GRIDMAX =  1.00D-03  DTMAX   =  0.00D+00

 SETTING GEOMTYP        =    XYZ
 ZUNIT=BOHR
 

 Variable memory set to 1000000000 words,  buffer space   230000 words

 SETTING BASIS          =    VDZ


 Recomputing integrals since basis changed


 Using spherical harmonics

 Library entry H      S cc-pVDZ              selected for orbital group  1
 Library entry H      P cc-pVDZ              selected for orbital group  1
 Library entry C      S cc-pVDZ              selected for orbital group  2
 Library entry C      P cc-pVDZ              selected for orbital group  2
 Library entry C      D cc-pVDZ              selected for orbital group  2
 Library entry O      S cc-pVDZ              selected for orbital group  6
 Library entry O      P cc-pVDZ              selected for orbital group  6
 Library entry O      D cc-pVDZ              selected for orbital group  6

1PROGRAM * SEWARD (Integral evaluation for generally contracted gaussian basis sets)     Author: Roland Lindh, 1990

 Geometry written to block  1 of record 700


 Point group  C1  



 ATOMIC COORDINATES

 NR  ATOM    CHARGE       X              Y              Z

   1  H       1.00    3.377956878   -1.770547631   -1.661953518
   2  C       6.00    2.278729858   -2.315042521   -0.001905587
   3  H       1.00    1.930916094   -4.341491245    0.009373456
   4  C       6.00   -0.216724914   -0.912829492   -0.001905587
   5  H       1.00    3.373213423   -1.778989456    1.664013587
   6  O       8.00   -2.263154657   -1.954668288   -0.001905587
   7  C       6.00   -0.020988385    1.853783624   -0.001905587
   8  C       6.00    0.205745282    4.135119975   -0.001905587
   9  H       1.00    0.355431600    6.140229872   -0.001905587

 Bond lengths in Bohr (Angstrom)

 1-2  2.064106068  2-3  2.056111879  2-4  2.862428322  2-5  2.064106068  4-6  2.296367299
     ( 1.092277888)     ( 1.088047546)     ( 1.514731831)     ( 1.092277888)     ( 1.215185238)

 4-7  2.773528605  7-8  2.292575779  8-9  2.010689357
     ( 1.467688126)     ( 1.213178852)     ( 1.064010982)

 Bond angles

  1-2-3  110.76181197   1-2-4  109.57536145   1-2-5  107.35023332   2-4-6  123.68739543

  2-4-7  115.28502355   3-2-4  109.59243755   3-2-5  109.95153047   4-2-5  109.57536309

  4-7-8  178.37112628   6-4-7  121.02758103   7-8-9  178.59357076

 NUCLEAR CHARGE:                   36
 NUMBER OF PRIMITIVE AOS:         163
 NUMBER OF SYMMETRY AOS:          158
 NUMBER OF CONTRACTIONS:           90   (  90A   )
 NUMBER OF CORE ORBITALS:           5   (   5A   )
 NUMBER OF VALENCE ORBITALS:       24   (  24A   )


 NUCLEAR REPULSION ENERGY  142.11974125


 Eigenvalues of metric

         1 0.305E-03 0.212E-02 0.382E-02 0.955E-02 0.161E-01 0.176E-01 0.220E-01 0.329E-01


 Contracted 2-electron integrals neglected if value below      1.0D-16
 AO integral compression algorithm  1   Integral accuracy      1.0D-16

     56.099 MB (compressed) written to integral file ( 73.3%)

     Node minimum: 56.099 MB, node maximum: 56.099 MB


 NUMBER OF SORTED TWO-ELECTRON INTEGRALS:    8386560.     BUFFER LENGTH:  32768
 NUMBER OF SEGMENTS:   1  SEGMENT LENGTH:    8386560      RECORD LENGTH: 524288

 Memory used in sort:       8.94 MW

 SORT1 READ     9559587. AND WROTE     7160675. INTEGRALS IN     21 RECORDS. CPU TIME:     0.08 SEC, REAL TIME:     0.12 SEC
 SORT2 READ     7160675. AND WROTE     8386560. INTEGRALS IN    214 RECORDS. CPU TIME:     0.09 SEC, REAL TIME:     0.13 SEC

 FILE SIZES:   FILE 1:    51.8 MBYTE,  FILE 4:    88.1 MBYTE,   TOTAL:    139.9 MBYTE

 OPERATOR DM      FOR CENTER  0  COORDINATES:    0.000000    0.000000    0.000000


 **********************************************************************************************************************************
 DATASETS  * FILE   NREC   LENGTH (MB)   RECORD NAMES
              1      19       51.92       500      610      700      900      950      970     1000      129      960     1100   
                                          VAR    BASINP    GEOM    SYMINP    ZMAT    AOBASIS   BASIS     P2S    ABASIS      S 
                                         1400     1410     1200     1210     1080     1600     1650     1300     1700   
                                           T        V       H0       H01     AOSYM     SMH    MOLCAS    ERIS     OPER   

 PROGRAMS   *        TOTAL       INT
 CPU TIMES  *         0.93      0.89
 REAL TIME  *         1.24 SEC
 DISK USED  *       196.78 MB      
 GA USED    *         0.00 MB       (max)       0.00 MB       (current)
 **********************************************************************************************************************************

1PROGRAM * RHF-SCF (CLOSED SHELL)       Authors: W. Meyer, H.-J. Werner


 NUMBER OF ELECTRONS:      18+   18-    SPACE SYMMETRY=1    SPIN SYMMETRY: Singlet 
 CONVERGENCE THRESHOLDS:    1.00E-10 (Density)    1.00E-13 (Energy)
 MAX. NUMBER OF ITERATIONS:      200
 INTERPOLATION TYPE:            DIIS
 INTERPOLATION STEPS:              2 (START)      1 (STEP)
 LEVEL SHIFTS:                  0.00 (CLOSED)  0.00 (OPEN) 



 Orbital guess generated from atomic densities. Full valence occupancy:   29

 Molecular orbital dump at record        2100.2

 ITERATION    DDIFF          GRAD             ENERGY        2-EL.EN.            DIPOLE MOMENTS         DIIS
    1      0.000D+00      0.000D+00      -228.51836129    442.228186    1.91468    1.01562    0.00317    0
    2      0.000D+00      0.891D-02      -228.57127883    440.412623    0.82496    0.44769    0.00173    1
    3      0.212D-01      0.654D-02      -228.60347459    440.961209    1.22315    0.61607    0.00167    2
    4      0.782D-02      0.106D-02      -228.60532623    441.091910    1.16597    0.62592    0.00171    3
    5      0.237D-02      0.402D-03      -228.60559022    440.986596    1.16212    0.58368    0.00161    4
    6      0.831D-03      0.147D-03      -228.60562718    441.019161    1.16333    0.59368    0.00160    5
    7      0.318D-03      0.625D-04      -228.60563610    441.008962    1.15986    0.58605    0.00160    6
    8      0.163D-03      0.258D-04      -228.60563770    441.012040    1.15962    0.58533    0.00160    7
    9      0.768D-04      0.710D-05      -228.60563786    441.010791    1.15908    0.58484    0.00160    8
   10      0.281D-04      0.163D-05      -228.60563787    441.011218    1.15898    0.58483    0.00160    7
   11      0.554D-05      0.753D-06      -228.60563787    441.010984    1.15894    0.58483    0.00160    8
   12      0.243D-05      0.405D-06      -228.60563787    441.011025    1.15893    0.58482    0.00160    8
   13      0.192D-05      0.191D-06      -228.60563787    441.011013    1.15893    0.58482    0.00160    9
   14      0.845D-06      0.657D-07      -228.60563787    441.011016    1.15893    0.58481    0.00160    9
   15      0.277D-06      0.135D-07      -228.60563787    441.011017    1.15893    0.58481    0.00160    8
   16      0.472D-07      0.429D-08      -228.60563787    441.011016    1.15893    0.58481    0.00160    8
   17      0.909D-08      0.199D-08      -228.60563787    441.011017    1.15893    0.58481    0.00160    9
   18      0.434D-08      0.611D-09      -228.60563787    441.011017    1.15893    0.58481    0.00160    9
   19      0.149D-08      0.203D-09      -228.60563787    441.011017    1.15893    0.58481    0.00160    9
   20      0.543D-09      0.392D-10      -228.60563787    441.011017    1.15893    0.58481    0.00160    7
   21      0.115D-09      0.976D-11      -228.60563787    441.011017    1.15893    0.58481    0.00160    7
   22      0.229D-10      0.422D-11      -228.60563787    441.011017    1.15893    0.58481    0.00160    0

 Final occupancy:  18

 !RHF STATE 1.1 Energy               -228.605637874241
 Nuclear energy                       142.11974125
 One-electron energy                 -591.23088748
 Two-electron energy                  220.50550835
 Virial quotient                       -1.00152076
 !RHF STATE 1.1 Dipole moment           1.15893198     0.58480998     0.00160413
 Dipole moment /Debye                   2.94551834     1.48634134     0.00407703

 Orbital energies:

         1.1          2.1          3.1          4.1          5.1          6.1          7.1          8.1          9.1         10.1
    -20.568578   -11.369035   -11.272755   -11.261659   -11.252958    -1.403953    -1.070239    -1.014915    -0.860538    -0.733056

        11.1         12.1         13.1         14.1         15.1         16.1         17.1         18.1         19.1         20.1
     -0.684552    -0.636912    -0.613661    -0.571661    -0.518135    -0.445174    -0.417763    -0.414390     0.094065     0.180142


 **********************************************************************************************************************************
 DATASETS  * FILE   NREC   LENGTH (MB)   RECORD NAMES
              1      19       51.92       500      610      700      900      950      970     1000      129      960     1100   
                                          VAR    BASINP    GEOM    SYMINP    ZMAT    AOBASIS   BASIS     P2S    ABASIS      S 
                                         1400     1410     1200     1210     1080     1600     1650     1300     1700   
                                           T        V       H0       H01     AOSYM     SMH    MOLCAS    ERIS     OPER   

              2       3        0.57       700     1000     2100   
                                         GEOM     BASIS     RHF  

 PROGRAMS   *        TOTAL       RHF       INT
 CPU TIMES  *         2.30      1.36      0.89
 REAL TIME  *         2.74 SEC
 DISK USED  *       196.78 MB      
 GA USED    *         0.00 MB       (max)       0.00 MB       (current)
 **********************************************************************************************************************************


1PROGRAM * CCSD (Closed-shell coupled cluster)     Authors: C. Hampel, H.-J. Werner, 1991, M. Deegan, P.J. Knowles, 1992


 Convergence thresholds:  THRVAR = 1.00D-08  THRDEN = 1.00D-12

 CCSD(T)     terms to be evaluated (factor= 1.000)


 Number of core orbitals:           5 (   5 )
 Number of closed-shell orbitals:  13 (  13 )
 Number of external orbitals:      72 (  72 )

 Molecular orbitals read from record     2100.2  Type=RHF/CANONICAL (state 1.1)

 Number of N-1 electron functions:              13
 Number of N-2 electron functions:              91
 Number of singly external CSFs:               936
 Number of doubly external CSFs:            438516
 Total number of CSFs:                      439453

 Length of J-op  integral file:               0.00 MB
 Length of K-op  integral file:               0.59 MB
 Length of 3-ext integral record:             0.00 MB

 Memory could be reduced to 7.27 Mwords without degradation in triples

 Integral transformation finished. Total CPU:   0.30 sec, npass=  1  Memory used:   6.58 MW

 Reference energy:                   -228.60563787

 MP2 singlet pair energy:              -0.43061792
 MP2 triplet pair energy:              -0.26901227
 MP2 correlation energy:               -0.69963019
 MP2 total energy:                   -229.30526806

 SCS-MP2 correlation energy:           -0.68412692   (PS=  1.200000  PT=  0.333333)
 SCS-MP2 total energy:               -229.28976479

 ITER.      SQ.NORM     CORR.ENERGY   TOTAL ENERGY   ENERGY CHANGE        DEN1      VAR(S)    VAR(P)  DIIS     TIME
   1      1.25740028    -0.72731812  -229.33295599    -0.02768793    -0.00370350  0.60D-02  0.55D-02  1  1     1.12
   2      1.28017324    -0.73009203  -229.33572991    -0.00277391    -0.02082249  0.12D-03  0.98D-03  2  2     1.96
   3      1.29084589    -0.73086904  -229.33650692    -0.00077701    -0.00476607  0.11D-03  0.92D-04  3  3     2.80
   4      1.29513478    -0.73083367  -229.33647154     0.00003538    -0.00140940  0.80D-05  0.18D-04  4  4     3.64
   5      1.29699661    -0.73085476  -229.33649263    -0.00002109    -0.00044525  0.16D-05  0.20D-05  5  5     4.48
   6      1.29742164    -0.73085067  -229.33648854     0.00000409    -0.00006264  0.28D-06  0.27D-06  6  6     5.33
   7      1.29750936    -0.73084647  -229.33648434     0.00000420    -0.00000187  0.56D-07  0.30D-07  6  1     6.17
   8      1.29754749    -0.73084744  -229.33648532    -0.00000097    -0.00000948  0.11D-07  0.48D-08  6  2     7.01
   9      1.29754967    -0.73084754  -229.33648541    -0.00000010     0.00000299  0.17D-08  0.83D-09  6  3     7.86
  10      1.29755241    -0.73084726  -229.33648514     0.00000028    -0.00000057  0.33D-09  0.16D-09  6  4     8.69
  11      1.29755223    -0.73084752  -229.33648539    -0.00000025     0.00000057  0.42D-10  0.32D-10  6  5     9.54
  12      1.29755193    -0.73084747  -229.33648535     0.00000004     0.00000015  0.82D-11  0.62D-11  6  6    10.38
  13      1.29755159    -0.73084750  -229.33648537    -0.00000003     0.00000015  0.95D-12  0.16D-11  6  1    11.22
  14      1.29755135    -0.73084750  -229.33648538    -0.00000000     0.00000006  0.28D-12  0.24D-12  6  2    12.07
  15      1.29755124    -0.73084750  -229.33648538    -0.00000000     0.00000003  0.46D-13  0.51D-13  6  3    12.92
  16      1.29755120    -0.73084751  -229.33648538    -0.00000000     0.00000001  0.97D-14  0.10D-13  6  4    13.75
  17      1.29755118    -0.73084751  -229.33648538    -0.00000000     0.00000000  0.32D-14  0.13D-14  6  5    14.59
  18      1.29755117    -0.73084751  -229.33648538    -0.00000000    -0.00000000  0.73D-15  0.29D-15  6  6    15.44
  19      1.29755117    -0.73084751  -229.33648538    -0.00000000    -0.00000000  0.29D-15  0.74D-16  6  1    16.28
  20      1.29755117    -0.73084751  -229.33648538     0.00000000    -0.00000000  0.12D-15  0.24D-16  6  2    17.12
  21      1.29755117    -0.73084751  -229.33648538    -0.00000000     0.00000000  0.45D-16  0.98D-17  6  3    17.97
  22      1.29755117    -0.73084751  -229.33648538     0.00000000     0.00000000  0.12D-16  0.36D-17  6  4    18.81
  23      1.29755117    -0.73084751  -229.33648538     0.00000000     0.00000000  0.26D-17  0.88D-18  6  5    19.66
  24      1.29755117    -0.73084751  -229.33648538     0.00000000     0.00000000  0.57D-18  0.19D-18  6  6    20.50
  25      1.29755117    -0.73084751  -229.33648538     0.00000000    -0.00000000  0.91D-19  0.50D-19  6  1    21.34
  26      1.29755117    -0.73084751  -229.33648538     0.00000000    -0.00000000  0.29D-19  0.11D-19  6  4    22.18
  27      1.29755117    -0.73084751  -229.33648538     0.00000000    -0.00000000  0.41D-20  0.17D-20  6  2    23.02

 Norm of t1 vector:      0.10837922      S-energy:     0.00000000      T1 diagnostic:  0.01502949
                                                                       D1 diagnostic:  0.05036020

 Doubles amplitudes (print threshold =  0.500E-01):

         I         J         SYM. A    SYM. B    A         B      T(IJ, AB)

        10        10         1         1         1         1     -0.05797700
        12        12         1         1         2         2     -0.06505832
        13        13         1         1         1         1     -0.07383443


 Total CPU time for triples:      7.63 sec


 RESULTS
 =======

  Reference energy                   -228.605637874241
  CCSD singlet pair energy             -0.496778906548
  CCSD triplet pair energy             -0.234068600007
  CCSD correlation energy              -0.730847506555

  Triples (T) contribution             -0.028496035049
  Total correlation energy             -0.759343541604

  CCSD total energy                  -229.336485380796
  CCSD[T] energy                     -229.366840423091
  CCSD-T energy                      -229.364277021494
 !CCSD(T) total energy               -229.364981415845

 Timing summary (sec):

 STEP                 CPU(USER)    SYS     CPU(TOT)    WALL
 Transformation          0.32      0.05      0.37      0.37
 CCSD iterations        22.71      0.63     23.34     23.38
 Triples                 7.64      0.21      7.85      7.86

 Program statistics:

 Available memory in ccsd:               999999224
 Min. memory needed in ccsd:               1253983
 Max. memory used in ccsd:                 1626745
 Max. memory used in cckext:               1605212 (27 integral passes)



 **********************************************************************************************************************************
 DATASETS  * FILE   NREC   LENGTH (MB)   RECORD NAMES
              1      20       80.68       500      610      700      900      950      970     1000      129      960     1100   
                                          VAR    BASINP    GEOM    SYMINP    ZMAT    AOBASIS   BASIS     P2S    ABASIS      S 
                                         1400     1410     1200     1210     1080     1600     1650     1300     1700     1380   
                                           T        V       H0       H01     AOSYM     SMH    MOLCAS    ERIS     OPER     JKOP   

              2       3        0.57       700     1000     2100   
                                         GEOM     BASIS     RHF  

 PROGRAMS   *        TOTAL   CCSD(T)       RHF       INT
 CPU TIMES  *        32.98     30.68      1.36      0.89
 REAL TIME  *        34.38 SEC
 DISK USED  *       215.52 MB      
 GA USED    *         0.00 MB       (max)       0.00 MB       (current)
 **********************************************************************************************************************************

        CCSD(T)         RHF-SCF 
   -229.36498142   -228.60563787
 **********************************************************************************************************************************
 Variable memory released
