
 Primary working directories    : /tmp/916840.52.gen6.q
 Secondary working directories  : /tmp/916840.52.gen6.q
 Wavefunction directory         : /home/vulcan/lo21740/wfu/
 Main file repository           : /tmp/916840.52.gen6.q/

 ARCHNAME  : Linux/x86_64
 FC        : /opt/intel/compilers_and_libraries_2016.1.150/linux/bin/intel64/ifort
 FCVERSION : 16.0.1
 BLASLIB   : -mkl
 id        : ccgc

 Nodes     nprocs
 n076         1
 ga_uses_ma=false, calling ma_init with nominal heap.
 GA-space will be limited to   8.0 MW (determined by -G option)

 Using customized tuning parameters: mindgm=10; mindgv=16; mindgc=4; mindgr=1; noblas=0; mincuda=1000; minvec=7
 default implementation of scratch files=df  

 ***,Optimization of h2o_2
 memory,1000,m
 gthresh,energy=1.0d-12,orbital=1.0d-10,oneint=1.0d-16,twoint=1.0d-16,optgrad=1.0d-6,compress=1.0d-13
 geomtyp=xyz
 
 bohr
 geometry = {
  O   -2.8174861680   -0.2062013230    0.0000000000
  H   -3.5674073882    1.4473049268    0.0000000000
  H   -1.0157836983    0.1070895744    0.0000000000
  O    2.6836532609    0.1990839720    0.0000000000
  H    3.3410060009   -0.7036616981   -1.4444212291
  H    3.3410060009   -0.7036616981    1.4444212291
 }
 
 basis=aug-cc-pvdz, H=cc-pvdz
 {rhf;maxit,200}
 {ccsd(t);maxit,200}

 Variables initialized (661), CPU time= 0.00 sec
 Commands  initialized (458), CPU time= 0.00 sec, 486 directives.
 Default parameters read. Elapsed time= 0.05 sec

 Checking input...
 Passed
1


                                         ***  PROGRAM SYSTEM MOLPRO  ***
                         Copyright, University College Cardiff Consultants Limited, 2008

                                    Version 2010.1 linked May 16 2016 07:17:05


 **********************************************************************************************************************************
 LABEL *   Optimization of h2o_2                                                         
 Linux-4.4.3/n076(x86_64) 64 bit mpp version                                             DATE: 18-Jul-23          TIME: 11:11:41  
 **********************************************************************************************************************************

 SHA1:             9e8077add272b0f3cad6f7df79ec5211205f459d
 **********************************************************************************************************************************

 THRESHOLDS:

 ZERO    =  1.00D-12  ONEINT  =  1.00D-16  TWOINT  =  1.00D-16  PREFAC  =  1.00D-14  LOCALI  =  1.00D-09  EORDER  =  1.00D-04
 ENERGY  =  1.00D-12  ETEST   =  0.00D+00  EDENS   =  0.00D+00  THRDEDEF=  1.00D-06  GRADIENT=  1.00D-02  STEP    =  1.00D-03
 ORBITAL =  1.00D-10  CIVEC   =  1.00D-05  COEFF   =  1.00D-04  PRINTCI =  5.00D-02  PUNCHCI =  9.90D+01  OPTGRAD =  1.00D-06
 OPTENERG=  1.00D-06  OPTSTEP =  3.00D-04  THRGRAD =  1.00D-10  COMPRESS=  1.00D-13  VARMIN  =  1.00D-07  VARMAX  =  1.00D-03
 THRDOUB =  0.00D+00  THRDIV  =  1.00D-05  THRRED  =  1.00D-07  THRPSP  =  1.00D+00  THRDC   =  1.00D-10  THRCS   =  1.00D-10
 THRNRM  =  1.00D-08  THREQ   =  0.00D+00  THRDE   =  1.00D+00  THRREF  =  1.00D-05  SPARFAC =  1.00D+00  THRDLP  =  1.00D-07
 THRDIA  =  1.00D-10  THRDLS  =  1.00D-07  THRGPS  =  0.00D+00  THRKEX  =  0.00D+00  THRDIS  =  2.00D-01  THRVAR  =  1.00D-10
 THRLOC  =  1.00D-06  THRGAP  =  1.00D-06  THRLOCT = -1.00D+00  THRGAPT = -1.00D+00  THRORB  =  1.00D-06  THRMLTP =  0.00D+00
 THRCPQCI=  1.00D-10  KEXTA   =  0.00D+00  THRCOARS=  0.00D+00  SYMTOL  =  1.00D-06  GRADTOL =  1.00D-06  THROVL  =  1.00D-08
 THRORTH =  1.00D-08  GRID    =  1.00D-06  GRIDMAX =  1.00D-03  DTMAX   =  0.00D+00

 SETTING GEOMTYP        =    XYZ
 ZUNIT=BOHR
 

 Variable memory set to 1000000000 words,  buffer space   230000 words

 SETTING BASIS          =    AUG-CC-PVDZ,H=CC-PVDZ


 Recomputing integrals since basis changed


 Using spherical harmonics

 Library entry O      S aug-cc-pVDZ          selected for orbital group  1
 Library entry O      P aug-cc-pVDZ          selected for orbital group  1
 Library entry O      D aug-cc-pVDZ          selected for orbital group  1
 Library entry H      S cc-pVDZ              selected for orbital group  2
 Library entry H      P cc-pVDZ              selected for orbital group  2

1PROGRAM * SEWARD (Integral evaluation for generally contracted gaussian basis sets)     Author: Roland Lindh, 1990

 Geometry written to block  1 of record 700


 Point group  Cs  



 ATOMIC COORDINATES

 NR  ATOM    CHARGE       X              Y              Z

   1  O       8.00   -2.817486168   -0.206201323    0.000000000
   2  H       1.00   -3.567407388    1.447304927    0.000000000
   3  H       1.00   -1.015783698    0.107089574    0.000000000
   4  O       8.00    2.683653261    0.199083972    0.000000000
   5  H       1.00    3.341006001   -0.703661698   -1.444421229
   6  H       1.00    3.341006001   -0.703661698    1.444421229

 Bond lengths in Bohr (Angstrom)

 1-2  1.815616907  1-3  1.828738083  4-5  1.825764239  4-6  1.825764239
     ( 0.960783088)     ( 0.967726515)     ( 0.966152824)     ( 0.966152824)

 Bond angles

  2-1-3  104.53160046   5-4-6  104.58292305

 NUCLEAR CHARGE:                   20
 NUMBER OF PRIMITIVE AOS:         102
 NUMBER OF SYMMETRY AOS:           98
 NUMBER OF CONTRACTIONS:           66   (  45A'  +  21A"  )
 NUMBER OF CORE ORBITALS:           2   (   2A'  +   0A"  )
 NUMBER OF VALENCE ORBITALS:       12   (   9A'  +   3A"  )


 NUCLEAR REPULSION ENERGY   36.47849618


 Eigenvalues of metric

         1 0.612E-02 0.787E-02 0.121E-01 0.130E-01 0.166E-01 0.209E-01 0.377E-01 0.490E-01
         2 0.166E-01 0.287E-01 0.134E+00 0.139E+00 0.246E+00 0.306E+00 0.322E+00 0.349E+00


 Contracted 2-electron integrals neglected if value below      1.0D-16
 AO integral compression algorithm  1   Integral accuracy      1.0D-16

     12.583 MB (compressed) written to integral file ( 94.3%)

     Node minimum: 12.583 MB, node maximum: 12.583 MB


 NUMBER OF SORTED TWO-ELECTRON INTEGRALS:    1280181.     BUFFER LENGTH:  32768
 NUMBER OF SEGMENTS:   1  SEGMENT LENGTH:    1280181      RECORD LENGTH: 524288

 Memory used in sort:       1.84 MW

 SORT1 READ     1642187. AND WROTE     1247374. INTEGRALS IN      4 RECORDS. CPU TIME:     0.01 SEC, REAL TIME:     0.02 SEC
 SORT2 READ     1247374. AND WROTE     1280181. INTEGRALS IN     48 RECORDS. CPU TIME:     0.02 SEC, REAL TIME:     0.03 SEC

 FILE SIZES:   FILE 1:    12.4 MBYTE,  FILE 4:    16.8 MBYTE,   TOTAL:     29.2 MBYTE

 OPERATOR DM      FOR CENTER  0  COORDINATES:    0.000000    0.000000    0.000000


 **********************************************************************************************************************************
 DATASETS  * FILE   NREC   LENGTH (MB)   RECORD NAMES
              1      19       12.42       500      610      700      900      950      970     1000      129      960     1100   
                                          VAR    BASINP    GEOM    SYMINP    ZMAT    AOBASIS   BASIS     P2S    ABASIS      S 
                                         1400     1410     1200     1210     1080     1600     1650     1300     1700   
                                           T        V       H0       H01     AOSYM     SMH    MOLCAS    ERIS     OPER   

 PROGRAMS   *        TOTAL       INT
 CPU TIMES  *         0.23      0.20
 REAL TIME  *         0.45 SEC
 DISK USED  *        42.42 MB      
 GA USED    *         0.00 MB       (max)       0.00 MB       (current)
 **********************************************************************************************************************************

1PROGRAM * RHF-SCF (CLOSED SHELL)       Authors: W. Meyer, H.-J. Werner


 NUMBER OF ELECTRONS:      10+   10-
 CONVERGENCE THRESHOLDS:    1.00E-10 (Density)    1.00E-13 (Energy)
 MAX. NUMBER OF ITERATIONS:      200
 INTERPOLATION TYPE:            DIIS
 INTERPOLATION STEPS:              2 (START)      1 (STEP)
 LEVEL SHIFTS:                  0.00 (CLOSED)  0.00 (OPEN) 



 Orbital guess generated from atomic densities. Full valence occupancy:   11   3

 Molecular orbital dump at record        2100.2

 Initial alpha occupancy:   8   2
 Initial beta  occupancy:   8   2
 Wave function symmetry:    1

 ITERATION    DDIFF          GRAD             ENERGY        2-EL.EN.            DIPOLE MOMENTS         DIIS
    1      0.000D+00      0.000D+00      -152.02023794    191.160464    1.37358    0.09039    0.00000    0
    2      0.000D+00      0.157D-01      -152.06974040    184.674607    1.02559    0.03167    0.00000    1
    3      0.298D-01      0.883D-02      -152.08665507    187.462948    1.08550    0.05639    0.00000    2
    4      0.102D-01      0.988D-03      -152.08704778    187.240393    1.07166    0.05468    0.00000    3
    5      0.167D-02      0.237D-03      -152.08707775    187.261949    1.06766    0.05565    0.00000    4
    6      0.475D-03      0.479D-04      -152.08707926    187.264315    1.06682    0.05517    0.00000    5
    7      0.116D-03      0.196D-04      -152.08707940    187.263484    1.06661    0.05547    0.00000    6
    8      0.283D-04      0.488D-05      -152.08707942    187.263470    1.06650    0.05542    0.00000    7
    9      0.124D-04      0.695D-06      -152.08707942    187.263475    1.06648    0.05543    0.00000    6
   10      0.165D-05      0.133D-06      -152.08707942    187.263473    1.06648    0.05543    0.00000    6
   11      0.317D-06      0.347D-07      -152.08707942    187.263476    1.06648    0.05543    0.00000    6
   12      0.736D-07      0.998D-08      -152.08707942    187.263475    1.06648    0.05543    0.00000    6
   13      0.254D-07      0.303D-08      -152.08707942    187.263475    1.06648    0.05543    0.00000    6
   14      0.579D-08      0.106D-08      -152.08707942    187.263475    1.06648    0.05543    0.00000    7
   15      0.197D-08      0.284D-09      -152.08707942    187.263475    1.06648    0.05543    0.00000    7
   16      0.542D-09      0.144D-09      -152.08707942    187.263475    1.06648    0.05543    0.00000    7
   17      0.216D-09      0.377D-10      -152.08707942    187.263475    1.06648    0.05543    0.00000    8
   18      0.102D-09      0.417D-11      -152.08707942    187.263475    1.06648    0.05543    0.00000    8
   19      0.774D-11      0.163D-11      -152.08707942    187.263475    1.06648    0.05543    0.00000    7
   20      0.391D-11      0.250D-12      -152.08707942    187.263475    1.06648    0.05543    0.00000    6
   21      0.585D-12      0.542D-13      -152.08707942    187.263475    1.06648    0.05543    0.00000    6
   22      0.165D-12      0.188D-13      -152.08707942    187.263475    1.06648    0.05543    0.00000    6
   23      0.745D-13      0.125D-13      -152.08707942    187.263475    1.06648    0.05543    0.00000    0

 Final occupancy:   8   2

 !RHF STATE 1.1 Energy               -152.087079418074
 Nuclear energy                        36.47849618
 One-electron energy                 -282.19731320
 Two-electron energy                   93.63173760
 Virial quotient                       -1.00176819
 !RHF STATE 1.1 Dipole moment           1.06647644     0.05542986     0.00000000
 Dipole moment /Debye                   2.71053518     0.14087941     0.00000000

 Orbital energies:

         1.1          2.1          3.1          4.1          5.1          6.1          7.1          8.1          9.1         10.1
    -20.603154   -20.546173    -1.379125    -1.323522    -0.693791    -0.613359    -0.558871    -0.529547     0.112626     0.152818

         1.2          2.2          3.2          4.2
     -0.739432    -0.479946     0.165237     0.240337


 **********************************************************************************************************************************
 DATASETS  * FILE   NREC   LENGTH (MB)   RECORD NAMES
              1      19       12.42       500      610      700      900      950      970     1000      129      960     1100   
                                          VAR    BASINP    GEOM    SYMINP    ZMAT    AOBASIS   BASIS     P2S    ABASIS      S 
                                         1400     1410     1200     1210     1080     1600     1650     1300     1700   
                                           T        V       H0       H01     AOSYM     SMH    MOLCAS    ERIS     OPER   

              2       3        0.40       700     1000     2100   
                                         GEOM     BASIS     RHF  

 PROGRAMS   *        TOTAL       RHF       INT
 CPU TIMES  *         0.36      0.13      0.20
 REAL TIME  *         0.63 SEC
 DISK USED  *        42.42 MB      
 GA USED    *         0.00 MB       (max)       0.00 MB       (current)
 **********************************************************************************************************************************


1PROGRAM * CCSD (Closed-shell coupled cluster)     Authors: C. Hampel, H.-J. Werner, 1991, M. Deegan, P.J. Knowles, 1992


 Convergence thresholds:  THRVAR = 1.00D-08  THRDEN = 1.00D-12

 CCSD(T)     terms to be evaluated (factor= 1.000)


 Number of core orbitals:           2 (   2   0 )
 Number of closed-shell orbitals:   8 (   6   2 )
 Number of external orbitals:      56 (  37  19 )

 Molecular orbitals read from record     2100.2  Type=RHF/CANONICAL (state 1.1)

 Number of N-1 electron functions:               8
 Number of N-2 electron functions:              36
 Number of singly external CSFs:               260
 Number of doubly external CSFs:             51696
 Total number of CSFs:                       51957

 Length of J-op  integral file:               0.00 MB
 Length of K-op  integral file:               0.20 MB
 Length of 3-ext integral record:             0.00 MB

 Memory could be reduced to 1.36 Mwords without degradation in triples

 Integral transformation finished. Total CPU:   0.03 sec, npass=  1  Memory used:   0.50 MW

 Reference energy:                   -152.08707942

 MP2 singlet pair energy:              -0.27040182
 MP2 triplet pair energy:              -0.16871143
 MP2 correlation energy:               -0.43911325
 MP2 total energy:                   -152.52619266

 SCS-MP2 correlation energy:           -0.42945818   (PS=  1.200000  PT=  0.333333)
 SCS-MP2 total energy:               -152.51653760

 ITER.      SQ.NORM     CORR.ENERGY   TOTAL ENERGY   ENERGY CHANGE        DEN1      VAR(S)    VAR(P)  DIIS     TIME
   1      1.12089920    -0.45276111  -152.53984053    -0.01364786    -0.00438381  0.23D-02  0.17D-02  1  1     0.07
   2      1.12902138    -0.45410404  -152.54118346    -0.00134293    -0.00871855  0.16D-04  0.26D-03  2  2     0.11
   3      1.13184742    -0.45435995  -152.54143937    -0.00025591    -0.00160120  0.34D-04  0.92D-05  3  3     0.15
   4      1.13273674    -0.45430081  -152.54138023     0.00005914    -0.00038680  0.14D-05  0.88D-06  4  4     0.19
   5      1.13297211    -0.45428908  -152.54136850     0.00001173    -0.00007277  0.19D-06  0.54D-07  5  5     0.23
   6      1.13301951    -0.45428544  -152.54136486     0.00000364    -0.00000664  0.19D-07  0.50D-08  6  6     0.27
   7      1.13303104    -0.45428404  -152.54136346     0.00000140    -0.00000109  0.13D-08  0.91D-09  6  2     0.31
   8      1.13303363    -0.45428402  -152.54136344     0.00000002    -0.00000005  0.15D-09  0.75D-10  6  1     0.35
   9      1.13303417    -0.45428397  -152.54136339     0.00000005     0.00000018  0.12D-10  0.91D-11  6  4     0.39
  10      1.13303445    -0.45428395  -152.54136337     0.00000002    -0.00000004  0.20D-11  0.71D-12  6  3     0.43
  11      1.13303442    -0.45428396  -152.54136338    -0.00000001     0.00000004  0.34D-12  0.10D-12  6  5     0.47
  12      1.13303439    -0.45428396  -152.54136338    -0.00000000     0.00000001  0.65D-13  0.15D-13  6  6     0.51
  13      1.13303437    -0.45428396  -152.54136338    -0.00000000     0.00000001  0.85D-14  0.28D-14  6  1     0.55
  14      1.13303436    -0.45428396  -152.54136338    -0.00000000     0.00000000  0.14D-14  0.37D-15  6  2     0.59
  15      1.13303436    -0.45428396  -152.54136338    -0.00000000     0.00000000  0.27D-15  0.61D-16  6  4     0.63
  16      1.13303436    -0.45428396  -152.54136338    -0.00000000    -0.00000000  0.35D-16  0.13D-16  6  3     0.67
  17      1.13303436    -0.45428396  -152.54136338     0.00000000    -0.00000000  0.30D-17  0.18D-17  6  6     0.71
  18      1.13303436    -0.45428396  -152.54136338    -0.00000000     0.00000000  0.30D-18  0.14D-18  6  5     0.75
  19      1.13303436    -0.45428396  -152.54136338     0.00000000    -0.00000000  0.70D-19  0.23D-19  6  2     0.79
  20      1.13303436    -0.45428396  -152.54136338     0.00000000    -0.00000000  0.12D-19  0.38D-20  6  1     0.83

 Norm of t1 vector:      0.06804300      S-energy:    -0.00000000      T1 diagnostic:  0.01202842
                                                                       D1 diagnostic:  0.02669030


 Total CPU time for triples:      0.30 sec


 RESULTS
 =======

  Reference energy                   -152.087079418074
  CCSD singlet pair energy             -0.304821166930
  CCSD triplet pair energy             -0.149462797508
  CCSD correlation energy              -0.454283964440

  Triples (T) contribution             -0.010291270202
  Total correlation energy             -0.464575234642

  CCSD total energy                  -152.541363382514
  CCSD[T] energy                     -152.552384311374
  CCSD-T energy                      -152.551367953431
 !CCSD(T) total energy               -152.551654652716

 Timing summary (sec):

 STEP                 CPU(USER)    SYS     CPU(TOT)    WALL
 Transformation          0.03      0.01      0.04      0.04
 CCSD iterations         0.80      0.06      0.86      0.88
 Triples                 0.30      0.01      0.31      0.30

 Program statistics:

 Available memory in ccsd:               999999644
 Min. memory needed in ccsd:                173249
 Max. memory used in ccsd:                  213325
 Max. memory used in cckext:                255581 (20 integral passes)



 **********************************************************************************************************************************
 DATASETS  * FILE   NREC   LENGTH (MB)   RECORD NAMES
              1      20       16.37       500      610      700      900      950      970     1000      129      960     1100   
                                          VAR    BASINP    GEOM    SYMINP    ZMAT    AOBASIS   BASIS     P2S    ABASIS      S 
                                         1400     1410     1200     1210     1080     1600     1650     1300     1700     1380   
                                           T        V       H0       H01     AOSYM     SMH    MOLCAS    ERIS     OPER     JKOP   

              2       3        0.40       700     1000     2100   
                                         GEOM     BASIS     RHF  

 PROGRAMS   *        TOTAL   CCSD(T)       RHF       INT
 CPU TIMES  *         1.50      1.14      0.13      0.20
 REAL TIME  *         1.91 SEC
 DISK USED  *        42.42 MB      
 GA USED    *         0.00 MB       (max)       0.00 MB       (current)
 **********************************************************************************************************************************

        CCSD(T)         RHF-SCF 
   -152.55165465   -152.08707942
 **********************************************************************************************************************************
 Variable memory released
