
 Primary working directories    : /tmp/879303.737.gen6.q
 Secondary working directories  : /tmp/879303.737.gen6.q
 Wavefunction directory         : /home/vulcan/lo21740/wfu/
 Main file repository           : /tmp/879303.737.gen6.q/

 ARCHNAME  : Linux/x86_64
 FC        : /opt/intel/compilers_and_libraries_2016.1.150/linux/bin/intel64/ifort
 FCVERSION : 16.0.1
 BLASLIB   : -mkl
 id        : ccgc

 Nodes     nprocs
 n074         1
 ga_uses_ma=false, calling ma_init with nominal heap.
 GA-space will be limited to   8.0 MW (determined by -G option)

 Using customized tuning parameters: mindgm=10; mindgv=16; mindgc=4; mindgr=1; noblas=0; mincuda=1000; minvec=7
 default implementation of scratch files=df  

 ***,Optimization of formamide
 memory,1000,m
 gthresh,energy=1.0d-12,orbital=1.0d-10,oneint=1.0d-16,twoint=1.0d-16,optgrad=1.0d-6,compress=1.0d-13
 geomtyp=xyz
 
 bohr
 geometry = {
  C   -3.8248934275    0.0842728959   -0.0006590574
  O   -2.7260930250    2.1329849040   -0.0034010337
  N   -2.6823879231   -2.1778104146   -0.0006999702
  H   -3.7374961379   -3.7554013186   -0.0020600435
  H   -0.7539408404   -2.2992987923    0.0008098187
  H   -5.9008499073   -0.0183609818    0.0035204185
  C    3.8248934275   -0.0842728959    0.0006590574
  O    2.7260930250   -2.1329849040    0.0034010337
  N    2.6823879231    2.1778104146    0.0006999702
  H    3.7374961379    3.7554013186    0.0020600435
  H    0.7539408404    2.2992987923   -0.0008098187
  H    5.9008499073    0.0183609818   -0.0035204185
 }
 
 basis=AVDZ, H=VDZ
 {rhf;maxit,200}
 {ccsd(t);maxit,200}

 Variables initialized (661), CPU time= 0.00 sec
 Commands  initialized (458), CPU time= 0.00 sec, 486 directives.
 Default parameters read. Elapsed time= 0.04 sec

 Checking input...
 Passed
1


                                         ***  PROGRAM SYSTEM MOLPRO  ***
                         Copyright, University College Cardiff Consultants Limited, 2008

                                    Version 2010.1 linked May 16 2016 07:17:05


 **********************************************************************************************************************************
 LABEL *   Optimization of formamide                                                     
 Linux-4.4.3/n074(x86_64) 64 bit mpp version                                             DATE: 23-May-23          TIME: 19:02:22  
 **********************************************************************************************************************************

 SHA1:             9e8077add272b0f3cad6f7df79ec5211205f459d
 **********************************************************************************************************************************

 THRESHOLDS:

 ZERO    =  1.00D-12  ONEINT  =  1.00D-16  TWOINT  =  1.00D-16  PREFAC  =  1.00D-14  LOCALI  =  1.00D-09  EORDER  =  1.00D-04
 ENERGY  =  1.00D-12  ETEST   =  0.00D+00  EDENS   =  0.00D+00  THRDEDEF=  1.00D-06  GRADIENT=  1.00D-02  STEP    =  1.00D-03
 ORBITAL =  1.00D-10  CIVEC   =  1.00D-05  COEFF   =  1.00D-04  PRINTCI =  5.00D-02  PUNCHCI =  9.90D+01  OPTGRAD =  1.00D-06
 OPTENERG=  1.00D-06  OPTSTEP =  3.00D-04  THRGRAD =  1.00D-10  COMPRESS=  1.00D-13  VARMIN  =  1.00D-07  VARMAX  =  1.00D-03
 THRDOUB =  0.00D+00  THRDIV  =  1.00D-05  THRRED  =  1.00D-07  THRPSP  =  1.00D+00  THRDC   =  1.00D-10  THRCS   =  1.00D-10
 THRNRM  =  1.00D-08  THREQ   =  0.00D+00  THRDE   =  1.00D+00  THRREF  =  1.00D-05  SPARFAC =  1.00D+00  THRDLP  =  1.00D-07
 THRDIA  =  1.00D-10  THRDLS  =  1.00D-07  THRGPS  =  0.00D+00  THRKEX  =  0.00D+00  THRDIS  =  2.00D-01  THRVAR  =  1.00D-10
 THRLOC  =  1.00D-06  THRGAP  =  1.00D-06  THRLOCT = -1.00D+00  THRGAPT = -1.00D+00  THRORB  =  1.00D-06  THRMLTP =  0.00D+00
 THRCPQCI=  1.00D-10  KEXTA   =  0.00D+00  THRCOARS=  0.00D+00  SYMTOL  =  1.00D-06  GRADTOL =  1.00D-06  THROVL  =  1.00D-08
 THRORTH =  1.00D-08  GRID    =  1.00D-06  GRIDMAX =  1.00D-03  DTMAX   =  0.00D+00

 SETTING GEOMTYP        =    XYZ
 ZUNIT=BOHR
 

 Variable memory set to 1000000000 words,  buffer space   230000 words

 SETTING BASIS          =    AVDZ,H=VDZ


 Recomputing integrals since basis changed


 Using spherical harmonics

 Library entry C      S aug-cc-pVDZ          selected for orbital group  1
 Library entry C      P aug-cc-pVDZ          selected for orbital group  1
 Library entry C      D aug-cc-pVDZ          selected for orbital group  1
 Library entry O      S aug-cc-pVDZ          selected for orbital group  2
 Library entry O      P aug-cc-pVDZ          selected for orbital group  2
 Library entry O      D aug-cc-pVDZ          selected for orbital group  2
 Library entry N      S aug-cc-pVDZ          selected for orbital group  3
 Library entry N      P aug-cc-pVDZ          selected for orbital group  3
 Library entry N      D aug-cc-pVDZ          selected for orbital group  3
 Library entry H      S cc-pVDZ              selected for orbital group  4
 Library entry H      P cc-pVDZ              selected for orbital group  4

1PROGRAM * SEWARD (Integral evaluation for generally contracted gaussian basis sets)     Author: Roland Lindh, 1990

 Geometry written to block  1 of record 700


 Point group  Ci  



 ATOMIC COORDINATES

 NR  ATOM    CHARGE       X              Y              Z

   1  C       6.00   -3.824893428    0.084272896   -0.000659057
   2  C       6.00    3.824893428   -0.084272896    0.000659057
   3  O       8.00   -2.726093025    2.132984904   -0.003401034
   4  O       8.00    2.726093025   -2.132984904    0.003401034
   5  N       7.00   -2.682387923   -2.177810415   -0.000699970
   6  N       7.00    2.682387923    2.177810415    0.000699970
   7  H       1.00   -3.737496138   -3.755401319   -0.002060043
   8  H       1.00    3.737496138    3.755401319    0.002060043
   9  H       1.00   -0.753940840   -2.299298792    0.000809819
  10  H       1.00    0.753940840    2.299298792   -0.000809819
  11  H       1.00   -5.900849907   -0.018360982    0.003520419
  12  H       1.00    5.900849907    0.018360982   -0.003520419

 Bond lengths in Bohr (Angstrom)

  1- 3  2.324777567   1- 5  2.534233559   1-11  2.078496208   2- 4  2.324777567   2- 6  2.534233559
       ( 1.230219304)       ( 1.341058642)       ( 1.099892822)       ( 1.230219304)       ( 1.341058642)

  2-12  2.078496208   5- 7  1.897906282   5- 9  1.932270648   6- 8  1.897906282   6-10  1.932270648
       ( 1.099892822)       ( 1.004328749)       ( 1.022513588)       ( 1.004328749)       ( 1.022513588)

 Bond angles

  1- 5- 7  119.42812776   1- 5- 9  120.40161879   2- 6- 8  119.42812776   2- 6-10  120.40161879

  3- 1- 5  124.99678538   3- 1-11  121.03673807   4- 2- 6  124.99678538   4- 2-12  121.03673807

  5- 1-11  113.96646277   6- 2-12  113.96646277   7- 5- 9  120.17025319   8- 6-10  120.17025319

 NUCLEAR CHARGE:                   48
 NUMBER OF PRIMITIVE AOS:         264
 NUMBER OF SYMMETRY AOS:          252
 NUMBER OF CONTRACTIONS:          168   (  84Ag  +  84Au  )
 NUMBER OF CORE ORBITALS:           6   (   3Ag  +   3Au  )
 NUMBER OF VALENCE ORBITALS:       30   (  15Ag  +  15Au  )


 NUCLEAR REPULSION ENERGY  230.73087201


 Eigenvalues of metric

         1 0.624E-03 0.114E-02 0.161E-02 0.365E-02 0.512E-02 0.793E-02 0.797E-02 0.897E-02
         2 0.416E-03 0.134E-02 0.168E-02 0.435E-02 0.522E-02 0.719E-02 0.810E-02 0.107E-01


 Contracted 2-electron integrals neglected if value below      1.0D-16
 AO integral compression algorithm  1   Integral accuracy      1.0D-16

     490.996 MB (compressed) written to integral file ( 94.7%)

     Node minimum: 490.996 MB, node maximum: 490.996 MB


 NUMBER OF SORTED TWO-ELECTRON INTEGRALS:   50983170.     BUFFER LENGTH:  32768
 NUMBER OF SEGMENTS:   4  SEGMENT LENGTH:   15993600      RECORD LENGTH: 524288

 Memory used in sort:      16.55 MW

 SORT1 READ    64801056. AND WROTE    50982894. INTEGRALS IN    147 RECORDS. CPU TIME:     0.60 SEC, REAL TIME:     0.93 SEC
 SORT2 READ    50982894. AND WROTE    50983170. INTEGRALS IN   1873 RECORDS. CPU TIME:     0.47 SEC, REAL TIME:     0.67 SEC

 FILE SIZES:   FILE 1:   398.8 MBYTE,  FILE 4:   616.6 MBYTE,   TOTAL:   1015.4 MBYTE

 OPERATOR DM      FOR CENTER  0  COORDINATES:    0.000000    0.000000    0.000000


 **********************************************************************************************************************************
 DATASETS  * FILE   NREC   LENGTH (MB)   RECORD NAMES
              1      19      399.01       500      610      700      900      950      970     1000      129      960     1100   
                                          VAR    BASINP    GEOM    SYMINP    ZMAT    AOBASIS   BASIS     P2S    ABASIS      S 
                                         1400     1410     1200     1210     1080     1600     1650     1300     1700   
                                           T        V       H0       H01     AOSYM     SMH    MOLCAS    ERIS     OPER   

 PROGRAMS   *        TOTAL       INT
 CPU TIMES  *         3.73      3.70
 REAL TIME  *         4.63 SEC
 DISK USED  *         1.51 GB      
 GA USED    *         0.00 MB       (max)       0.00 MB       (current)
 **********************************************************************************************************************************

1PROGRAM * RHF-SCF (CLOSED SHELL)       Authors: W. Meyer, H.-J. Werner


 NUMBER OF ELECTRONS:      24+   24-
 CONVERGENCE THRESHOLDS:    1.00E-10 (Density)    1.00E-13 (Energy)
 MAX. NUMBER OF ITERATIONS:      200
 INTERPOLATION TYPE:            DIIS
 INTERPOLATION STEPS:              2 (START)      1 (STEP)
 LEVEL SHIFTS:                  0.00 (CLOSED)  0.00 (OPEN) 



 Orbital guess generated from atomic densities. Full valence occupancy:   18  18

 Molecular orbital dump at record        2100.2

 Initial alpha occupancy:  12  12
 Initial beta  occupancy:  12  12
 Wave function symmetry:    1

 ITERATION    DDIFF          GRAD             ENERGY        2-EL.EN.            DIPOLE MOMENTS         DIIS
    1      0.000D+00      0.000D+00      -337.80444984    705.142538    0.00000    0.00000    0.00000    0
    2      0.000D+00      0.906D-02      -337.88201285    699.505447    0.00000    0.00000    0.00000    1
    3      0.173D-01      0.659D-02      -337.93948891    702.254308    0.00000    0.00000    0.00000    2
    4      0.684D-02      0.872D-03      -337.94169017    702.158187    0.00000    0.00000    0.00000    3
    5      0.151D-02      0.299D-03      -337.94195470    702.091658    0.00000    0.00000    0.00000    4
    6      0.539D-03      0.979D-04      -337.94201489    702.117143    0.00000    0.00000    0.00000    5
    7      0.232D-03      0.434D-04      -337.94202565    702.108478    0.00000    0.00000    0.00000    6
    8      0.115D-03      0.128D-04      -337.94202657    702.113892    0.00000    0.00000    0.00000    7
    9      0.356D-04      0.384D-05      -337.94202664    702.111458    0.00000    0.00000    0.00000    8
   10      0.942D-05      0.134D-05      -337.94202665    702.112005    0.00000    0.00000    0.00000    7
   11      0.391D-05      0.321D-06      -337.94202665    702.111933    0.00000    0.00000    0.00000    8
   12      0.907D-06      0.479D-07      -337.94202665    702.111939    0.00000    0.00000    0.00000    7
   13      0.140D-06      0.113D-07      -337.94202665    702.111940    0.00000    0.00000    0.00000    7
   14      0.348D-07      0.206D-08      -337.94202665    702.111940    0.00000    0.00000    0.00000    6
   15      0.494D-08      0.852D-09      -337.94202665    702.111940    0.00000    0.00000    0.00000    6
   16      0.177D-08      0.311D-09      -337.94202665    702.111940    0.00000    0.00000    0.00000    7
   17      0.564D-09      0.775D-10      -337.94202665    702.111940    0.00000    0.00000    0.00000    7
   18      0.171D-09      0.231D-10      -337.94202665    702.111940    0.00000    0.00000    0.00000    7
   19      0.602D-10      0.746D-11      -337.94202665    702.111940    0.00000    0.00000    0.00000    7
   20      0.188D-10      0.291D-11      -337.94202665    702.111940    0.00000    0.00000    0.00000    8
   21      0.823D-11      0.538D-12      -337.94202665    702.111940    0.00000    0.00000    0.00000    8
   22      0.184D-11      0.197D-12      -337.94202665    702.111940    0.00000    0.00000    0.00000    7
   23      0.157D-11      0.968D-13      -337.94202665    702.111940    0.00000    0.00000    0.00000    8
   24      0.685D-12      0.589D-13      -337.94202665    702.111940    0.00000    0.00000    0.00000    8
   25      0.752D-12      0.611D-13      -337.94202665    702.111940    0.00000    0.00000    0.00000    9
   26      0.423D-12      0.431D-13      -337.94202665    702.111940    0.00000    0.00000    0.00000    0

 Final occupancy:  12  12

 !RHF STATE 1.1 Energy               -337.942026649775
 Nuclear energy                       230.73087201
 One-electron energy                 -919.72886883
 Two-electron energy                  351.05597017
 Virial quotient                       -1.00167914
 !RHF STATE 1.1 Dipole moment           0.00000000     0.00000000     0.00000000
 Dipole moment /Debye                   0.00000000     0.00000000     0.00000000

 Orbital energies:

         1.1          2.1          3.1          4.1          5.1          6.1          7.1          8.1          9.1         10.1
    -20.540328   -15.589057   -11.367721    -1.389978    -1.212997    -0.861081    -0.750474    -0.645213    -0.619344    -0.566213

        11.1         12.1         13.1         14.1
     -0.454140    -0.420377     0.068821     0.093386

         1.2          2.2          3.2          4.2          5.2          6.2          7.2          8.2          9.2         10.2
    -20.540328   -15.589057   -11.367722    -1.385202    -1.219236    -0.835812    -0.741565    -0.706080    -0.593568    -0.574281

        11.2         12.2         13.2         14.2
     -0.428918    -0.409771     0.068016     0.083188


 **********************************************************************************************************************************
 DATASETS  * FILE   NREC   LENGTH (MB)   RECORD NAMES
              1      19      399.01       500      610      700      900      950      970     1000      129      960     1100   
                                          VAR    BASINP    GEOM    SYMINP    ZMAT    AOBASIS   BASIS     P2S    ABASIS      S 
                                         1400     1410     1200     1210     1080     1600     1650     1300     1700   
                                           T        V       H0       H01     AOSYM     SMH    MOLCAS    ERIS     OPER   

              2       3        0.76       700     1000     2100   
                                         GEOM     BASIS     RHF  

 PROGRAMS   *        TOTAL       RHF       INT
 CPU TIMES  *         9.57      5.84      3.70
 REAL TIME  *        11.44 SEC
 DISK USED  *         1.51 GB      
 GA USED    *         0.00 MB       (max)       0.00 MB       (current)
 **********************************************************************************************************************************


1PROGRAM * CCSD (Closed-shell coupled cluster)     Authors: C. Hampel, H.-J. Werner, 1991, M. Deegan, P.J. Knowles, 1992


 Convergence thresholds:  THRVAR = 1.00D-08  THRDEN = 1.00D-12

 CCSD(T)     terms to be evaluated (factor= 1.000)


 Number of core orbitals:           6 (   3   3 )
 Number of closed-shell orbitals:  18 (   9   9 )
 Number of external orbitals:     144 (  72  72 )

 Molecular orbitals read from record     2100.2  Type=RHF/CANONICAL (state 1.1)

 Number of N-1 electron functions:              18
 Number of N-2 electron functions:             171
 Number of singly external CSFs:              1296
 Number of doubly external CSFs:           1680912
 Total number of CSFs:                     1682209

 Length of J-op  integral file:               0.00 MB
 Length of K-op  integral file:               1.01 MB
 Length of 3-ext integral record:             0.00 MB

 Memory could be reduced to 35.12 Mwords without degradation in triples

 Integral transformation finished. Total CPU:   2.02 sec, npass=  1  Memory used:  19.69 MW

 Reference energy:                   -337.94202665

 MP2 singlet pair energy:              -0.61922282
 MP2 triplet pair energy:              -0.40463997
 MP2 correlation energy:               -1.02386279
 MP2 total energy:                   -338.96588944

 SCS-MP2 correlation energy:           -0.99484337   (PS=  1.200000  PT=  0.333333)
 SCS-MP2 total energy:               -338.93687002

 ITER.      SQ.NORM     CORR.ENERGY   TOTAL ENERGY   ENERGY CHANGE        DEN1      VAR(S)    VAR(P)  DIIS     TIME
   1      1.31825156    -1.05262232  -338.99464897    -0.02875952     0.00224952  0.10D-01  0.59D-02  1  1     5.04
   2      1.34361420    -1.05457611  -338.99660276    -0.00195379    -0.02580345  0.22D-03  0.11D-02  2  2     8.25
   3      1.35611395    -1.05546383  -338.99749048    -0.00088772    -0.00552095  0.22D-03  0.51D-04  3  3    11.47
   4      1.36127010    -1.05520150  -338.99722815     0.00026233    -0.00167564  0.21D-04  0.92D-05  4  4    14.69
   5      1.36337040    -1.05514566  -338.99717231     0.00005583    -0.00043821  0.26D-05  0.11D-05  5  5    17.92
   6      1.36387330    -1.05511655  -338.99714320     0.00002912    -0.00004706  0.24D-06  0.17D-06  6  6    21.13
   7      1.36399943    -1.05510473  -338.99713138     0.00001182    -0.00000758  0.31D-07  0.22D-07  6  2    24.35
   8      1.36402334    -1.05510459  -338.99713124     0.00000014    -0.00000002  0.58D-08  0.26D-08  6  1    27.57
   9      1.36402569    -1.05510429  -338.99713094     0.00000030     0.00000182  0.92D-09  0.46D-09  6  4    30.79
  10      1.36402975    -1.05510424  -338.99713089     0.00000006    -0.00000043  0.26D-09  0.46D-10  6  3    34.02
  11      1.36402998    -1.05510431  -338.99713096    -0.00000007     0.00000015  0.38D-10  0.11D-10  6  5    37.24
  12      1.36402979    -1.05510433  -338.99713098    -0.00000002     0.00000008  0.51D-11  0.26D-11  6  6    40.47
  13      1.36402950    -1.05510437  -338.99713102    -0.00000004     0.00000013  0.78D-12  0.34D-12  6  2    43.70
  14      1.36402934    -1.05510438  -338.99713102    -0.00000001     0.00000004  0.11D-12  0.67D-13  6  1    46.92
  15      1.36402928    -1.05510438  -338.99713103    -0.00000000     0.00000001  0.21D-13  0.13D-13  6  4    50.14
  16      1.36402924    -1.05510438  -338.99713103    -0.00000000     0.00000000  0.37D-14  0.21D-14  6  3    53.37
  17      1.36402923    -1.05510438  -338.99713103    -0.00000000    -0.00000000  0.90D-15  0.34D-15  6  5    56.59
  18      1.36402923    -1.05510438  -338.99713103    -0.00000000     0.00000000  0.12D-15  0.81D-16  6  6    59.80
  19      1.36402923    -1.05510438  -338.99713103    -0.00000000     0.00000000  0.34D-16  0.13D-16  6  2    63.02
  20      1.36402923    -1.05510438  -338.99713103    -0.00000000     0.00000000  0.60D-17  0.21D-17  6  1    66.25
  21      1.36402923    -1.05510438  -338.99713103    -0.00000000     0.00000000  0.11D-17  0.61D-18  6  4    69.47
  22      1.36402923    -1.05510438  -338.99713103    -0.00000000     0.00000000  0.35D-18  0.15D-18  6  3    72.70
  23      1.36402923    -1.05510438  -338.99713103    -0.00000000     0.00000000  0.91D-19  0.26D-19  6  5    75.91
  24      1.36402923    -1.05510438  -338.99713103    -0.00000000    -0.00000000  0.17D-19  0.69D-20  6  6    79.14
  25      1.36402923    -1.05510438  -338.99713103     0.00000000    -0.00000000  0.41D-20  0.14D-20  6  4    82.35

 Norm of t1 vector:      0.14752664      S-energy:    -0.00000000      T1 diagnostic:  0.01738618
                                                                       D1 diagnostic:  0.05879803


 Total CPU time for triples:     82.08 sec


 RESULTS
 =======

  Reference energy                   -337.942026649776
  CCSD singlet pair energy             -0.696283501390
  CCSD triplet pair energy             -0.358820880468
  CCSD correlation energy              -1.055104381860

  Triples (T) contribution             -0.039181137611
  Total correlation energy             -1.094285519471

  CCSD total energy                  -338.997131031635
  CCSD[T] energy                     -339.039489797098
  CCSD-T energy                      -339.035220803112
 !CCSD(T) total energy               -339.036312169246

 Timing summary (sec):

 STEP                 CPU(USER)    SYS     CPU(TOT)    WALL
 Transformation          2.06      0.20      2.26      2.26
 CCSD iterations        80.29      2.83     83.12     83.24
 Triples                82.08      1.99     84.07     84.09

 Program statistics:

 Available memory in ccsd:               999998604
 Min. memory needed in ccsd:               4264540
 Max. memory used in ccsd:                 5806348
 Max. memory used in cckext:               5610853 (25 integral passes)



 **********************************************************************************************************************************
 DATASETS  * FILE   NREC   LENGTH (MB)   RECORD NAMES
              1      20      537.53       500      610      700      900      950      970     1000      129      960     1100   
                                          VAR    BASINP    GEOM    SYMINP    ZMAT    AOBASIS   BASIS     P2S    ABASIS      S 
                                         1400     1410     1200     1210     1080     1600     1650     1300     1700     1380   
                                           T        V       H0       H01     AOSYM     SMH    MOLCAS    ERIS     OPER     JKOP   

              2       3        0.76       700     1000     2100   
                                         GEOM     BASIS     RHF  

 PROGRAMS   *        TOTAL   CCSD(T)       RHF       INT
 CPU TIMES  *       174.01    164.44      5.84      3.70
 REAL TIME  *       181.07 SEC
 DISK USED  *         1.51 GB      
 GA USED    *         0.00 MB       (max)       0.00 MB       (current)
 **********************************************************************************************************************************

        CCSD(T)         RHF-SCF 
   -339.03631217   -337.94202665
 **********************************************************************************************************************************
 Variable memory released
