
 Primary working directories    : /tmp/1049102.1355.gen4.q
 Secondary working directories  : /tmp/1049102.1355.gen4.q
 Wavefunction directory         : /home/vulcan/mel64643/wfu/
 Main file repository           : /tmp/1049102.1355.gen4.q/

 ARCHNAME  : Linux/x86_64
 FC        : /opt/intel/compilers_and_libraries_2016.1.150/linux/bin/intel64/ifort
 FCVERSION : 16.0.1
 BLASLIB   : -mkl
 id        : ccgc

 Nodes     nprocs
 n067         1
 ga_uses_ma=false, calling ma_init with nominal heap.
 GA-space will be limited to   8.0 MW (determined by -G option)

 Using customized tuning parameters: mindgm=10; mindgv=16; mindgc=4; mindgr=1; noblas=0; mincuda=1000; minvec=7
 default implementation of scratch files=df  

 ***,Optimization of h2o_3
 memory,1000,m
 gthresh,energy=1.0d-12,orbital=1.0d-10,oneint=1.0d-16,twoint=1.0d-16,optgrad=1.0d-6,compress=1.0d-13
 geomtyp=xyz
 
 
 
 bohr
 geometry = {
  C    0.9166978009    1.4043199221   -2.2737641066
  C    0.7413847564    2.7081494332    0.0177416543
  C    0.9999850049    1.4047167111    2.3017363498
  C    1.4323001122   -1.2025974137    2.2942266704
  C    1.6083405633   -2.5059356086    0.0027630164
  C    1.3497988518   -1.2022792521   -2.2810275591
  H    0.7060560632    2.4207087624   -4.0393252137
  H    0.3909007718    4.7257569607    0.0277868329
  H    0.8582339215    2.4183253458    4.0759803347
  H    1.6289870919   -2.2057585545    4.0693532359
  H    1.9414685998   -4.5269848686    0.0010873176
  H    1.4831949855   -2.2093577333   -4.0599184209
  N   -5.4417853533   -0.3565137643   -0.0706652852
  H   -5.5988413444   -1.5715739736   -1.5472343055
  H   -6.0748559396   -1.3189758769    1.4636191870
  H   -3.5609340189   -0.0737896878    0.1977179691
 }
 
 basis=aug-cc-pvdz, H=cc-pvdz
 {rhf;maxit,200}
 {ccsd(t)}

 Variables initialized (661), CPU time= 0.00 sec
 Commands  initialized (458), CPU time= 0.01 sec, 486 directives.
 Default parameters read. Elapsed time= 0.05 sec

 Checking input...
 Passed
1


                                         ***  PROGRAM SYSTEM MOLPRO  ***
                         Copyright, University College Cardiff Consultants Limited, 2008

                                    Version 2010.1 linked May 16 2016 07:17:05


 **********************************************************************************************************************************
 LABEL *   Optimization of h2o_3                                                         
 Linux-4.4.3/n067(x86_64) 64 bit mpp version                                             DATE: 20-Mar-24          TIME: 23:42:36  
 **********************************************************************************************************************************

 SHA1:             9e8077add272b0f3cad6f7df79ec5211205f459d
 **********************************************************************************************************************************

 THRESHOLDS:

 ZERO    =  1.00D-12  ONEINT  =  1.00D-16  TWOINT  =  1.00D-16  PREFAC  =  1.00D-14  LOCALI  =  1.00D-09  EORDER  =  1.00D-04
 ENERGY  =  1.00D-12  ETEST   =  0.00D+00  EDENS   =  0.00D+00  THRDEDEF=  1.00D-06  GRADIENT=  1.00D-02  STEP    =  1.00D-03
 ORBITAL =  1.00D-10  CIVEC   =  1.00D-05  COEFF   =  1.00D-04  PRINTCI =  5.00D-02  PUNCHCI =  9.90D+01  OPTGRAD =  1.00D-06
 OPTENERG=  1.00D-06  OPTSTEP =  3.00D-04  THRGRAD =  1.00D-10  COMPRESS=  1.00D-13  VARMIN  =  1.00D-07  VARMAX  =  1.00D-03
 THRDOUB =  0.00D+00  THRDIV  =  1.00D-05  THRRED  =  1.00D-07  THRPSP  =  1.00D+00  THRDC   =  1.00D-10  THRCS   =  1.00D-10
 THRNRM  =  1.00D-08  THREQ   =  0.00D+00  THRDE   =  1.00D+00  THRREF  =  1.00D-05  SPARFAC =  1.00D+00  THRDLP  =  1.00D-07
 THRDIA  =  1.00D-10  THRDLS  =  1.00D-07  THRGPS  =  0.00D+00  THRKEX  =  0.00D+00  THRDIS  =  2.00D-01  THRVAR  =  1.00D-10
 THRLOC  =  1.00D-06  THRGAP  =  1.00D-06  THRLOCT = -1.00D+00  THRGAPT = -1.00D+00  THRORB  =  1.00D-06  THRMLTP =  0.00D+00
 THRCPQCI=  1.00D-10  KEXTA   =  0.00D+00  THRCOARS=  0.00D+00  SYMTOL  =  1.00D-06  GRADTOL =  1.00D-06  THROVL  =  1.00D-08
 THRORTH =  1.00D-08  GRID    =  1.00D-06  GRIDMAX =  1.00D-03  DTMAX   =  0.00D+00

 SETTING GEOMTYP        =    XYZ
 ZUNIT=BOHR
 

 Variable memory set to 1000000000 words,  buffer space   230000 words

 SETTING BASIS          =    AUG-CC-PVDZ,H=CC-PVDZ


 Recomputing integrals since basis changed


 Using spherical harmonics

 Library entry C      S aug-cc-pVDZ          selected for orbital group  1
 Library entry C      P aug-cc-pVDZ          selected for orbital group  1
 Library entry C      D aug-cc-pVDZ          selected for orbital group  1
 Library entry H      S cc-pVDZ              selected for orbital group  2
 Library entry H      P cc-pVDZ              selected for orbital group  2
 Library entry N      S aug-cc-pVDZ          selected for orbital group  3
 Library entry N      P aug-cc-pVDZ          selected for orbital group  3
 Library entry N      D aug-cc-pVDZ          selected for orbital group  3

1PROGRAM * SEWARD (Integral evaluation for generally contracted gaussian basis sets)     Author: Roland Lindh, 1990

 Geometry written to block  1 of record 700


 Point group  C1  



 ATOMIC COORDINATES

 NR  ATOM    CHARGE       X              Y              Z

   1  C       6.00    0.916697801    1.404319922   -2.273764107
   2  C       6.00    0.741384756    2.708149433    0.017741654
   3  C       6.00    0.999985005    1.404716711    2.301736350
   4  C       6.00    1.432300112   -1.202597414    2.294226670
   5  C       6.00    1.608340563   -2.505935609    0.002763016
   6  C       6.00    1.349798852   -1.202279252   -2.281027559
   7  H       1.00    0.706056063    2.420708762   -4.039325214
   8  H       1.00    0.390900772    4.725756961    0.027786833
   9  H       1.00    0.858233921    2.418325346    4.075980335
  10  H       1.00    1.628987092   -2.205758555    4.069353236
  11  H       1.00    1.941468600   -4.526984869    0.001087318
  12  H       1.00    1.483194985   -2.209357733   -4.059918421
  13  N       7.00   -5.441785353   -0.356513764   -0.070665285
  14  H       1.00   -5.598841344   -1.571573974   -1.547234305
  15  H       1.00   -6.074855940   -1.318975877    1.463619187
  16  H       1.00   -3.560934019   -0.073789688    0.197717969

 Bond lengths in Bohr (Angstrom)

 1-2  2.642291564  1-6  2.642345271  1-7  2.048077694  2-3  2.642431214  2-8  2.047847666
     ( 1.398240475)     ( 1.398268896)     ( 1.083796038)     ( 1.398314375)     ( 1.083674312)

  3- 4  2.642922567   3- 9  2.048276727   4- 5  2.642061008   4-10  2.048436566   5- 6  2.642359382
       ( 1.398574387)       ( 1.083901362)       ( 1.398118470)       ( 1.083985945)       ( 1.398276363)

  5-11  2.048320582   6-12  2.048524907  13-14  1.918669843  13-15  1.918629857  13-16  1.920823838
       ( 1.083924569)       ( 1.084032693)       ( 1.015316353)       ( 1.015295193)       ( 1.016456198)

 Bond angles

  1- 2- 3  119.98067261   1- 2- 8  120.11712793   1- 6- 5  120.02353239   1- 6-12  119.86918013

  2-1-6  120.00199114   2-1-7  119.72967412   2-3-4  120.01167879   2-3-9  119.85734453

  3- 2- 8  119.90052244   3- 4- 5  120.00136303   3- 4-10  119.75987466   4- 3- 9  120.13064495

  4- 5- 6  119.98073411   4- 5-11  119.88637841   5- 4-10  120.23875759   5- 6-12  120.10727295

  6- 1- 7  120.26759482   6- 5-11  120.13277348  14-13-15  105.70745251  14-13-16  106.31353427

 15-13-16  106.57055735

 NUCLEAR CHARGE:                   52
 NUMBER OF PRIMITIVE AOS:         322
 NUMBER OF SYMMETRY AOS:          308
 NUMBER OF CONTRACTIONS:          206   ( 206A   )
 NUMBER OF CORE ORBITALS:           7   (   7A   )
 NUMBER OF VALENCE ORBITALS:       37   (  37A   )


 NUCLEAR REPULSION ENERGY  273.70165924


 Eigenvalues of metric

         1 0.861E-05 0.184E-04 0.228E-04 0.532E-04 0.642E-04 0.644E-04 0.107E-03 0.107E-03


 Contracted 2-electron integrals neglected if value below      1.0D-16
 AO integral compression algorithm  1   Integral accuracy      1.0D-16

     1891.893 MB (compressed) written to integral file ( 94.5%)

     Node minimum: 1891.893 MB, node maximum: 1891.893 MB


 NUMBER OF SORTED TWO-ELECTRON INTEGRALS:  227303181.     BUFFER LENGTH:  32768
 NUMBER OF SEGMENTS:  15  SEGMENT LENGTH:   15999503      RECORD LENGTH: 524288

 Memory used in sort:      16.56 MW

 SORT1 READ   250229968. AND WROTE   226405034. INTEGRALS IN    654 RECORDS. CPU TIME:     2.40 SEC, REAL TIME:     3.97 SEC
 SORT2 READ   226405034. AND WROTE   227303181. INTEGRALS IN   7217 RECORDS. CPU TIME:     1.39 SEC, REAL TIME:     2.32 SEC

 FILE SIZES:   FILE 1:  1742.9 MBYTE,  FILE 4:  2743.1 MBYTE,   TOTAL:   4486.0 MBYTE

 OPERATOR DM      FOR CENTER  0  COORDINATES:    0.000000    0.000000    0.000000


 **********************************************************************************************************************************
 DATASETS  * FILE   NREC   LENGTH (MB)   RECORD NAMES
              1      19     1743.45       500      610      700      900      950      970     1000      129      960     1100   
                                          VAR    BASINP    GEOM    SYMINP    ZMAT    AOBASIS   BASIS     P2S    ABASIS      S 
                                         1400     1410     1200     1210     1080     1600     1650     1300     1700   
                                           T        V       H0       H01     AOSYM     SMH    MOLCAS    ERIS     OPER   

 PROGRAMS   *        TOTAL       INT
 CPU TIMES  *        14.63     14.58
 REAL TIME  *        18.44 SEC
 DISK USED  *         6.38 GB      
 GA USED    *         0.01 MB       (max)       0.00 MB       (current)
 **********************************************************************************************************************************

1PROGRAM * RHF-SCF (CLOSED SHELL)       Authors: W. Meyer, H.-J. Werner


 NUMBER OF ELECTRONS:      26+   26-    SPACE SYMMETRY=1    SPIN SYMMETRY: Singlet 
 CONVERGENCE THRESHOLDS:    1.00E-10 (Density)    1.00E-13 (Energy)
 MAX. NUMBER OF ITERATIONS:      200
 INTERPOLATION TYPE:            DIIS
 INTERPOLATION STEPS:              2 (START)      1 (STEP)
 LEVEL SHIFTS:                  0.00 (CLOSED)  0.00 (OPEN) 



 Orbital guess generated from atomic densities. Full valence occupancy:   44

 Molecular orbital dump at record        2100.2

 ITERATION    DDIFF          GRAD             ENERGY        2-EL.EN.            DIPOLE MOMENTS         DIIS
    1      0.000D+00      0.000D+00      -286.85322922    740.869296    0.51510   -0.76957    0.13631    0
    2      0.000D+00      0.322D-02      -286.92078814    735.074899    0.43256   -0.38337    0.06329    1
    3      0.826D-02      0.133D-02      -286.93012151    737.708658    0.44884   -0.52353    0.09261    2
    4      0.218D-02      0.381D-03      -286.93134007    737.188658    0.44740   -0.49617    0.08514    3
    5      0.783D-03      0.527D-04      -286.93136393    737.177377    0.45328   -0.50655    0.08895    4
    6      0.135D-03      0.178D-04      -286.93136639    737.192266    0.45212   -0.50092    0.08696    5
    7      0.512D-04      0.556D-05      -286.93136667    737.189234    0.45277   -0.50316    0.08768    6
    8      0.150D-04      0.129D-05      -286.93136668    737.188218    0.45292   -0.50280    0.08755    7
    9      0.417D-05      0.542D-06      -286.93136669    737.188676    0.45296   -0.50289    0.08758    7
   10      0.148D-05      0.143D-06      -286.93136669    737.188625    0.45296   -0.50290    0.08757    7
   11      0.517D-06      0.411D-07      -286.93136669    737.188611    0.45297   -0.50290    0.08757    7
   12      0.142D-06      0.175D-07      -286.93136669    737.188625    0.45297   -0.50290    0.08757    8
   13      0.613D-07      0.761D-08      -286.93136669    737.188619    0.45297   -0.50290    0.08757    8
   14      0.337D-07      0.363D-08      -286.93136669    737.188622    0.45297   -0.50290    0.08757    8
   15      0.201D-07      0.139D-08      -286.93136669    737.188621    0.45297   -0.50290    0.08757    8
   16      0.717D-08      0.459D-09      -286.93136669    737.188621    0.45297   -0.50290    0.08757    9
   17      0.216D-08      0.126D-09      -286.93136669    737.188621    0.45297   -0.50290    0.08757    9
   18      0.396D-09      0.383D-10      -286.93136669    737.188621    0.45297   -0.50290    0.08757    8
   19      0.246D-09      0.154D-10      -286.93136669    737.188621    0.45297   -0.50290    0.08757    9
   20      0.142D-09      0.822D-11      -286.93136669    737.188621    0.45297   -0.50290    0.08757    9
   21      0.951D-10      0.412D-11      -286.93136669    737.188621    0.45297   -0.50290    0.08757    9
   22      0.231D-09      0.127D-11      -286.93136669    737.188621    0.45297   -0.50290    0.08757    9
   23      0.142D-09      0.773D-12      -286.93136669    737.188621    0.45297   -0.50290    0.08757    9
   24      0.993D-10      0.757D-12      -286.93136669    737.188621    0.45297   -0.50290    0.08757    9
   25      0.863D-10      0.582D-12      -286.93136669    737.188621    0.45297   -0.50290    0.08757    9
   26      0.400D-10      0.627D-12      -286.93136669    737.188621    0.45297   -0.50290    0.08757    9
   27      0.374D-10      0.644D-12      -286.93136669    737.188621    0.45297   -0.50290    0.08757    9
   28      0.192D-10      0.586D-12      -286.93136669    737.188621    0.45297   -0.50290    0.08757    9
   29      0.147D-10      0.494D-12      -286.93136669    737.188621    0.45297   -0.50290    0.08757    9
   30      0.210D-10      0.405D-12      -286.93136669    737.188621    0.45297   -0.50290    0.08757    9
   31      0.207D-10      0.444D-12      -286.93136669    737.188621    0.45297   -0.50290    0.08757    9
   32      0.154D-10      0.499D-12      -286.93136669    737.188621    0.45297   -0.50290    0.08757    9
   33      0.208D-10      0.525D-12      -286.93136669    737.188621    0.45297   -0.50290    0.08757    9
   34      0.270D-10      0.502D-12      -286.93136669    737.188621    0.45297   -0.50290    0.08757    9
   35      0.186D-10      0.489D-12      -286.93136669    737.188621    0.45297   -0.50290    0.08757    0

 Final occupancy:  26

 !RHF STATE 1.1 Energy               -286.931366687885
 Nuclear energy                       273.70165924
 One-electron energy                 -929.22733639
 Two-electron energy                  368.59431046
 Virial quotient                       -1.00146531
 !RHF STATE 1.1 Dipole moment           0.45296792    -0.50289835     0.08757409
 Dipole moment /Debye                   1.15125421    -1.27815639     0.22257654

 Orbital energies:

         1.1          2.1          3.1          4.1          5.1          6.1          7.1          8.1          9.1         10.1
    -15.535020   -11.250681   -11.250043   -11.249618   -11.248821   -11.248621   -11.247727    -1.157484    -1.125575    -1.022035

        11.1         12.1         13.1         14.1         15.1         16.1         17.1         18.1         19.1         20.1
     -1.021933    -0.830617    -0.830521    -0.714484    -0.650430    -0.623907    -0.612577    -0.608889    -0.593559    -0.593439

        21.1         22.1         23.1         24.1         25.1         26.1         27.1         28.1
     -0.504926    -0.500075    -0.500004    -0.413439    -0.342953    -0.341977     0.063910     0.066443


 **********************************************************************************************************************************
 DATASETS  * FILE   NREC   LENGTH (MB)   RECORD NAMES
              1      19     1743.45       500      610      700      900      950      970     1000      129      960     1100   
                                          VAR    BASINP    GEOM    SYMINP    ZMAT    AOBASIS   BASIS     P2S    ABASIS      S 
                                         1400     1410     1200     1210     1080     1600     1650     1300     1700   
                                           T        V       H0       H01     AOSYM     SMH    MOLCAS    ERIS     OPER   

              2       3        1.40       700     1000     2100   
                                         GEOM     BASIS     RHF  

 PROGRAMS   *        TOTAL       RHF       INT
 CPU TIMES  *        75.57     60.93     14.58
 REAL TIME  *        86.03 SEC
 DISK USED  *         6.38 GB      
 GA USED    *         0.01 MB       (max)       0.00 MB       (current)
 **********************************************************************************************************************************


1PROGRAM * CCSD (Closed-shell coupled cluster)     Authors: C. Hampel, H.-J. Werner, 1991, M. Deegan, P.J. Knowles, 1992


 Convergence thresholds:  THRVAR = 1.00D-08  THRDEN = 1.00D-12

 CCSD(T)     terms to be evaluated (factor= 1.000)


 Number of core orbitals:           7 (   7 )
 Number of closed-shell orbitals:  19 (  19 )
 Number of external orbitals:     180 ( 180 )

 Molecular orbitals read from record     2100.2  Type=RHF/CANONICAL (state 1.1)

 Number of N-1 electron functions:              19
 Number of N-2 electron functions:             190
 Number of singly external CSFs:              3420
 Number of doubly external CSFs:           5849910
 Total number of CSFs:                     5853331

 Length of J-op  integral file:               0.00 MB
 Length of K-op  integral file:               2.96 MB
 Length of 3-ext integral record:             0.00 MB

 Memory could be reduced to 140.12 Mwords without degradation in triples

 Integral transformation finished. Total CPU:  13.98 sec, npass=  1  Memory used: 101.90 MW

 Reference energy:                   -286.93136669

 MP2 singlet pair energy:              -0.62063084
 MP2 triplet pair energy:              -0.38983154
 MP2 correlation energy:               -1.01046237
 MP2 total energy:                   -287.94182906

 SCS-MP2 correlation energy:           -0.98731885   (PS=  1.200000  PT=  0.333333)
 SCS-MP2 total energy:               -287.91868554

 ITER.      SQ.NORM     CORR.ENERGY   TOTAL ENERGY   ENERGY CHANGE        DEN1      VAR(S)    VAR(P)  DIIS     TIME
   1      1.38488192    -1.05475532  -287.98612201    -0.04429295    -0.01721460  0.36D-02  0.80D-02  1  1    51.02
   2      1.41439419    -1.06061798  -287.99198467    -0.00586266    -0.02705246  0.63D-04  0.10D-02  2  2    88.57
   3      1.42352532    -1.06071376  -287.99208045    -0.00009578    -0.00464366  0.27D-04  0.84D-04  3  3   126.13
   4      1.42746280    -1.06088251  -287.99224920    -0.00016875    -0.00121425  0.22D-05  0.11D-04  4  4   163.66
   5      1.42867642    -1.06091345  -287.99228014    -0.00003095    -0.00027321  0.27D-06  0.13D-05  5  5   201.24
   6      1.42897886    -1.06090322  -287.99226991     0.00001023    -0.00004345  0.23D-07  0.79D-07  6  6   238.84
   7      1.42901958    -1.06090485  -287.99227154    -0.00000163    -0.00000102  0.35D-08  0.82D-08  6  2   276.43
   8      1.42902877    -1.06090471  -287.99227140     0.00000014    -0.00000117  0.76D-09  0.76D-09  6  1   314.02
   9      1.42902860    -1.06090485  -287.99227153    -0.00000014     0.00000123  0.21D-09  0.92D-10  6  4   351.61
  10      1.42902980    -1.06090486  -287.99227155    -0.00000001    -0.00000018  0.57D-10  0.15D-10  6  3   389.20
  11      1.42902975    -1.06090487  -287.99227156    -0.00000002     0.00000013  0.14D-10  0.37D-11  6  5   426.81
  12      1.42902970    -1.06090488  -287.99227157    -0.00000000     0.00000003  0.15D-11  0.10D-11  6  6   464.38
  13      1.42902953    -1.06090488  -287.99227157    -0.00000000     0.00000006  0.69D-13  0.20D-12  6  2   501.97
  14      1.42902943    -1.06090488  -287.99227157    -0.00000000     0.00000003  0.81D-14  0.40D-13  6  1   539.56
  15      1.42902937    -1.06090488  -287.99227157    -0.00000000     0.00000001  0.89D-15  0.54D-14  6  3   577.07
  16      1.42902935    -1.06090488  -287.99227157    -0.00000000     0.00000000  0.12D-15  0.37D-15  6  4   614.53
  17      1.42902934    -1.06090488  -287.99227157    -0.00000000     0.00000000  0.31D-16  0.44D-16  6  5   652.02
  18      1.42902934    -1.06090488  -287.99227157    -0.00000000     0.00000000  0.82D-17  0.71D-17  6  6   689.50
  19      1.42902934    -1.06090488  -287.99227157    -0.00000000     0.00000000  0.24D-17  0.77D-18  6  2   727.01
  20      1.42902934    -1.06090488  -287.99227157    -0.00000000     0.00000000  0.76D-18  0.18D-18  6  1   764.53
  21      1.42902934    -1.06090488  -287.99227157    -0.00000000     0.00000000  0.30D-18  0.78D-19  6  3   802.05
  22      1.42902934    -1.06090488  -287.99227157    -0.00000000     0.00000000  0.12D-18  0.36D-19  6  4   839.52
  23      1.42902934    -1.06090488  -287.99227157    -0.00000000     0.00000000  0.52D-19  0.20D-19  6  6   877.01

 Norm of t1 vector:      0.08385545      S-energy:    -0.00000000      T1 diagnostic:  0.00961888
                                                                       D1 diagnostic:  0.02619060

 Doubles amplitudes (print threshold =  0.500E-01):

         I         J         SYM. A    SYM. B    A         B      T(IJ, AB)

        18        18         1         1         6         6     -0.05128344
        19        19         1         1         7         7     -0.05473652


 Total CPU time for triples:    734.33 sec


 RESULTS
 =======

  Reference energy                   -286.931366687886
  CCSD singlet pair energy             -0.711155593322
  CCSD triplet pair energy             -0.349749289317
  CCSD correlation energy              -1.060904882639

  Triples (T) contribution             -0.045602034785
  Total correlation energy             -1.106506917424

  CCSD total energy                  -287.992271570525
  CCSD[T] energy                     -288.038743786604
  CCSD-T energy                      -288.037485073636
 !CCSD(T) total energy               -288.037873605310

 Timing summary (sec):

 STEP                 CPU(USER)    SYS     CPU(TOT)    WALL
 Transformation         14.39      0.89     15.28     15.28
 CCSD iterations       862.64     12.26    874.90    875.09
 Triples               734.33     11.43    745.76    745.75

 Program statistics:

 Available memory in ccsd:               999998456
 Min. memory needed in ccsd:              14392275
 Max. memory used in ccsd:                19775697
 Max. memory used in cckext:              16737545 (23 integral passes)



 **********************************************************************************************************************************
 DATASETS  * FILE   NREC   LENGTH (MB)   RECORD NAMES
              1      20     2287.06       500      610      700      900      950      970     1000      129      960     1100   
                                          VAR    BASINP    GEOM    SYMINP    ZMAT    AOBASIS   BASIS     P2S    ABASIS      S 
                                         1400     1410     1200     1210     1080     1600     1650     1300     1700     1380   
                                           T        V       H0       H01     AOSYM     SMH    MOLCAS    ERIS     OPER     JKOP   

              2       3        1.40       700     1000     2100   
                                         GEOM     BASIS     RHF  

 PROGRAMS   *        TOTAL   CCSD(T)       RHF       INT
 CPU TIMES  *      1686.94   1611.38     60.93     14.58
 REAL TIME  *      1722.26 SEC
 DISK USED  *         6.38 GB      
 GA USED    *         0.01 MB       (max)       0.00 MB       (current)
 **********************************************************************************************************************************

        CCSD(T)         RHF-SCF 
   -288.03787361   -286.93136669
 **********************************************************************************************************************************
 Variable memory released
