
 Primary working directories    : /tmp/1059987.1181.gen6.q
 Secondary working directories  : /tmp/1059987.1181.gen6.q
 Wavefunction directory         : /home/vulcan/jj04645/wfu/
 Main file repository           : /tmp/1059987.1181.gen6.q/

 ARCHNAME  : Linux/x86_64
 FC        : /opt/intel/compilers_and_libraries_2016.1.150/linux/bin/intel64/ifort
 FCVERSION : 16.0.1
 BLASLIB   : -mkl
 id        : ccgc

 Nodes     nprocs
 n076         1
 ga_uses_ma=false, calling ma_init with nominal heap.
 GA-space will be limited to   8.0 MW (determined by -G option)

 Using customized tuning parameters: mindgm=10; mindgv=16; mindgc=4; mindgr=1; noblas=0; mincuda=1000; minvec=7
 default implementation of scratch files=df  

 ***,Optimization of 1_4_cyclohexadiene
 memory,1000,m
 gthresh,energy=1.0d-12,orbital=1.0d-10,oneint=1.0d-16,twoint=1.0d-16,optgrad=1.0d-6,compress=1.0d-13
 geomtyp=xyz
 
 bohr
 geometry = {
  H    4.1020582879   -0.0082926604   -1.6462795524
  C    2.8410815253   -0.0000000000    0.0000000000
  C   -1.2651113948    2.3673562761    0.0000000000
  C   -1.2651113948   -2.3673562761    0.0000000000
  C   -2.8410815253   -0.0000000000    0.0000000000
  C    1.2651113948   -2.3673562761    0.0000000000
  C    1.2651113948    2.3673562761    0.0000000000
  H   -2.2747429483    4.1525568240    0.0000000000
  H    2.2747429483    4.1525568240    0.0000000000
  H   -4.1020582879    0.0082926604   -1.6462795524
  H    2.2747429483   -4.1525568240    0.0000000000
  H   -2.2747429483   -4.1525568240    0.0000000000
  H    4.1020582879    0.0082926604    1.6462795524
  H   -4.1020582879   -0.0082926604    1.6462795524
 }
 
 basis=VDZ
 {rhf;maxit,200}
 {ccsd(t);maxit,200}

 Variables initialized (661), CPU time= 0.01 sec
 Commands  initialized (458), CPU time= 0.00 sec, 486 directives.
 Default parameters read. Elapsed time= 0.04 sec

 Checking input...
 Passed
1


                                         ***  PROGRAM SYSTEM MOLPRO  ***
                         Copyright, University College Cardiff Consultants Limited, 2008

                                    Version 2010.1 linked May 16 2016 07:17:05


 **********************************************************************************************************************************
 LABEL *   Optimization of 1_4_cyclohexadiene                                            
 Linux-4.4.3/n076(x86_64) 64 bit mpp version                                             DATE: 06-May-24          TIME: 16:47:21  
 **********************************************************************************************************************************

 SHA1:             9e8077add272b0f3cad6f7df79ec5211205f459d
 **********************************************************************************************************************************

 THRESHOLDS:

 ZERO    =  1.00D-12  ONEINT  =  1.00D-16  TWOINT  =  1.00D-16  PREFAC  =  1.00D-14  LOCALI  =  1.00D-09  EORDER  =  1.00D-04
 ENERGY  =  1.00D-12  ETEST   =  0.00D+00  EDENS   =  0.00D+00  THRDEDEF=  1.00D-06  GRADIENT=  1.00D-02  STEP    =  1.00D-03
 ORBITAL =  1.00D-10  CIVEC   =  1.00D-05  COEFF   =  1.00D-04  PRINTCI =  5.00D-02  PUNCHCI =  9.90D+01  OPTGRAD =  1.00D-06
 OPTENERG=  1.00D-06  OPTSTEP =  3.00D-04  THRGRAD =  1.00D-10  COMPRESS=  1.00D-13  VARMIN  =  1.00D-07  VARMAX  =  1.00D-03
 THRDOUB =  0.00D+00  THRDIV  =  1.00D-05  THRRED  =  1.00D-07  THRPSP  =  1.00D+00  THRDC   =  1.00D-10  THRCS   =  1.00D-10
 THRNRM  =  1.00D-08  THREQ   =  0.00D+00  THRDE   =  1.00D+00  THRREF  =  1.00D-05  SPARFAC =  1.00D+00  THRDLP  =  1.00D-07
 THRDIA  =  1.00D-10  THRDLS  =  1.00D-07  THRGPS  =  0.00D+00  THRKEX  =  0.00D+00  THRDIS  =  2.00D-01  THRVAR  =  1.00D-10
 THRLOC  =  1.00D-06  THRGAP  =  1.00D-06  THRLOCT = -1.00D+00  THRGAPT = -1.00D+00  THRORB  =  1.00D-06  THRMLTP =  0.00D+00
 THRCPQCI=  1.00D-10  KEXTA   =  0.00D+00  THRCOARS=  0.00D+00  SYMTOL  =  1.00D-06  GRADTOL =  1.00D-06  THROVL  =  1.00D-08
 THRORTH =  1.00D-08  GRID    =  1.00D-06  GRIDMAX =  1.00D-03  DTMAX   =  0.00D+00

 SETTING GEOMTYP        =    XYZ
 ZUNIT=BOHR
 

 Variable memory set to 1000000000 words,  buffer space   230000 words

 SETTING BASIS          =    VDZ


 Recomputing integrals since basis changed


 Using spherical harmonics

 Library entry H      S cc-pVDZ              selected for orbital group  1
 Library entry H      P cc-pVDZ              selected for orbital group  1
 Library entry C      S cc-pVDZ              selected for orbital group  2
 Library entry C      P cc-pVDZ              selected for orbital group  2
 Library entry C      D cc-pVDZ              selected for orbital group  2

1PROGRAM * SEWARD (Integral evaluation for generally contracted gaussian basis sets)     Author: Roland Lindh, 1990

 Geometry written to block  1 of record 700


 Point group  D2  



 ATOMIC COORDINATES

 NR  ATOM    CHARGE       X              Y              Z

   1  H       1.00    4.102058288   -0.008292660   -1.646279552
   2  H       1.00   -4.102058288    0.008292660   -1.646279552
   3  H       1.00    4.102058288    0.008292660    1.646279552
   4  H       1.00   -4.102058288   -0.008292660    1.646279552
   5  C       6.00    2.841081525    0.000000000    0.000000000
   6  C       6.00   -2.841081525    0.000000000    0.000000000
   7  C       6.00   -1.265111395    2.367356276    0.000000000
   8  C       6.00   -1.265111395   -2.367356276    0.000000000
   9  C       6.00    1.265111395   -2.367356276    0.000000000
  10  C       6.00    1.265111395    2.367356276    0.000000000
  11  H       1.00   -2.274742948    4.152556824    0.000000000
  12  H       1.00    2.274742948    4.152556824    0.000000000
  13  H       1.00    2.274742948   -4.152556824    0.000000000
  14  H       1.00   -2.274742948   -4.152556824    0.000000000

 Bond lengths in Bohr (Angstrom)

 1-5  2.073732752  2-6  2.073732752  3-5  2.073732752  4-6  2.073732752  5-9  2.843951053
     ( 1.097372110)     ( 1.097372110)     ( 1.097372110)     ( 1.097372110)     ( 1.504954081)

  5-10  2.843951053   6- 7  2.843951053   6- 8  2.843951053   7-10  2.530222790   7-11  2.050925857
       ( 1.504954081)       ( 1.504954081)       ( 1.504954081)       ( 1.338936234)       ( 1.085303221)

  8- 9  2.530222790   8-14  2.050925857   9-13  2.050925857  10-12  2.050925857
       ( 1.338936234)       ( 1.085303221)       ( 1.085303221)       ( 1.085303221)

 Bond angles

  1- 5- 3  105.09969098   1- 5- 9  109.48941121   1- 5-10  109.89455355   2- 6- 4  105.09969098

  2- 6- 7  109.48941121   2- 6- 8  109.89455355   3- 5- 9  109.89455355   3- 5-10  109.48941121

  4- 6- 7  109.89455355   4- 6- 8  109.48941121   5- 9- 8  123.65205946   5- 9-13  116.85733381

  5-10- 7  123.65205946   5-10-12  116.85733381   6- 7-10  123.65205946   6- 7-11  116.85733381

  6- 8- 9  123.65205946   6- 8-14  116.85733381   7- 6- 8  112.69588108   7-10-12  119.49060673

  8- 9-13  119.49060673   9- 5-10  112.69588108   9- 8-14  119.49060673  10- 7-11  119.49060673

 NUCLEAR CHARGE:                   44
 NUMBER OF PRIMITIVE AOS:         218
 NUMBER OF SYMMETRY AOS:          212
 NUMBER OF CONTRACTIONS:          124   (  32A   +  32B3  +  30B2  +  30B1  )
 NUMBER OF CORE ORBITALS:           6   (   2A   +   2B3  +   1B2  +   1B1  )
 NUMBER OF VALENCE ORBITALS:       32   (   8A   +   8B3  +   8B2  +   8B1  )


 NUCLEAR REPULSION ENERGY  217.75817327


 Eigenvalues of metric

         1 0.345E-02 0.182E-01 0.273E-01 0.392E-01 0.436E-01 0.797E-01 0.990E-01 0.103E+00
         2 0.670E-03 0.315E-02 0.164E-01 0.259E-01 0.319E-01 0.453E-01 0.557E-01 0.646E-01
         3 0.561E-02 0.227E-01 0.257E-01 0.360E-01 0.366E-01 0.536E-01 0.768E-01 0.124E+00
         4 0.168E-02 0.432E-02 0.143E-01 0.311E-01 0.356E-01 0.382E-01 0.605E-01 0.860E-01


 Contracted 2-electron integrals neglected if value below      1.0D-16
 AO integral compression algorithm  1   Integral accuracy      1.0D-16

     65.798 MB (compressed) written to integral file ( 76.2%)

     Node minimum: 65.798 MB, node maximum: 65.798 MB


 NUMBER OF SORTED TWO-ELECTRON INTEGRALS:    7692069.     BUFFER LENGTH:  32768
 NUMBER OF SEGMENTS:   1  SEGMENT LENGTH:    7692069      RECORD LENGTH: 524288

 Memory used in sort:       8.25 MW

 SORT1 READ    10793040. AND WROTE     5879289. INTEGRALS IN     17 RECORDS. CPU TIME:     0.15 SEC, REAL TIME:     0.19 SEC
 SORT2 READ     5879289. AND WROTE     7692069. INTEGRALS IN    251 RECORDS. CPU TIME:     0.13 SEC, REAL TIME:     0.15 SEC

 FILE SIZES:   FILE 1:    51.0 MBYTE,  FILE 4:    71.3 MBYTE,   TOTAL:    122.3 MBYTE

 OPERATOR DM      FOR CENTER  0  COORDINATES:    0.000000    0.000000    0.000000


 **********************************************************************************************************************************
 DATASETS  * FILE   NREC   LENGTH (MB)   RECORD NAMES
              1      19       51.00       500      610      700      900      950      970     1000      129      960     1100   
                                          VAR    BASINP    GEOM    SYMINP    ZMAT    AOBASIS   BASIS     P2S    ABASIS      S 
                                         1400     1410     1200     1210     1080     1600     1650     1300     1700   
                                           T        V       H0       H01     AOSYM     SMH    MOLCAS    ERIS     OPER   

 PROGRAMS   *        TOTAL       INT
 CPU TIMES  *         2.19      2.15
 REAL TIME  *         2.47 SEC
 DISK USED  *       189.03 MB      
 GA USED    *         0.00 MB       (max)       0.00 MB       (current)
 **********************************************************************************************************************************

1PROGRAM * RHF-SCF (CLOSED SHELL)       Authors: W. Meyer, H.-J. Werner


 NUMBER OF ELECTRONS:      22+   22-
 CONVERGENCE THRESHOLDS:    1.00E-10 (Density)    1.00E-13 (Energy)
 MAX. NUMBER OF ITERATIONS:      200
 INTERPOLATION TYPE:            DIIS
 INTERPOLATION STEPS:              2 (START)      1 (STEP)
 LEVEL SHIFTS:                  0.00 (CLOSED)  0.00 (OPEN) 



 Orbital guess generated from atomic densities. Full valence occupancy:   10  10   9   9

 Molecular orbital dump at record        2100.2

 Initial alpha occupancy:   6   6   5   5
 Initial beta  occupancy:   6   6   5   5
 Wave function symmetry:    1

 ITERATION    DDIFF          GRAD             ENERGY        2-EL.EN.            DIPOLE MOMENTS         DIIS
    1      0.000D+00      0.000D+00      -231.78148301    590.482074    0.00000    0.00000    0.00000    0
    2      0.000D+00      0.895D-02      -231.84385592    585.625701    0.00000    0.00000    0.00000    1
    3      0.182D-01      0.352D-02      -231.85141367    587.950565    0.00000    0.00000    0.00000    2
    4      0.674D-02      0.120D-02      -231.85265750    587.340082    0.00000    0.00000    0.00000    3
    5      0.251D-02      0.122D-03      -231.85267584    587.345108    0.00000    0.00000    0.00000    4
    6      0.461D-03      0.259D-04      -231.85267643    587.342028    0.00000    0.00000    0.00000    5
    7      0.644D-04      0.865D-05      -231.85267649    587.343071    0.00000    0.00000    0.00000    6
    8      0.248D-04      0.170D-05      -231.85267650    587.342953    0.00000    0.00000    0.00000    7
    9      0.587D-05      0.347D-06      -231.85267650    587.342991    0.00000    0.00000    0.00000    6
   10      0.130D-05      0.720D-07      -231.85267650    587.342984    0.00000    0.00000    0.00000    6
   11      0.276D-06      0.105D-07      -231.85267650    587.342987    0.00000    0.00000    0.00000    6
   12      0.309D-07      0.268D-08      -231.85267650    587.342986    0.00000    0.00000    0.00000    6
   13      0.822D-08      0.941D-09      -231.85267650    587.342986    0.00000    0.00000    0.00000    6
   14      0.219D-08      0.282D-09      -231.85267650    587.342986    0.00000    0.00000    0.00000    6
   15      0.798D-09      0.771D-10      -231.85267650    587.342986    0.00000    0.00000    0.00000    6
   16      0.186D-09      0.332D-10      -231.85267650    587.342986    0.00000    0.00000    0.00000    7
   17      0.842D-10      0.106D-10      -231.85267650    587.342986    0.00000    0.00000    0.00000    7
   18      0.314D-10      0.211D-11      -231.85267650    587.342986    0.00000    0.00000    0.00000    7
   19      0.701D-11      0.475D-12      -231.85267650    587.342986    0.00000    0.00000    0.00000    7
   20      0.169D-11      0.105D-12      -231.85267650    587.342986    0.00000    0.00000    0.00000    7
   21      0.654D-12      0.460D-13      -231.85267650    587.342986    0.00000    0.00000    0.00000    7
   22      0.232D-12      0.317D-13      -231.85267650    587.342986    0.00000    0.00000    0.00000    8
   23      0.224D-12      0.388D-13      -231.85267650    587.342986    0.00000    0.00000    0.00000    9
   24      0.142D-12      0.240D-13      -231.85267650    587.342986    0.00000    0.00000    0.00000    0

 Final occupancy:   6   6   5   5

 !RHF STATE 1.1 Energy               -231.852676498753
 Nuclear energy                       217.75817327
 One-electron energy                 -743.28234284
 Two-electron energy                  293.67149307
 Virial quotient                       -1.00115627
 !RHF STATE 1.1 Dipole moment           0.00000000     0.00000000     0.00000000
 Dipole moment /Debye                   0.00000000     0.00000000     0.00000000

 Orbital energies:

         1.1          2.1          3.1          4.1          5.1          6.1          7.1          8.1
    -11.233713   -11.229275    -1.122171    -0.861747    -0.678308    -0.491153     0.174444     0.180744

         1.2          2.2          3.2          4.2          5.2          6.2          7.2          8.2
    -11.233713   -11.227673    -1.004995    -0.654717    -0.531760    -0.358792     0.217465     0.278649

         1.3          2.3          3.3          4.3          5.3          6.3          7.3
    -11.229337    -1.008293    -0.598114    -0.561949    -0.560812     0.193427     0.223719

         1.4          2.4          3.4          4.4          5.4          6.4          7.4
    -11.227709    -0.784941    -0.595264    -0.445474    -0.329768     0.256854     0.257741


 **********************************************************************************************************************************
 DATASETS  * FILE   NREC   LENGTH (MB)   RECORD NAMES
              1      19       51.00       500      610      700      900      950      970     1000      129      960     1100   
                                          VAR    BASINP    GEOM    SYMINP    ZMAT    AOBASIS   BASIS     P2S    ABASIS      S 
                                         1400     1410     1200     1210     1080     1600     1650     1300     1700   
                                           T        V       H0       H01     AOSYM     SMH    MOLCAS    ERIS     OPER   

              2       3        0.58       700     1000     2100   
                                         GEOM     BASIS     RHF  

 PROGRAMS   *        TOTAL       RHF       INT
 CPU TIMES  *         2.61      0.42      2.15
 REAL TIME  *         3.00 SEC
 DISK USED  *       189.03 MB      
 GA USED    *         0.00 MB       (max)       0.00 MB       (current)
 **********************************************************************************************************************************


1PROGRAM * CCSD (Closed-shell coupled cluster)     Authors: C. Hampel, H.-J. Werner, 1991, M. Deegan, P.J. Knowles, 1992


 Convergence thresholds:  THRVAR = 1.00D-08  THRDEN = 1.00D-12

 CCSD(T)     terms to be evaluated (factor= 1.000)


 Number of core orbitals:           6 (   2   2   1   1 )
 Number of closed-shell orbitals:  16 (   4   4   4   4 )
 Number of external orbitals:     102 (  26  26  25  25 )

 Molecular orbitals read from record     2100.2  Type=RHF/CANONICAL (state 1.1)

 Number of N-1 electron functions:              16
 Number of N-2 electron functions:             136
 Number of singly external CSFs:               408
 Number of doubly external CSFs:            333744
 Total number of CSFs:                      334153

 Length of J-op  integral file:               0.00 MB
 Length of K-op  integral file:               0.30 MB
 Length of 3-ext integral record:             0.00 MB

 Memory could be reduced to 6.04 Mwords without degradation in triples

 Integral transformation finished. Total CPU:   0.14 sec, npass=  1  Memory used:   2.01 MW

 Reference energy:                   -231.85267650

 MP2 singlet pair energy:              -0.50639958
 MP2 triplet pair energy:              -0.29377336
 MP2 correlation energy:               -0.80017294
 MP2 total energy:                   -232.65284944

 SCS-MP2 correlation energy:           -0.79047181   (PS=  1.200000  PT=  0.333333)
 SCS-MP2 total energy:               -232.64314831

 ITER.      SQ.NORM     CORR.ENERGY   TOTAL ENERGY   ENERGY CHANGE        DEN1      VAR(S)    VAR(P)  DIIS     TIME
   1      1.31823319    -0.85463598  -232.70731248    -0.05446304    -0.03136890  0.31D-02  0.54D-02  1  1     0.46
   2      1.34643831    -0.86046402  -232.71314052    -0.00582804    -0.02421043  0.68D-04  0.70D-03  2  2     0.79
   3      1.35483064    -0.86077621  -232.71345271    -0.00031218    -0.00386927  0.20D-04  0.69D-04  3  3     1.13
   4      1.35837908    -0.86089711  -232.71357361    -0.00012091    -0.00107927  0.10D-05  0.68D-05  4  4     1.46
   5      1.35921236    -0.86090906  -232.71358556    -0.00001195    -0.00017688  0.50D-07  0.65D-06  5  5     1.79
   6      1.35936873    -0.86090143  -232.71357792     0.00000764    -0.00002546  0.49D-08  0.36D-07  6  6     2.12
   7      1.35938399    -0.86090210  -232.71357860    -0.00000067     0.00000115  0.17D-08  0.32D-08  6  2     2.45
   8      1.35938867    -0.86090196  -232.71357846     0.00000014    -0.00000095  0.56D-10  0.35D-09  6  1     2.78
   9      1.35938871    -0.86090203  -232.71357853    -0.00000007     0.00000044  0.18D-10  0.52D-10  6  3     3.10
  10      1.35938864    -0.86090207  -232.71357857    -0.00000004     0.00000016  0.79D-12  0.82D-11  6  4     3.43
  11      1.35938808    -0.86090210  -232.71357860    -0.00000003     0.00000022  0.85D-13  0.11D-11  6  6     3.76
  12      1.35938797    -0.86090211  -232.71357860    -0.00000001     0.00000005  0.20D-13  0.98D-13  6  5     4.10
  13      1.35938797    -0.86090210  -232.71357860     0.00000000    -0.00000000  0.76D-14  0.15D-13  6  2     4.44
  14      1.35938799    -0.86090210  -232.71357860     0.00000000    -0.00000001  0.55D-15  0.13D-14  6  1     4.77
  15      1.35938800    -0.86090210  -232.71357860     0.00000000    -0.00000000  0.17D-15  0.15D-15  6  3     5.10
  16      1.35938800    -0.86090210  -232.71357860     0.00000000    -0.00000000  0.19D-16  0.24D-16  6  4     5.43
  17      1.35938800    -0.86090210  -232.71357860    -0.00000000     0.00000000  0.35D-17  0.38D-17  6  6     5.76
  18      1.35938800    -0.86090210  -232.71357860    -0.00000000     0.00000000  0.23D-18  0.65D-18  6  5     6.09
  19      1.35938800    -0.86090210  -232.71357860     0.00000000     0.00000000  0.28D-19  0.15D-18  6  2     6.42
  20      1.35938800    -0.86090210  -232.71357860     0.00000000    -0.00000000  0.64D-21  0.26D-19  6  1     6.76
  21      1.35938800    -0.86090210  -232.71357860     0.00000000    -0.00000000  0.14D-21  0.18D-20  6  4     7.09
  22      1.35938800    -0.86090210  -232.71357860     0.00000000    -0.00000000  0.16D-22  0.86D-22  6  3     7.42

 Norm of t1 vector:      0.07886073      S-energy:    -0.00000000      T1 diagnostic:  0.00985759
                                                                       D1 diagnostic:  0.02884957

 Doubles amplitudes (print threshold =  0.500E-01):

         I         J         SYM. A    SYM. B    A         B      T(IJ, AB)

         8         8         1         1         1         1     -0.07471337
        16        16         3         3         1         1     -0.05815333
        16         8         3         1         1         1     -0.06108378


 Total CPU time for triples:      5.66 sec


 RESULTS
 =======

  Reference energy                   -231.852676498753
  CCSD singlet pair energy             -0.593582771175
  CCSD triplet pair energy             -0.267319331384
  CCSD correlation energy              -0.860902102559

  Triples (T) contribution             -0.032225514425
  Total correlation energy             -0.893127616984

  CCSD total energy                  -232.713578601312
  CCSD[T] energy                     -232.746537413830
  CCSD-T energy                      -232.745485403714
 !CCSD(T) total energy               -232.745804115737

 Timing summary (sec):

 STEP                 CPU(USER)    SYS     CPU(TOT)    WALL
 Transformation          0.14      0.04      0.18      0.18
 CCSD iterations         7.28      0.42      7.70      8.05
 Triples                 5.66      0.17      5.83      5.84

 Program statistics:

 Available memory in ccsd:               999998876
 Min. memory needed in ccsd:                895155
 Max. memory used in ccsd:                 1192763
 Max. memory used in cckext:               1196616 (22 integral passes)



 **********************************************************************************************************************************
 DATASETS  * FILE   NREC   LENGTH (MB)   RECORD NAMES
              1      20       74.78       500      610      700      900      950      970     1000      129      960     1100   
                                          VAR    BASINP    GEOM    SYMINP    ZMAT    AOBASIS   BASIS     P2S    ABASIS      S 
                                         1400     1410     1200     1210     1080     1600     1650     1300     1700     1380   
                                           T        V       H0       H01     AOSYM     SMH    MOLCAS    ERIS     OPER     JKOP   

              2       3        0.58       700     1000     2100   
                                         GEOM     BASIS     RHF  

 PROGRAMS   *        TOTAL   CCSD(T)       RHF       INT
 CPU TIMES  *        15.70     13.09      0.42      2.15
 REAL TIME  *        17.10 SEC
 DISK USED  *       199.91 MB      
 GA USED    *         0.00 MB       (max)       0.00 MB       (current)
 **********************************************************************************************************************************

        CCSD(T)         RHF-SCF 
   -232.74580412   -231.85267650
 **********************************************************************************************************************************
 Variable memory released
