
    -----------------------------------------------------------------------
          Psi4: An Open-Source Ab Initio Electronic Structure Package
                               Psi4 1.4a2.dev629 

                         Git: Rev {master} 2938fc2 dirty


    D. G. A. Smith, L. A. Burns, A. C. Simmonett, R. M. Parrish,
    M. C. Schieber, R. Galvelis, P. Kraus, H. Kruse, R. Di Remigio,
    A. Alenaizan, A. M. James, S. Lehtola, J. P. Misiewicz, M. Scheurer,
    R. A. Shaw, J. B. Schriber, Y. Xie, Z. L. Glick, D. A. Sirianni,
    J. S. O'Brien, J. M. Waldrop, A. Kumar, E. G. Hohenstein,
    B. P. Pritchard, B. R. Brooks, H. F. Schaefer III, A. Yu. Sokolov,
    K. Patkowski, A. E. DePrince III, U. Bozkaya, R. A. King,
    F. A. Evangelista, J. M. Turney, T. D. Crawford, C. D. Sherrill,
    J. Chem. Phys. 152(18) 184108 (2020). https://doi.org/10.1063/5.0006002

                            Additional Code Authors
    E. T. Seidl, C. L. Janssen, E. F. Valeev, M. L. Leininger,
    J. F. Gonthier, R. M. Richard, H. R. McAlexander, M. Saitow, X. Wang,
    P. Verma, and M. H. Lechner

             Previous Authors, Complete List of Code Contributors,
                       and Citations for Specific Modules
    https://github.com/psi4/psi4/blob/master/codemeta.json
    https://github.com/psi4/psi4/graphs/contributors
    http://psicode.org/psi4manual/master/introduction.html#citing-psifour

    -----------------------------------------------------------------------


    Psi4 started on: Wednesday, 05 January 2022 03:14PM

    Process ID: 15476
    Host:       n054
    PSIDATADIR: /opt/psi/4/master/share/psi4
    Memory:     500.0 MiB
    Threads:    4
    
  ==> Input File <==

--------------------------------------------------------------------------
import os
memory 14 GB 
 
molecule {
 Si    0.0000000000    0.0000000000   -0.0000000295
 F    0.0064290275   -2.4055185722    1.7009541792
 F   -0.0064290275    2.4055185722    1.7009541792
 F    2.4055186189   -0.0064290274   -1.7009541575
 F   -2.4055186189    0.0064290274   -1.7009541575
units bohr
}

basis {

assign 6-31g_2dfp_

[ 6-31g_2dfp_ ]

spherical

!----------------------------------------------------------------------
! Basis Set Exchange
! Version v0.8.13
! https://www.basissetexchange.org
!----------------------------------------------------------------------
!   Basis set: 6-31G(2df,p)
! Description: 6-31G(2df,p)
!        Role: orbital
!     Version: 0  (Data from the original Basis Set Exchange)
!----------------------------------------------------------------------


****
H     0
S    3   1.00
     18.7311370              0.03349460
      2.8253937              0.23472695
      0.6401217              0.81375733
S    1   1.00
      0.1612778              1.00000000
P    1   1.00
      1.5000000              1.0000000
P    1   1.00
      0.3750000              1.0000000
****
B     0
S    6   1.00
   2068.8823000              0.0018663
    310.6495700              0.0142515
     70.6830330              0.0695516
     19.8610800              0.2325729
      6.2993048              0.4670787
      2.1270270              0.3634314
SP   3   1.00
      4.7279710             -0.1303938              0.0745976
      1.1903377             -0.1307889              0.3078467
      0.3594117              1.1309444              0.7434568
SP   1   1.00
      0.1267512              1.0000000              1.0000000
D    1   1.00
      0.8020000              1.0000000
D    1   1.00
      0.2005000              1.0000000
F    1   1.00
      0.5000000              1.0000000
****
C     0
S    6   1.00
   3047.5249000              0.0018347
    457.3695100              0.0140373
    103.9486900              0.0688426
     29.2101550              0.2321844
      9.2866630              0.4679413
      3.1639270              0.3623120
SP   3   1.00
      7.8682724             -0.1193324              0.0689991
      1.8812885             -0.1608542              0.3164240
      0.5442493              1.1434564              0.7443083
SP   1   1.00
      0.1687144              1.0000000              1.0000000
D    1   1.00
      1.2520000              1.0000000
D    1   1.00
      0.3130000              1.0000000
F    1   1.00
      0.8000000              1.0000000
****
N     0
S    6   1.00
   4173.5110000              0.0018348
    627.4579000              0.0139950
    142.9021000              0.0685870
     40.2343300              0.2322410
     12.8202100              0.4690700
      4.3904370              0.3604550
SP   3   1.00
     11.6263580             -0.1149610              0.0675800
      2.7162800             -0.1691180              0.3239070
      0.7722180              1.1458520              0.7408950
SP   1   1.00
      0.2120313              1.0000000              1.0000000
D    1   1.00
      1.8260000              1.0000000
D    1   1.00
      0.4565000              1.0000000
F    1   1.00
      1.0000000              1.0000000
****
O     0
S    6   1.00
   5484.6717000              0.0018311
    825.2349500              0.0139501
    188.0469600              0.0684451
     52.9645000              0.2327143
     16.8975700              0.4701930
      5.7996353              0.3585209
SP   3   1.00
     15.5396160             -0.1107775              0.0708743
      3.5999336             -0.1480263              0.3397528
      1.0137618              1.1307670              0.7271586
SP   1   1.00
      0.2700058              1.0000000              1.0000000
D    1   1.00
      2.5840000              1.0000000
D    1   1.00
      0.6460000              1.0000000
F    1   1.00
      1.4000000              1.0000000
****
F     0
S    6   1.00
   7001.7130900              0.0018196169
   1051.3660900              0.0139160796
    239.2856900              0.0684053245
     67.3974453              0.233185760
     21.5199573              0.471267439
      7.40310130             0.356618546
SP   3   1.00
     20.8479528             -0.108506975            0.0716287243
      4.80830834            -0.146451658            0.3459121030
      1.34406986             1.128688580            0.7224699570
SP   1   1.00
      0.358151393            1.0000000              1.0000000
D    1   1.00
      3.5000000              1.0000000
D    1   1.00
      0.8750000              1.0000000
F    1   1.00
      1.8500000              1.0000000
****
Al     0
S    6   1.00
  13983.1000000              0.00194267
   2098.7500000              0.0148599
    477.7050000              0.0728494
    134.3600000              0.2468300
     42.8709000              0.4872580
     14.5189000              0.3234960
SP   6   1.00
    239.6680000             -0.00292619             0.00460285
     57.4419000             -0.0374080              0.0331990
     18.2859000             -0.1144870              0.1362820
      6.5991400              0.1156350              0.3304760
      2.4904900              0.6125950              0.4491460
      0.9445400              0.3937990              0.2657040
SP   3   1.00
      1.2779000             -0.2276060             -0.0175130
      0.3975900              0.00144583             0.2445330
      0.1600950              1.0927900              0.8049340
SP   1   1.00
      0.0556577              1.0000000              1.0000000
D    1   1.00
      0.6500000              1.0000000
D    1   1.00
      0.1625000              1.0000000
F    1   1.00
      0.2500000              1.0000000
****
Si     0
S    6   1.00
  16115.9000000              0.00195948
   2425.5800000              0.01492880
    553.8670000              0.07284780
    156.3400000              0.24613000
     50.0683000              0.48591400
     17.0178000              0.32500200
SP   6   1.00
    292.7180000             -0.00278094             0.00443826
     69.8731000             -0.03571460             0.03266790
     22.3363000             -0.11498500             0.13472100
      8.1503900              0.09356340             0.32867800
      3.1345800              0.60301700             0.44964000
      1.2254300              0.41895900             0.26137200
SP   3   1.00
      1.7273800             -0.24463000            -0.01779510
      0.5729220              0.00431572             0.25353900
      0.2221920              1.09818000             0.80066900
SP   1   1.00
      0.0778369              1.00000000             1.00000000
D    1   1.00
      0.9000000              1.0000000
D    1   1.00
      0.2250000              1.0000000
F    1   1.00
      0.3200000              1.0000000
****
P     0
S    6   1.00
  19413.3000000              0.0018516
   2909.4200000              0.0142062
    661.3640000              0.0699995
    185.7590000              0.2400790
     59.1943000              0.4847620
     20.0310000              0.3352000
SP   6   1.00
    339.4780000             -0.00278217             0.00456462
     81.0101000             -0.0360499              0.03369360
     25.8780000             -0.1166310              0.13975500
      9.4522100              0.0968328              0.33936200
      3.6656600              0.6144180              0.45092100
      1.4674600              0.4037980              0.23858600
SP   3   1.00
      2.1562300             -0.2529230             -0.01776530
      0.7489970              0.0328517              0.27405800
      0.2831450              1.0812500              0.78542100
SP   1   1.00
      0.0998317              1.0000000              1.00000000
D    1   1.00
      1.1000000              1.0000000
D    1   1.00
      0.2750000              1.0000000
F    1   1.00
      0.4500000              1.0000000
****
S     0
S    6   1.00
  21917.1000000              0.0018690
   3301.4900000              0.0142300
    754.1460000              0.0696960
    212.7110000              0.2384870
     67.9896000              0.4833070
     23.0515000              0.3380740
SP   6   1.00
    423.7350000             -0.0023767              0.0040610
    100.7100000             -0.0316930              0.0306810
     32.1599000             -0.1133170              0.1304520
     11.8079000              0.0560900              0.3272050
      4.6311000              0.5922550              0.4528510
      1.8702500              0.4550060              0.2560420
SP   3   1.00
      2.6158400             -0.2503740             -0.0145110
      0.9221670              0.0669570              0.3102630
      0.3412870              1.0545100              0.7544830
SP   1   1.00
      0.1171670              1.0000000              1.0000000
D    1   1.00
      1.3000000              1.0000000
D    1   1.00
      0.3250000              1.0000000
F    1   1.00
      0.5500000              1.0000000
****
Cl     0
S    6   1.00
  25180.1000000              0.0018330
   3780.3500000              0.0140340
    860.4740000              0.0690970
    242.1450000              0.2374520
     77.3349000              0.4830340
     26.2470000              0.3398560
SP   6   1.00
    491.7650000             -0.0022974              0.0039894
    116.9840000             -0.0307140              0.0303180
     37.4153000             -0.1125280              0.1298800
     13.7834000              0.0450160              0.3279510
      5.4521500              0.5893530              0.4535270
      2.2258800              0.4652060              0.2521540
SP   3   1.00
      3.1864900             -0.2518300             -0.0142990
      1.1442700              0.0615890              0.3235720
      0.4203770              1.0601800              0.7435070
SP   1   1.00
      0.1426570              1.0000000              1.0000000
D    1   1.00
      1.5000000              1.0000000
D    1   1.00
      0.3750000              1.0000000
F    1   1.00
      0.7000000              1.0000000
****
}


set {
reference rhf                          
freeze_core true
e_convergence 10                       
d_convergence 10                      
dft_spherical_points 1202
dft_radial_points 99
}

e = energy('b3lyp')

print_out('Grab this energy {0}'.format(e))
--------------------------------------------------------------------------

  Memory set to  13.039 GiB by Python driver.

Scratch directory: /tmp/

*** tstart() called on n054
*** at Wed Jan  5 15:14:33 2022

   => Loading Basis Set <=

    Name: ANONYMOUS1FB5E7AB
    Role: ORBITAL
    Keyword: BASIS
    atoms 1   entry SI         line   160 inputblock 6-31g_2dfp_ 
    atoms 2-5 entry F          line   111 inputblock 6-31g_2dfp_ 


         ---------------------------------------------------------
                                   SCF
               by Justin Turney, Rob Parrish, Andy Simmonett
                          and Daniel G. A. Smith
                              RKS Reference
                        4 Threads,  13351 MiB Core
         ---------------------------------------------------------

  ==> Geometry <==

    Molecular point group: c2
    Full point group: C2

    Geometry (in Bohr), charge = 0, multiplicity = 1:

       Center              X                  Y                   Z               Mass       
    ------------   -----------------  -----------------  -----------------  -----------------
         SI           0.000000000000     0.000000000000    -0.000000029492    27.976926534650
         F            0.006429027500    -2.405518572200     1.700954179208    18.998403162730
         F           -0.006429027500     2.405518572200     1.700954179208    18.998403162730
         F            2.405518618900    -0.006429027400    -1.700954157492    18.998403162730
         F           -2.405518618900     0.006429027400    -1.700954157492    18.998403162730

  Running in c2 symmetry.

  Rotational constants: A =      0.13727  B =      0.13690  C =      0.13653 [cm^-1]
  Rotational constants: A =   4115.11730  B =   4104.09404  C =   4093.17969 [MHz]
  Nuclear repulsion =  272.088401473400779

  Charge       = 0
  Multiplicity = 1
  Electrons    = 50
  Nalpha       = 25
  Nbeta        = 25

  ==> Algorithm <==

  SCF Algorithm Type is DF.
  DIIS enabled.
  MOM disabled.
  Fractional occupation disabled.
  Guess Type is SAD.
  Energy threshold   = 1.00e-10
  Density threshold  = 1.00e-10
  Integral threshold = 0.00e+00

  ==> Primary Basis <==

  Basis Set: ANONYMOUS1FB5E7AB
    Blend: 6-31G_2DFP_
    Number of shells: 42
    Number of basis function: 134
    Number of Cartesian functions: 159
    Spherical Harmonics?: true
    Max angular momentum: 3

  ==> DFT Potential <==

   => Composite Functional: B3LYP <= 

    B3LYP Hyb-GGA Exchange-Correlation Functional

    P. J. Stephens, F. J. Devlin, C. F. Chabalowski, and M. J. Frisch, J. Phys. Chem. 98, 11623 (1994)

    Deriv               =              1
    GGA                 =           TRUE
    Meta                =          FALSE

    Exchange Hybrid     =           TRUE
    MP2 Hybrid          =          FALSE

   => Exchange Functionals <=

    0.0800   Slater exchange
    0.7200         Becke 88

   => Exact (HF) Exchange <=

    0.2000               HF 

   => Correlation Functionals <=

    0.1900   Vosko, Wilk & Nusair (VWN5_RPA)
    0.8100   Lee, Yang & Parr

   => Molecular Quadrature <=

    Radial Scheme          =       TREUTLER
    Pruning Scheme         =           NONE
    Nuclear Scheme         =       TREUTLER

    BS radius alpha        =              1
    Pruning alpha          =              1
    Radial Points          =             99
    Spherical Points       =           1202
    Total Points           =         569726
    Total Blocks           =           4041
    Max Points             =            256
    Max Functions          =            131
    Weights Tolerance      =       1.00E-15

   => Loading Basis Set <=

    Name: (ANONYMOUS1FB5E7AB AUX)
    Role: JKFIT
    Keyword: DF_BASIS_SCF
    atoms 1   entry SI         line   737 file /opt/psi/4/master/share/psi4/basis/def2-universal-jkfit.gbs 
    atoms 2-5 entry F          line   378 file /opt/psi/4/master/share/psi4/basis/def2-universal-jkfit.gbs 

  ==> Integral Setup <==

  DFHelper Memory: AOs need 0.062 GiB; user supplied 8.354 GiB. Using in-core AOs.

  ==> MemDFJK: Density-Fitted J/K Matrices <==

    J tasked:                   Yes
    K tasked:                   Yes
    wK tasked:                   No
    OpenMP threads:               4
    Memory [MiB]:              8554
    Algorithm:                 Core
    Schwarz Cutoff:           1E-12
    Mask sparsity (%):       3.4752
    Fitting Condition:        1E-10

   => Auxiliary Basis Set <=

  Basis Set: (ANONYMOUS1FB5E7AB AUX)
    Blend: DEF2-UNIVERSAL-JKFIT
    Number of shells: 138
    Number of basis function: 436
    Number of Cartesian functions: 527
    Spherical Harmonics?: true
    Max angular momentum: 4

  Cached 100.0% of DFT collocation blocks in 1.425 [GiB].

  Minimum eigenvalue in the overlap matrix is 1.2526210198E-02.
  Reciprocal condition number of the overlap matrix is 3.7427697990E-03.
    Using symmetric orthogonalization.

  ==> Pre-Iterations <==

  SCF Guess: Superposition of Atomic Densities via on-the-fly atomic UHF (no occupation information).

   -------------------------
    Irrep   Nso     Nmo    
   -------------------------
     A         68      68 
     B         66      66 
   -------------------------
    Total     134     134
   -------------------------

  ==> Iterations <==

                           Total Energy        Delta E     RMS |[F,P]|

   @DF-RKS iter SAD:  -688.57794775537320   -6.88578e+02   0.00000e+00 
   @DF-RKS iter   1:  -689.01000317466764   -4.32055e-01   6.87973e-03 DIIS
   @DF-RKS iter   2:  -688.88685654049948    1.23147e-01   9.66026e-03 DIIS
   @DF-RKS iter   3:  -689.13612025930877   -2.49264e-01   4.18090e-04 DIIS
   @DF-RKS iter   4:  -689.13669792161727   -5.77662e-04   3.18775e-05 DIIS
   @DF-RKS iter   5:  -689.13670040531792   -2.48370e-06   4.46101e-06 DIIS
   @DF-RKS iter   6:  -689.13670045976176   -5.44438e-08   4.02123e-07 DIIS
   @DF-RKS iter   7:  -689.13670046017864   -4.16890e-10   1.57334e-08 DIIS
   @DF-RKS iter   8:  -689.13670046017967   -1.02318e-12   1.20824e-09 DIIS
   @DF-RKS iter   9:  -689.13670046017955    1.13687e-13   1.27629e-10 DIIS
   @DF-RKS iter  10:  -689.13670046018001   -4.54747e-13   9.69673e-11 DIIS
  Energy and wave function converged.


  ==> Post-Iterations <==

    Orbital Energies [Eh]
    ---------------------

    Doubly Occupied:                                                      

       1A    -66.270456     1B    -24.726304     2A    -24.726304  
       2B    -24.726304     3A    -24.726301     4A     -5.405920  
       3B     -3.766001     5A     -3.765980     4B     -3.765959  
       6A     -1.257781     5B     -1.221485     7A     -1.221361  
       6B     -1.221239     8A     -0.610558     7B     -0.540002  
       9A     -0.539873     8B     -0.539745    10A     -0.485621  
      11A     -0.485259     9B     -0.478106    12A     -0.478093  
      10B     -0.478079    11B     -0.440403    13A     -0.440321  
      12B     -0.440241  

    Virtual:                                                              

      14A      0.020396    13B      0.098934    15A      0.099453  
      14B      0.099971    16A      0.256962    15B      0.264480  
      17A      0.264915    16B      0.265350    18A      0.424089  
      19A      0.425408    17B      0.595611    20A      0.595727  
      18B      0.595856    21A      0.909829    19B      1.011779  
      22A      1.012714    20B      1.013660    21B      1.099925  
      23A      1.101068    22B      1.102224    23B      1.241262  
      24A      1.241779    24B      1.242298    25A      1.256264  
      26A      1.256925    25B      1.286714    27A      1.287236  
      26B      1.287740    27B      1.379382    28A      1.380132  
      28B      1.380851    29A      1.526442    29B      1.615902  
      30A      1.616852    30B      1.617818    31A      1.627379  
      32A      1.629474    31B      1.862458    33A      1.863193  
      32B      1.863928    33B      1.943936    34A      1.944176  
      34B      1.944385    35A      1.997095    36A      1.997541  
      37A      1.998047    35B      2.222400    38A      2.223019  
      36B      2.223659    37B      2.638729    39A      2.639868  
      38B      2.641124    40A      2.656463    41A      2.663496  
      39B      2.677481    42A      2.683879    40B      2.690159  
      43A      2.882316    41B      3.239809    44A      3.240756  
      42B      3.241711    43B      6.541739    45A      6.541868  
      44B      6.541998    46A      6.572749    47A      6.572802  
      48A      6.580564    45B      6.583609    49A      6.583693  
      46B      6.583778    47B      6.589275    50A      6.589279  
      48B      6.589281    51A      6.590912    49B      6.593043  
      52A      6.593136    50B      6.593228    53A      6.630004  
      54A      6.630651    55A      6.636099    51B      6.668082  
      56A      6.668471    52B      6.668881    53B      6.670283  
      57A      6.670633    54B      6.670970    55B      6.748172  
      58A      6.748253    56B      6.748346    57B      8.994212  
      59A      8.994351    60A      8.994440    58B      8.994482  
      61A      8.994593    59B      9.124324    62A      9.124547  
      60B      9.124775    61B      9.375840    63A      9.379759  
      62B      9.384229    63B      9.385133    64A      9.386255  
      64B      9.386863    65A      9.391741    66A      9.396241  
      67A      9.425441    65B      9.496296    68A      9.496887  
      66B      9.497488  

    Final Occupation by Irrep:
              A     B 
    DOCC [    13,   12 ]

  @DF-RKS Final Energy:  -689.13670046018001

   => Energetics <=

    Nuclear Repulsion Energy =            272.0884014734007792
    One-Electron Energy =               -1500.5186832173749281
    Two-Electron Energy =                 590.2006850965428839
    DFT Exchange-Correlation Energy =     -50.9071038127488578
    Empirical Dispersion Energy =           0.0000000000000000
    VV10 Nonlocal Energy =                  0.0000000000000000
    Total Energy =                       -689.1367004601800090

Computation Completed


Properties will be evaluated at   0.000000,   0.000000,   0.000000 [a0]

Properties computed using the SCF density matrix

  Nuclear Dipole Moment: [e a0]
     X:     0.0000      Y:     0.0000      Z:    -0.0000

  Electronic Dipole Moment: [e a0]
     X:     0.0000      Y:     0.0000      Z:    -0.0000

  Dipole Moment: [e a0]
     X:     0.0000      Y:     0.0000      Z:    -0.0000     Total:     0.0000

  Dipole Moment: [D]
     X:     0.0000      Y:     0.0000      Z:    -0.0000     Total:     0.0000


*** tstop() called on n054 at Wed Jan  5 15:14:39 2022
Module time:
	user time   =      24.05 seconds =       0.40 minutes
	system time =       0.50 seconds =       0.01 minutes
	total time  =          6 seconds =       0.10 minutes
Total time:
	user time   =      24.05 seconds =       0.40 minutes
	system time =       0.50 seconds =       0.01 minutes
	total time  =          6 seconds =       0.10 minutes
Grab this energy -689.13670046018
    Psi4 stopped on: Wednesday, 05 January 2022 03:14PM
    Psi4 wall time for execution: 0:00:06.46

*** Psi4 exiting successfully. Buy a developer a beer!
