
    -----------------------------------------------------------------------
          Psi4: An Open-Source Ab Initio Electronic Structure Package
                               Psi4 1.4a2.dev629 

                         Git: Rev {master} 2938fc2 dirty


    D. G. A. Smith, L. A. Burns, A. C. Simmonett, R. M. Parrish,
    M. C. Schieber, R. Galvelis, P. Kraus, H. Kruse, R. Di Remigio,
    A. Alenaizan, A. M. James, S. Lehtola, J. P. Misiewicz, M. Scheurer,
    R. A. Shaw, J. B. Schriber, Y. Xie, Z. L. Glick, D. A. Sirianni,
    J. S. O'Brien, J. M. Waldrop, A. Kumar, E. G. Hohenstein,
    B. P. Pritchard, B. R. Brooks, H. F. Schaefer III, A. Yu. Sokolov,
    K. Patkowski, A. E. DePrince III, U. Bozkaya, R. A. King,
    F. A. Evangelista, J. M. Turney, T. D. Crawford, C. D. Sherrill,
    J. Chem. Phys. 152(18) 184108 (2020). https://doi.org/10.1063/5.0006002

                            Additional Code Authors
    E. T. Seidl, C. L. Janssen, E. F. Valeev, M. L. Leininger,
    J. F. Gonthier, R. M. Richard, H. R. McAlexander, M. Saitow, X. Wang,
    P. Verma, and M. H. Lechner

             Previous Authors, Complete List of Code Contributors,
                       and Citations for Specific Modules
    https://github.com/psi4/psi4/blob/master/codemeta.json
    https://github.com/psi4/psi4/graphs/contributors
    http://psicode.org/psi4manual/master/introduction.html#citing-psifour

    -----------------------------------------------------------------------


    Psi4 started on: Tuesday, 02 November 2021 09:20AM

    Process ID: 27100
    Host:       n081
    PSIDATADIR: /opt/psi/4/master/share/psi4
    Memory:     500.0 MiB
    Threads:    1
    
  ==> Input File <==

--------------------------------------------------------------------------
import os
memory 14 GB 
 
molecule {
 N    2.5125180333   -0.0017727786    0.0029868498
 X    0.3166073300    1.0000000000   -0.0000000000
 C    0.3165998185    0.0044069811   -0.0075437576
 X    0.3166073300    0.0000000000    1.0000000000
 C   -2.4541824857   -0.0021525433    0.0037413336
 H   -3.1501559598    0.9673000828   -1.6754190791
 H   -3.1540678735   -1.9370272900   -0.0008513567
 H   -3.1541141028    0.9692455479    1.6770860100
units bohr
}

basis {

assign 6-31g_2dfp_

[ 6-31g_2dfp_ ]
spherical

!----------------------------------------------------------------------
! Basis Set Exchange
! Version v0.8.13
! https://www.basissetexchange.org
!----------------------------------------------------------------------
!   Basis set: 6-31G(2df,p)
! Description: 6-31G(2df,p)
!        Role: orbital
!     Version: 0  (Data from the original Basis Set Exchange)
!----------------------------------------------------------------------


****
H     0
S    3   1.00
     18.7311370              0.03349460
      2.8253937              0.23472695
      0.6401217              0.81375733
S    1   1.00
      0.1612778              1.00000000
P    1   1.00
      1.5000000              1.0000000
P    1   1.00
      0.3750000              1.0000000
****
C     0
S    6   1.00
   3047.5249000              0.0018347
    457.3695100              0.0140373
    103.9486900              0.0688426
     29.2101550              0.2321844
      9.2866630              0.4679413
      3.1639270              0.3623120
SP   3   1.00
      7.8682724             -0.1193324              0.0689991
      1.8812885             -0.1608542              0.3164240
      0.5442493              1.1434564              0.7443083
SP   1   1.00
      0.1687144              1.0000000              1.0000000
D    1   1.00
      1.2520000              1.0000000
D    1   1.00
      0.3130000              1.0000000
F    1   1.00
      0.8000000              1.0000000
****
N     0
S    6   1.00
   4173.5110000              0.0018348
    627.4579000              0.0139950
    142.9021000              0.0685870
     40.2343300              0.2322410
     12.8202100              0.4690700
      4.3904370              0.3604550
SP   3   1.00
     11.6263580             -0.1149610              0.0675800
      2.7162800             -0.1691180              0.3239070
      0.7722180              1.1458520              0.7408950
SP   1   1.00
      0.2120313              1.0000000              1.0000000
D    1   1.00
      1.8260000              1.0000000
D    1   1.00
      0.4565000              1.0000000
F    1   1.00
      1.0000000              1.0000000
****
}


set {
opt_type min                            
reference rhf                          
freeze_core true
e_convergence 10                       
d_convergence 10                      
ensure_bt_convergence true           
dft_spherical_points 590
dft_radial_points 99
}

e = energy('b3lyp')

print_out('Grab this energy {0}'.format(e))
--------------------------------------------------------------------------

  Memory set to  13.039 GiB by Python driver.

Scratch directory: /tmp/

*** tstart() called on n081
*** at Tue Nov  2 09:20:32 2021

   => Loading Basis Set <=

    Name: ANONYMOUS91A541B2
    Role: ORBITAL
    Keyword: BASIS
    atoms 1   entry N          line    48 inputblock 6-31g_2dfp_ 
    atoms 2-3 entry C          line    27 inputblock 6-31g_2dfp_ 
    atoms 4-6 entry H          line    15 inputblock 6-31g_2dfp_ 


         ---------------------------------------------------------
                                   SCF
               by Justin Turney, Rob Parrish, Andy Simmonett
                          and Daniel G. A. Smith
                              RKS Reference
                        1 Threads,  13351 MiB Core
         ---------------------------------------------------------

  ==> Geometry <==

    Molecular point group: c1
    Full point group: C1

    Geometry (in Bohr), charge = 0, multiplicity = 1:

       Center              X                  Y                   Z               Mass       
    ------------   -----------------  -----------------  -----------------  -----------------
         N            2.512526949086    -0.001815274872     0.003059535736    14.003074004430
         C            0.316608734286     0.004364484828    -0.007471071664    12.000000000000
         C           -2.454173569914    -0.002195039572     0.003814019536    12.000000000000
         H           -3.150147044014     0.967257586528    -1.675346393164     1.007825032230
         H           -3.154058957714    -1.937069786272    -0.000778670764     1.007825032230
         H           -3.154105187014     0.969203051628     1.677158695936     1.007825032230

  Running in c1 symmetry.

  Rotational constants: A =      5.31043  B =      0.30467  C =      0.30465 [cm^-1]
  Rotational constants: A = 159202.57729  B =   9133.70480  C =   9133.06278 [MHz]
  Nuclear repulsion =   58.252265417016666

  Charge       = 0
  Multiplicity = 1
  Electrons    = 22
  Nalpha       = 11
  Nbeta        = 11

  ==> Algorithm <==

  SCF Algorithm Type is DF.
  DIIS enabled.
  MOM disabled.
  Fractional occupation disabled.
  Guess Type is SAD.
  Energy threshold   = 1.00e-10
  Density threshold  = 1.00e-10
  Integral threshold = 0.00e+00

  ==> Primary Basis <==

  Basis Set: ANONYMOUS91A541B2
    Blend: 6-31G_2DFP_
    Number of shells: 36
    Number of basis function: 102
    Number of Cartesian functions: 117
    Spherical Harmonics?: true
    Max angular momentum: 3

  ==> DFT Potential <==

   => Composite Functional: B3LYP <= 

    B3LYP Hyb-GGA Exchange-Correlation Functional

    P. J. Stephens, F. J. Devlin, C. F. Chabalowski, and M. J. Frisch, J. Phys. Chem. 98, 11623 (1994)

    Deriv               =              1
    GGA                 =           TRUE
    Meta                =          FALSE

    Exchange Hybrid     =           TRUE
    MP2 Hybrid          =          FALSE

   => Exchange Functionals <=

    0.0800   Slater exchange
    0.7200         Becke 88

   => Exact (HF) Exchange <=

    0.2000               HF 

   => Correlation Functionals <=

    0.1900   Vosko, Wilk & Nusair (VWN5_RPA)
    0.8100   Lee, Yang & Parr

   => Molecular Quadrature <=

    Radial Scheme          =       TREUTLER
    Pruning Scheme         =           NONE
    Nuclear Scheme         =       TREUTLER

    BS radius alpha        =              1
    Pruning alpha          =              1
    Radial Points          =             99
    Spherical Points       =            590
    Total Points           =         330781
    Total Blocks           =           2425
    Max Points             =            256
    Max Functions          =            102
    Weights Tolerance      =       1.00E-15

   => Loading Basis Set <=

    Name: (ANONYMOUS91A541B2 AUX)
    Role: JKFIT
    Keyword: DF_BASIS_SCF
    atoms 1   entry N          line   258 file /opt/psi/4/master/share/psi4/basis/def2-universal-jkfit.gbs 
    atoms 2-3 entry C          line   198 file /opt/psi/4/master/share/psi4/basis/def2-universal-jkfit.gbs 
    atoms 4-6 entry H          line    18 file /opt/psi/4/master/share/psi4/basis/def2-universal-jkfit.gbs 

  ==> Integral Setup <==

  DFHelper Memory: AOs need 0.024 GiB; user supplied 8.930 GiB. Using in-core AOs.

  ==> MemDFJK: Density-Fitted J/K Matrices <==

    J tasked:                   Yes
    K tasked:                   Yes
    wK tasked:                   No
    OpenMP threads:               1
    Memory [MiB]:              9144
    Algorithm:                 Core
    Schwarz Cutoff:           1E-12
    Mask sparsity (%):       0.2884
    Fitting Condition:        1E-10

   => Auxiliary Basis Set <=

  Basis Set: (ANONYMOUS91A541B2 AUX)
    Blend: DEF2-UNIVERSAL-JKFIT
    Number of shells: 93
    Number of basis function: 281
    Number of Cartesian functions: 331
    Spherical Harmonics?: true
    Max angular momentum: 4

  Cached 100.0% of DFT collocation blocks in 0.849 [GiB].

  Minimum eigenvalue in the overlap matrix is 1.4408738391E-03.
  Reciprocal condition number of the overlap matrix is 2.7012141635E-04.
    Using symmetric orthogonalization.

  ==> Pre-Iterations <==

  SCF Guess: Superposition of Atomic Densities via on-the-fly atomic UHF (no occupation information).

   -------------------------
    Irrep   Nso     Nmo    
   -------------------------
     A        102     102 
   -------------------------
    Total     102     102
   -------------------------

  ==> Iterations <==

                           Total Energy        Delta E     RMS |[F,P]|

   @DF-RKS iter SAD:  -132.11445238594624   -1.32114e+02   0.00000e+00 
   @DF-RKS iter   1:  -132.55298007832064   -4.38528e-01   6.37133e-03 DIIS
   @DF-RKS iter   2:  -132.34420289020909    2.08777e-01   8.90042e-03 DIIS
   @DF-RKS iter   3:  -132.70165933784656   -3.57456e-01   3.48865e-03 DIIS
   @DF-RKS iter   4:  -132.76099121634061   -5.93319e-02   2.27224e-04 DIIS
   @DF-RKS iter   5:  -132.76120268232853   -2.11466e-04   1.16525e-04 DIIS
   @DF-RKS iter   6:  -132.76127020862120   -6.75263e-05   1.84548e-05 DIIS
   @DF-RKS iter   7:  -132.76127200269525   -1.79407e-06   3.45342e-06 DIIS
   @DF-RKS iter   8:  -132.76127205657562   -5.38804e-08   5.16223e-07 DIIS
   @DF-RKS iter   9:  -132.76127205771701   -1.14139e-09   9.09873e-08 DIIS
   @DF-RKS iter  10:  -132.76127205775231   -3.52998e-11   1.56787e-08 DIIS
   @DF-RKS iter  11:  -132.76127205775344   -1.13687e-12   2.68900e-09 DIIS
   @DF-RKS iter  12:  -132.76127205775319    2.55795e-13   8.00166e-11 DIIS
  Energy and wave function converged.


  ==> Post-Iterations <==

    Orbital Energies [Eh]
    ---------------------

    Doubly Occupied:                                                      

       1A    -14.332934     2A    -10.235501     3A    -10.224440  
       4A     -0.899009     5A     -0.776425     6A     -0.514735  
       7A     -0.465488     8A     -0.464917     9A     -0.357649  
      10A     -0.325705    11A     -0.325531  

    Virtual:                                                              

      12A      0.035159    13A      0.035506    14A      0.068744  
      15A      0.146833    16A      0.147740    17A      0.174661  
      18A      0.274779    19A      0.409095    20A      0.409156  
      21A      0.469462    22A      0.487600    23A      0.487915  
      24A      0.558162    25A      0.558194    26A      0.578197  
      27A      0.643403    28A      0.644573    29A      0.646531  
      30A      0.675873    31A      0.677744    32A      0.706368  
      33A      0.759061    34A      0.759178    35A      0.823730  
      36A      0.985670    37A      0.991708    38A      0.992843  
      39A      1.125109    40A      1.141681    41A      1.143021  
      42A      1.281171    43A      1.319011    44A      1.319701  
      45A      1.328655    46A      1.360271    47A      1.360597  
      48A      1.451702    49A      1.451916    50A      1.543002  
      51A      1.709893    52A      1.769366    53A      1.770187  
      54A      1.856367    55A      1.860060    56A      2.055960  
      57A      2.632938    58A      2.748538    59A      2.775623  
      60A      2.777718    61A      2.778709    62A      2.845419  
      63A      2.850389    64A      2.906179    65A      2.928095  
      66A      3.030196    67A      3.030696    68A      3.104705  
      69A      3.107388    70A      3.261789    71A      3.265601  
      72A      3.337344    73A      3.337553    74A      3.414155  
      75A      3.522991    76A      3.528068    77A      3.580059  
      78A      3.675104    79A      3.676998    80A      3.910704  
      81A      3.916856    82A      3.958346    83A      4.101026  
      84A      4.101704    85A      4.215171    86A      4.222897  
      87A      4.233103    88A      4.356318    89A      4.388981  
      90A      4.559894    91A      4.564188    92A      4.788352  
      93A      4.789888    94A      4.840219    95A      4.840431  
      96A      4.946191    97A      5.193732    98A      5.194780  
      99A      5.254764   100A      5.562003   101A      5.562436  
     102A      5.993673  

    Final Occupation by Irrep:
              A 
    DOCC [    11 ]

  @DF-RKS Final Energy:  -132.76127205775319

   => Energetics <=

    Nuclear Repulsion Energy =             58.2522654170166660
    One-Electron Energy =                -293.2331092983109784
    Two-Electron Energy =                 117.4395006268302808
    DFT Exchange-Correlation Energy =     -15.2199288032891697
    Empirical Dispersion Energy =           0.0000000000000000
    VV10 Nonlocal Energy =                  0.0000000000000000
    Total Energy =                       -132.7612720577531888

Computation Completed


Properties will be evaluated at   0.000000,   0.000000,   0.000000 [a0]

Properties computed using the SCF density matrix

  Nuclear Dipole Moment: [e a0]
     X:    -4.6960      Y:    -0.0003      Z:     0.0005

  Electronic Dipole Moment: [e a0]
     X:     3.1900      Y:     0.0010      Z:    -0.0016

  Dipole Moment: [e a0]
     X:    -1.5060      Y:     0.0007      Z:    -0.0011     Total:     1.5060

  Dipole Moment: [D]
     X:    -3.8278      Y:     0.0017      Z:    -0.0028     Total:     3.8278


*** tstop() called on n081 at Tue Nov  2 09:20:45 2021
Module time:
	user time   =      12.33 seconds =       0.21 minutes
	system time =       0.26 seconds =       0.00 minutes
	total time  =         13 seconds =       0.22 minutes
Total time:
	user time   =      12.33 seconds =       0.21 minutes
	system time =       0.26 seconds =       0.00 minutes
	total time  =         13 seconds =       0.22 minutes
Grab this energy -132.7612720577532
    Psi4 stopped on: Tuesday, 02 November 2021 09:20AM
    Psi4 wall time for execution: 0:00:12.61

*** Psi4 exiting successfully. Buy a developer a beer!
