
    -----------------------------------------------------------------------
          Psi4: An Open-Source Ab Initio Electronic Structure Package
                               Psi4 1.4a2.dev629 

                         Git: Rev {master} 2938fc2 dirty


    D. G. A. Smith, L. A. Burns, A. C. Simmonett, R. M. Parrish,
    M. C. Schieber, R. Galvelis, P. Kraus, H. Kruse, R. Di Remigio,
    A. Alenaizan, A. M. James, S. Lehtola, J. P. Misiewicz, M. Scheurer,
    R. A. Shaw, J. B. Schriber, Y. Xie, Z. L. Glick, D. A. Sirianni,
    J. S. O'Brien, J. M. Waldrop, A. Kumar, E. G. Hohenstein,
    B. P. Pritchard, B. R. Brooks, H. F. Schaefer III, A. Yu. Sokolov,
    K. Patkowski, A. E. DePrince III, U. Bozkaya, R. A. King,
    F. A. Evangelista, J. M. Turney, T. D. Crawford, C. D. Sherrill,
    J. Chem. Phys. 152(18) 184108 (2020). https://doi.org/10.1063/5.0006002

                            Additional Code Authors
    E. T. Seidl, C. L. Janssen, E. F. Valeev, M. L. Leininger,
    J. F. Gonthier, R. M. Richard, H. R. McAlexander, M. Saitow, X. Wang,
    P. Verma, and M. H. Lechner

             Previous Authors, Complete List of Code Contributors,
                       and Citations for Specific Modules
    https://github.com/psi4/psi4/blob/master/codemeta.json
    https://github.com/psi4/psi4/graphs/contributors
    http://psicode.org/psi4manual/master/introduction.html#citing-psifour

    -----------------------------------------------------------------------


    Psi4 started on: Tuesday, 02 November 2021 09:25AM

    Process ID: 14407
    Host:       n079
    PSIDATADIR: /opt/psi/4/master/share/psi4
    Memory:     500.0 MiB
    Threads:    1
    
  ==> Input File <==

--------------------------------------------------------------------------
import os
memory 14 GB 
 
molecule {
 N    2.5230393361   -0.0000000000   -0.0000000000
 X    0.3166073300    1.0000000000    0.0000000000
 C    0.3239676988    0.0000000000    0.0000000000
 X    0.3166073300    0.0000000000    1.0000000000
 C   -2.4521561242    0.0000000000    0.0000000000
 H   -3.1594178269    0.9663803356   -1.6738198382
 H   -3.1594178268   -1.9327606712   -0.0000000000
 H   -3.1594178269    0.9663803356    1.6738198382
units bohr
}

basis {

assign 6-31g_2dfp_

[ 6-31g_2dfp_ ]
spherical

!----------------------------------------------------------------------
! Basis Set Exchange
! Version v0.8.13
! https://www.basissetexchange.org
!----------------------------------------------------------------------
!   Basis set: 6-31G(2df,p)
! Description: 6-31G(2df,p)
!        Role: orbital
!     Version: 0  (Data from the original Basis Set Exchange)
!----------------------------------------------------------------------


****
H     0
S    3   1.00
     18.7311370              0.03349460
      2.8253937              0.23472695
      0.6401217              0.81375733
S    1   1.00
      0.1612778              1.00000000
P    1   1.00
      1.5000000              1.0000000
P    1   1.00
      0.3750000              1.0000000
****
C     0
S    6   1.00
   3047.5249000              0.0018347
    457.3695100              0.0140373
    103.9486900              0.0688426
     29.2101550              0.2321844
      9.2866630              0.4679413
      3.1639270              0.3623120
SP   3   1.00
      7.8682724             -0.1193324              0.0689991
      1.8812885             -0.1608542              0.3164240
      0.5442493              1.1434564              0.7443083
SP   1   1.00
      0.1687144              1.0000000              1.0000000
D    1   1.00
      1.2520000              1.0000000
D    1   1.00
      0.3130000              1.0000000
F    1   1.00
      0.8000000              1.0000000
****
N     0
S    6   1.00
   4173.5110000              0.0018348
    627.4579000              0.0139950
    142.9021000              0.0685870
     40.2343300              0.2322410
     12.8202100              0.4690700
      4.3904370              0.3604550
SP   3   1.00
     11.6263580             -0.1149610              0.0675800
      2.7162800             -0.1691180              0.3239070
      0.7722180              1.1458520              0.7408950
SP   1   1.00
      0.2120313              1.0000000              1.0000000
D    1   1.00
      1.8260000              1.0000000
D    1   1.00
      0.4565000              1.0000000
F    1   1.00
      1.0000000              1.0000000
****
}


set {
opt_type min                            
reference rhf                          
freeze_core true
e_convergence 10                       
d_convergence 10                      
ensure_bt_convergence true           
dft_spherical_points 590
dft_radial_points 99
}

e = energy('b3lyp')

print_out('Grab this energy {0}'.format(e))
--------------------------------------------------------------------------

  Memory set to  13.039 GiB by Python driver.

Scratch directory: /tmp/

*** tstart() called on n079
*** at Tue Nov  2 09:25:32 2021

   => Loading Basis Set <=

    Name: ANONYMOUSF10A2135
    Role: ORBITAL
    Keyword: BASIS
    atoms 1   entry N          line    48 inputblock 6-31g_2dfp_ 
    atoms 2-3 entry C          line    27 inputblock 6-31g_2dfp_ 
    atoms 4-6 entry H          line    15 inputblock 6-31g_2dfp_ 


         ---------------------------------------------------------
                                   SCF
               by Justin Turney, Rob Parrish, Andy Simmonett
                          and Daniel G. A. Smith
                              RKS Reference
                        1 Threads,  13351 MiB Core
         ---------------------------------------------------------

  ==> Geometry <==

    Molecular point group: cs
    Full point group: C3v

    Geometry (in Bohr), charge = 0, multiplicity = 1:

       Center              X                  Y                   Z               Mass       
    ------------   -----------------  -----------------  -----------------  -----------------
         N            0.000000000000    -2.517198622699     0.000000000000    14.003074004430
         C            0.000000000000    -0.318126985399     0.000000000000    12.000000000000
         C            0.000000000000     2.457996837601     0.000000000000    12.000000000000
         H            0.966380334520     3.165258540251     1.673819840071     1.007825032230
         H            0.966380334520     3.165258540251    -1.673819840071     1.007825032230
         H           -1.932760669040     3.165258540301     0.000000000000     1.007825032230

  Running in cs symmetry.

  Rotational constants: A =      5.33005  B =      0.30345  C =      0.30345 [cm^-1]
  Rotational constants: A = 159791.02369  B =   9097.30632  C =   9097.30632 [MHz]
  Nuclear repulsion =   58.167847737049783

  Charge       = 0
  Multiplicity = 1
  Electrons    = 22
  Nalpha       = 11
  Nbeta        = 11

  ==> Algorithm <==

  SCF Algorithm Type is DF.
  DIIS enabled.
  MOM disabled.
  Fractional occupation disabled.
  Guess Type is SAD.
  Energy threshold   = 1.00e-10
  Density threshold  = 1.00e-10
  Integral threshold = 0.00e+00

  ==> Primary Basis <==

  Basis Set: ANONYMOUSF10A2135
    Blend: 6-31G_2DFP_
    Number of shells: 36
    Number of basis function: 102
    Number of Cartesian functions: 117
    Spherical Harmonics?: true
    Max angular momentum: 3

  ==> DFT Potential <==

   => Composite Functional: B3LYP <= 

    B3LYP Hyb-GGA Exchange-Correlation Functional

    P. J. Stephens, F. J. Devlin, C. F. Chabalowski, and M. J. Frisch, J. Phys. Chem. 98, 11623 (1994)

    Deriv               =              1
    GGA                 =           TRUE
    Meta                =          FALSE

    Exchange Hybrid     =           TRUE
    MP2 Hybrid          =          FALSE

   => Exchange Functionals <=

    0.0800   Slater exchange
    0.7200         Becke 88

   => Exact (HF) Exchange <=

    0.2000               HF 

   => Correlation Functionals <=

    0.1900   Vosko, Wilk & Nusair (VWN5_RPA)
    0.8100   Lee, Yang & Parr

   => Molecular Quadrature <=

    Radial Scheme          =       TREUTLER
    Pruning Scheme         =           NONE
    Nuclear Scheme         =       TREUTLER

    BS radius alpha        =              1
    Pruning alpha          =              1
    Radial Points          =             99
    Spherical Points       =            590
    Total Points           =         330824
    Total Blocks           =           2447
    Max Points             =            256
    Max Functions          =            102
    Weights Tolerance      =       1.00E-15

   => Loading Basis Set <=

    Name: (ANONYMOUSF10A2135 AUX)
    Role: JKFIT
    Keyword: DF_BASIS_SCF
    atoms 1   entry N          line   258 file /opt/psi/4/master/share/psi4/basis/def2-universal-jkfit.gbs 
    atoms 2-3 entry C          line   198 file /opt/psi/4/master/share/psi4/basis/def2-universal-jkfit.gbs 
    atoms 4-6 entry H          line    18 file /opt/psi/4/master/share/psi4/basis/def2-universal-jkfit.gbs 

  ==> Integral Setup <==

  DFHelper Memory: AOs need 0.024 GiB; user supplied 8.928 GiB. Using in-core AOs.

  ==> MemDFJK: Density-Fitted J/K Matrices <==

    J tasked:                   Yes
    K tasked:                   Yes
    wK tasked:                   No
    OpenMP threads:               1
    Memory [MiB]:              9142
    Algorithm:                 Core
    Schwarz Cutoff:           1E-12
    Mask sparsity (%):       0.3268
    Fitting Condition:        1E-10

   => Auxiliary Basis Set <=

  Basis Set: (ANONYMOUSF10A2135 AUX)
    Blend: DEF2-UNIVERSAL-JKFIT
    Number of shells: 93
    Number of basis function: 281
    Number of Cartesian functions: 331
    Spherical Harmonics?: true
    Max angular momentum: 4

  Cached 100.0% of DFT collocation blocks in 0.851 [GiB].

  Minimum eigenvalue in the overlap matrix is 1.4431865017E-03.
  Reciprocal condition number of the overlap matrix is 2.8899215459E-04.
    Using symmetric orthogonalization.

  ==> Pre-Iterations <==

  SCF Guess: Superposition of Atomic Densities via on-the-fly atomic UHF (no occupation information).

   -------------------------
    Irrep   Nso     Nmo    
   -------------------------
     A'        65      65 
     A"        37      37 
   -------------------------
    Total     102     102
   -------------------------

  ==> Iterations <==

                           Total Energy        Delta E     RMS |[F,P]|

   @DF-RKS iter SAD:  -132.10906917955003   -1.32109e+02   0.00000e+00 
   @DF-RKS iter   1:  -132.55337519124774   -4.44306e-01   8.68078e-03 DIIS
   @DF-RKS iter   2:  -132.34088691302418    2.12488e-01   1.21829e-02 DIIS
   @DF-RKS iter   3:  -132.70104360916378   -3.60157e-01   4.77662e-03 DIIS
   @DF-RKS iter   4:  -132.76091258519784   -5.98690e-02   3.13492e-04 DIIS
   @DF-RKS iter   5:  -132.76112932841789   -2.16743e-04   1.60124e-04 DIIS
   @DF-RKS iter   6:  -132.76119802366571   -6.86952e-05   2.53198e-05 DIIS
   @DF-RKS iter   7:  -132.76119984155733   -1.81789e-06   4.80033e-06 DIIS
   @DF-RKS iter   8:  -132.76119989753997   -5.59826e-08   7.22710e-07 DIIS
   @DF-RKS iter   9:  -132.76119989874388   -1.20392e-09   1.25579e-07 DIIS
   @DF-RKS iter  10:  -132.76119989878021   -3.63229e-11   1.61075e-08 DIIS
   @DF-RKS iter  11:  -132.76119989878089   -6.82121e-13   2.68893e-10 DIIS
   @DF-RKS iter  12:  -132.76119989878069    1.98952e-13   2.33782e-11 DIIS
  Energy and wave function converged.


  ==> Post-Iterations <==

    Orbital Energies [Eh]
    ---------------------

    Doubly Occupied:                                                      

       1Ap   -14.333618     2Ap   -10.235736     3Ap   -10.225264  
       4Ap    -0.898505     5Ap    -0.775906     6Ap    -0.515460  
       7Ap    -0.464544     1App   -0.464544     8Ap    -0.357953  
       9Ap    -0.325540     2App   -0.325540  

    Virtual:                                                              

       3App    0.034572    10Ap     0.034572    11Ap     0.068721  
      12Ap     0.147391     4App    0.147391    13Ap     0.173624  
      14Ap     0.274865    15Ap     0.409639     5App    0.409639  
      16Ap     0.469259     6App    0.487525    17Ap     0.487525  
      18Ap     0.557902     7App    0.557902    19Ap     0.578467  
      20Ap     0.644202     8App    0.644202    21Ap     0.645606  
       9App    0.676050    22Ap     0.676050    23Ap     0.706735  
      10App    0.758990    24Ap     0.758990    11App    0.824980  
      25Ap     0.984147    12App    0.990723    26Ap     0.990723  
      27Ap     1.126127    13App    1.139755    28Ap     1.139755  
      29Ap     1.280300    30Ap     1.319542    14App    1.319542  
      31Ap     1.326531    15App    1.360061    32Ap     1.360061  
      33Ap     1.449389    16App    1.449389    34Ap     1.543006  
      35Ap     1.708913    36Ap     1.769464    17App    1.769464  
      37Ap     1.859846    18App    1.859846    38Ap     2.052817  
      39Ap     2.626764    19App    2.748718    40Ap     2.776836  
      20App    2.777747    41Ap     2.777747    21App    2.848851  
      42Ap     2.848851    22App    2.906891    43Ap     2.926142  
      44Ap     3.028535    23App    3.028535    24App    3.107101  
      45Ap     3.107101    25App    3.262005    46Ap     3.262005  
      47Ap     3.338077    26App    3.338077    48Ap     3.411356  
      27App    3.519914    49Ap     3.519914    50Ap     3.576305  
      28App    3.674368    51Ap     3.676193    29App    3.912379  
      52Ap     3.912379    53Ap     3.960910    54Ap     4.103566  
      30App    4.103566    55Ap     4.219950    31App    4.219950  
      56Ap     4.230458    57Ap     4.353418    32App    4.381323  
      58Ap     4.559471    33App    4.559471    59Ap     4.787759  
      34App    4.787759    60Ap     4.838707    35App    4.838707  
      61Ap     4.939372    62Ap     5.196204    36App    5.196204  
      63Ap     5.251184    37App    5.557842    64Ap     5.557842  
      65Ap     5.985738  

    Final Occupation by Irrep:
             Ap   App 
    DOCC [     9,    2 ]

  @DF-RKS Final Energy:  -132.76119989878069

   => Energetics <=

    Nuclear Repulsion Energy =             58.1678477370497831
    One-Electron Energy =                -293.0652497355557671
    Two-Electron Energy =                 117.3536848169664921
    DFT Exchange-Correlation Energy =     -15.2174827172412055
    Empirical Dispersion Energy =           0.0000000000000000
    VV10 Nonlocal Energy =                  0.0000000000000000
    Total Energy =                       -132.7611998987806885

Computation Completed


Properties will be evaluated at   0.000000,   0.000000,   0.000000 [a0]

Properties computed using the SCF density matrix

  Nuclear Dipole Moment: [e a0]
     X:     0.0000      Y:     4.7146      Z:     0.0000

  Electronic Dipole Moment: [e a0]
     X:     0.0000      Y:    -3.2068      Z:     0.0000

  Dipole Moment: [e a0]
     X:     0.0000      Y:     1.5078      Z:     0.0000     Total:     1.5078

  Dipole Moment: [D]
     X:     0.0000      Y:     3.8325      Z:     0.0000     Total:     3.8325


*** tstop() called on n079 at Tue Nov  2 09:25:45 2021
Module time:
	user time   =      12.45 seconds =       0.21 minutes
	system time =       0.25 seconds =       0.00 minutes
	total time  =         13 seconds =       0.22 minutes
Total time:
	user time   =      12.45 seconds =       0.21 minutes
	system time =       0.25 seconds =       0.00 minutes
	total time  =         13 seconds =       0.22 minutes
Grab this energy -132.7611998987807
    Psi4 stopped on: Tuesday, 02 November 2021 09:25AM
    Psi4 wall time for execution: 0:00:12.74

*** Psi4 exiting successfully. Buy a developer a beer!
