
    -----------------------------------------------------------------------
          Psi4: An Open-Source Ab Initio Electronic Structure Package
                               Psi4 1.4a2.dev629 

                         Git: Rev {master} 2938fc2 dirty


    D. G. A. Smith, L. A. Burns, A. C. Simmonett, R. M. Parrish,
    M. C. Schieber, R. Galvelis, P. Kraus, H. Kruse, R. Di Remigio,
    A. Alenaizan, A. M. James, S. Lehtola, J. P. Misiewicz, M. Scheurer,
    R. A. Shaw, J. B. Schriber, Y. Xie, Z. L. Glick, D. A. Sirianni,
    J. S. O'Brien, J. M. Waldrop, A. Kumar, E. G. Hohenstein,
    B. P. Pritchard, B. R. Brooks, H. F. Schaefer III, A. Yu. Sokolov,
    K. Patkowski, A. E. DePrince III, U. Bozkaya, R. A. King,
    F. A. Evangelista, J. M. Turney, T. D. Crawford, C. D. Sherrill,
    J. Chem. Phys. 152(18) 184108 (2020). https://doi.org/10.1063/5.0006002

                            Additional Code Authors
    E. T. Seidl, C. L. Janssen, E. F. Valeev, M. L. Leininger,
    J. F. Gonthier, R. M. Richard, H. R. McAlexander, M. Saitow, X. Wang,
    P. Verma, and M. H. Lechner

             Previous Authors, Complete List of Code Contributors,
                       and Citations for Specific Modules
    https://github.com/psi4/psi4/blob/master/codemeta.json
    https://github.com/psi4/psi4/graphs/contributors
    http://psicode.org/psi4manual/master/introduction.html#citing-psifour

    -----------------------------------------------------------------------


    Psi4 started on: Tuesday, 02 November 2021 09:22AM

    Process ID: 23555
    Host:       n082
    PSIDATADIR: /opt/psi/4/master/share/psi4
    Memory:     500.0 MiB
    Threads:    1
    
  ==> Input File <==

--------------------------------------------------------------------------
import os
memory 14 GB 
 
molecule {
 N    2.5163748328   -0.0020182380   -0.0011600858
 X    0.3166073300    1.0000000000   -0.0000000000
 C    0.3135366016    0.0051641615    0.0029765880
 X    0.3166073300    0.0000000000    1.0000000000
 C   -2.4586300333    0.0005564237    0.0003209865
 H   -3.1515648465    0.9688862823   -1.6745771181
 H   -3.1539271619   -1.9386909129    0.0008948463
 H   -3.1491919627    0.9661022834    1.6715447832
units bohr
}

basis {

assign 6-31g_2dfp_

[ 6-31g_2dfp_ ]
spherical

!----------------------------------------------------------------------
! Basis Set Exchange
! Version v0.8.13
! https://www.basissetexchange.org
!----------------------------------------------------------------------
!   Basis set: 6-31G(2df,p)
! Description: 6-31G(2df,p)
!        Role: orbital
!     Version: 0  (Data from the original Basis Set Exchange)
!----------------------------------------------------------------------


****
H     0
S    3   1.00
     18.7311370              0.03349460
      2.8253937              0.23472695
      0.6401217              0.81375733
S    1   1.00
      0.1612778              1.00000000
P    1   1.00
      1.5000000              1.0000000
P    1   1.00
      0.3750000              1.0000000
****
C     0
S    6   1.00
   3047.5249000              0.0018347
    457.3695100              0.0140373
    103.9486900              0.0688426
     29.2101550              0.2321844
      9.2866630              0.4679413
      3.1639270              0.3623120
SP   3   1.00
      7.8682724             -0.1193324              0.0689991
      1.8812885             -0.1608542              0.3164240
      0.5442493              1.1434564              0.7443083
SP   1   1.00
      0.1687144              1.0000000              1.0000000
D    1   1.00
      1.2520000              1.0000000
D    1   1.00
      0.3130000              1.0000000
F    1   1.00
      0.8000000              1.0000000
****
N     0
S    6   1.00
   4173.5110000              0.0018348
    627.4579000              0.0139950
    142.9021000              0.0685870
     40.2343300              0.2322410
     12.8202100              0.4690700
      4.3904370              0.3604550
SP   3   1.00
     11.6263580             -0.1149610              0.0675800
      2.7162800             -0.1691180              0.3239070
      0.7722180              1.1458520              0.7408950
SP   1   1.00
      0.2120313              1.0000000              1.0000000
D    1   1.00
      1.8260000              1.0000000
D    1   1.00
      0.4565000              1.0000000
F    1   1.00
      1.0000000              1.0000000
****
}


set {
opt_type min                            
reference rhf                          
freeze_core true
e_convergence 10                       
d_convergence 10                      
ensure_bt_convergence true           
dft_spherical_points 590
dft_radial_points 99
}

e = energy('b3lyp')

print_out('Grab this energy {0}'.format(e))
--------------------------------------------------------------------------

  Memory set to  13.039 GiB by Python driver.

Scratch directory: /tmp/

*** tstart() called on n082
*** at Tue Nov  2 09:22:02 2021

   => Loading Basis Set <=

    Name: ANONYMOUSB51436A4
    Role: ORBITAL
    Keyword: BASIS
    atoms 1   entry N          line    48 inputblock 6-31g_2dfp_ 
    atoms 2-3 entry C          line    27 inputblock 6-31g_2dfp_ 
    atoms 4-6 entry H          line    15 inputblock 6-31g_2dfp_ 


         ---------------------------------------------------------
                                   SCF
               by Justin Turney, Rob Parrish, Andy Simmonett
                          and Daniel G. A. Smith
                              RKS Reference
                        1 Threads,  13351 MiB Core
         ---------------------------------------------------------

  ==> Geometry <==

    Molecular point group: c1
    Full point group: C1

    Geometry (in Bohr), charge = 0, multiplicity = 1:

       Center              X                  Y                   Z               Mass       
    ------------   -----------------  -----------------  -----------------  -----------------
         N            2.517174445549    -0.002911663573    -0.001676139737    14.003074004430
         C            0.314336214349     0.004270735927     0.002460534063    12.000000000000
         C           -2.457830420551    -0.000337001873    -0.000195067437    12.000000000000
         H           -3.150765233751     0.967992856727    -1.675093172037     1.007825032230
         H           -3.153127549151    -1.939584338473     0.000378792363     1.007825032230
         H           -3.148392349951     0.965208857827     1.671028729263     1.007825032230

  Running in c1 symmetry.

  Rotational constants: A =      5.31931  B =      0.30395  C =      0.30389 [cm^-1]
  Rotational constants: A = 159468.87189  B =   9112.21185  C =   9110.48070 [MHz]
  Nuclear repulsion =   58.190942323714687

  Charge       = 0
  Multiplicity = 1
  Electrons    = 22
  Nalpha       = 11
  Nbeta        = 11

  ==> Algorithm <==

  SCF Algorithm Type is DF.
  DIIS enabled.
  MOM disabled.
  Fractional occupation disabled.
  Guess Type is SAD.
  Energy threshold   = 1.00e-10
  Density threshold  = 1.00e-10
  Integral threshold = 0.00e+00

  ==> Primary Basis <==

  Basis Set: ANONYMOUSB51436A4
    Blend: 6-31G_2DFP_
    Number of shells: 36
    Number of basis function: 102
    Number of Cartesian functions: 117
    Spherical Harmonics?: true
    Max angular momentum: 3

  ==> DFT Potential <==

   => Composite Functional: B3LYP <= 

    B3LYP Hyb-GGA Exchange-Correlation Functional

    P. J. Stephens, F. J. Devlin, C. F. Chabalowski, and M. J. Frisch, J. Phys. Chem. 98, 11623 (1994)

    Deriv               =              1
    GGA                 =           TRUE
    Meta                =          FALSE

    Exchange Hybrid     =           TRUE
    MP2 Hybrid          =          FALSE

   => Exchange Functionals <=

    0.0800   Slater exchange
    0.7200         Becke 88

   => Exact (HF) Exchange <=

    0.2000               HF 

   => Correlation Functionals <=

    0.1900   Vosko, Wilk & Nusair (VWN5_RPA)
    0.8100   Lee, Yang & Parr

   => Molecular Quadrature <=

    Radial Scheme          =       TREUTLER
    Pruning Scheme         =           NONE
    Nuclear Scheme         =       TREUTLER

    BS radius alpha        =              1
    Pruning alpha          =              1
    Radial Points          =             99
    Spherical Points       =            590
    Total Points           =         330769
    Total Blocks           =           2434
    Max Points             =            256
    Max Functions          =            102
    Weights Tolerance      =       1.00E-15

   => Loading Basis Set <=

    Name: (ANONYMOUSB51436A4 AUX)
    Role: JKFIT
    Keyword: DF_BASIS_SCF
    atoms 1   entry N          line   258 file /opt/psi/4/master/share/psi4/basis/def2-universal-jkfit.gbs 
    atoms 2-3 entry C          line   198 file /opt/psi/4/master/share/psi4/basis/def2-universal-jkfit.gbs 
    atoms 4-6 entry H          line    18 file /opt/psi/4/master/share/psi4/basis/def2-universal-jkfit.gbs 

  ==> Integral Setup <==

  DFHelper Memory: AOs need 0.024 GiB; user supplied 8.929 GiB. Using in-core AOs.

  ==> MemDFJK: Density-Fitted J/K Matrices <==

    J tasked:                   Yes
    K tasked:                   Yes
    wK tasked:                   No
    OpenMP threads:               1
    Memory [MiB]:              9143
    Algorithm:                 Core
    Schwarz Cutoff:           1E-12
    Mask sparsity (%):       0.3268
    Fitting Condition:        1E-10

   => Auxiliary Basis Set <=

  Basis Set: (ANONYMOUSB51436A4 AUX)
    Blend: DEF2-UNIVERSAL-JKFIT
    Number of shells: 93
    Number of basis function: 281
    Number of Cartesian functions: 331
    Spherical Harmonics?: true
    Max angular momentum: 4

  Cached 100.0% of DFT collocation blocks in 0.850 [GiB].

  Minimum eigenvalue in the overlap matrix is 1.4469112917E-03.
  Reciprocal condition number of the overlap matrix is 2.7102344310E-04.
    Using symmetric orthogonalization.

  ==> Pre-Iterations <==

  SCF Guess: Superposition of Atomic Densities via on-the-fly atomic UHF (no occupation information).

   -------------------------
    Irrep   Nso     Nmo    
   -------------------------
     A        102     102 
   -------------------------
    Total     102     102
   -------------------------

  ==> Iterations <==

                           Total Energy        Delta E     RMS |[F,P]|

   @DF-RKS iter SAD:  -132.11053881630008   -1.32111e+02   0.00000e+00 
   @DF-RKS iter   1:  -132.55348796885659   -4.42949e-01   6.36136e-03 DIIS
   @DF-RKS iter   2:  -132.34064470801937    2.12843e-01   8.93504e-03 DIIS
   @DF-RKS iter   3:  -132.70016491815716   -3.59520e-01   3.52434e-03 DIIS
   @DF-RKS iter   4:  -132.76080635675476   -6.06414e-02   2.29127e-04 DIIS
   @DF-RKS iter   5:  -132.76102024837766   -2.13892e-04   1.17654e-04 DIIS
   @DF-RKS iter   6:  -132.76108939774934   -6.91494e-05   1.84792e-05 DIIS
   @DF-RKS iter   7:  -132.76109119315313   -1.79540e-06   3.46483e-06 DIIS
   @DF-RKS iter   8:  -132.76109124731769   -5.41646e-08   5.25841e-07 DIIS
   @DF-RKS iter   9:  -132.76109124850205   -1.18436e-09   9.28426e-08 DIIS
   @DF-RKS iter  10:  -132.76109124853920   -3.71472e-11   1.21018e-08 DIIS
   @DF-RKS iter  11:  -132.76109124853997   -7.67386e-13   8.89431e-10 DIIS
   @DF-RKS iter  12:  -132.76109124853988    8.52651e-14   1.24740e-10 DIIS
   @DF-RKS iter  13:  -132.76109124853963    2.55795e-13   7.75585e-12 DIIS
  Energy and wave function converged.


  ==> Post-Iterations <==

    Orbital Energies [Eh]
    ---------------------

    Doubly Occupied:                                                      

       1A    -14.333736     2A    -10.235224     3A    -10.225287  
       4A     -0.897654     5A     -0.776792     6A     -0.514688  
       7A     -0.466044     8A     -0.465496     9A     -0.357787  
      10A     -0.324870    11A     -0.324853  

    Virtual:                                                              

      12A      0.034327    13A      0.034782    14A      0.068931  
      15A      0.146986    16A      0.147247    17A      0.173746  
      18A      0.275041    19A      0.408652    20A      0.409449  
      21A      0.469393    22A      0.487846    23A      0.488396  
      24A      0.558312    25A      0.559636    26A      0.578783  
      27A      0.644029    28A      0.644968    29A      0.645846  
      30A      0.676475    31A      0.677563    32A      0.706051  
      33A      0.759172    34A      0.759190    35A      0.823975  
      36A      0.981449    37A      0.991853    38A      0.993035  
      39A      1.124174    40A      1.142107    41A      1.143092  
      42A      1.280281    43A      1.319085    44A      1.319196  
      45A      1.328482    46A      1.358364    47A      1.359634  
      48A      1.452278    49A      1.452560    50A      1.544119  
      51A      1.713403    52A      1.768616    53A      1.768845  
      54A      1.857411    55A      1.858908    56A      2.052126  
      57A      2.626924    58A      2.749330    59A      2.777304  
      60A      2.778545    61A      2.779286    62A      2.846107  
      63A      2.851296    64A      2.906052    65A      2.926914  
      66A      3.029681    67A      3.030658    68A      3.105070  
      69A      3.107184    70A      3.261128    71A      3.263300  
      72A      3.337016    73A      3.337457    74A      3.408914  
      75A      3.522505    76A      3.526678    77A      3.581826  
      78A      3.673895    79A      3.675753    80A      3.915074  
      81A      3.919639    82A      3.959125    83A      4.102143  
      84A      4.102200    85A      4.215191    86A      4.218470  
      87A      4.226591    88A      4.357996    89A      4.396105  
      90A      4.557959    91A      4.562281    92A      4.787037  
      93A      4.787628    94A      4.838592    95A      4.839140  
      96A      4.951414    97A      5.192840    98A      5.199184  
      99A      5.262957   100A      5.553784   101A      5.554915  
     102A      5.983533  

    Final Occupation by Irrep:
              A 
    DOCC [    11 ]

  @DF-RKS Final Energy:  -132.76109124853963

   => Energetics <=

    Nuclear Repulsion Energy =             58.1909423237146868
    One-Electron Energy =                -293.1110927697325224
    Two-Electron Energy =                 117.3772546204910441
    DFT Exchange-Correlation Energy =     -15.2181954230128511
    Empirical Dispersion Energy =           0.0000000000000000
    VV10 Nonlocal Energy =                  0.0000000000000000
    Total Energy =                       -132.7610912485396284

Computation Completed


Properties will be evaluated at   0.000000,   0.000000,   0.000000 [a0]

Properties computed using the SCF density matrix

  Nuclear Dipole Moment: [e a0]
     X:    -4.6930      Y:    -0.0032      Z:    -0.0018

  Electronic Dipole Moment: [e a0]
     X:     3.1851      Y:     0.0045      Z:     0.0026

  Dipole Moment: [e a0]
     X:    -1.5080      Y:     0.0014      Z:     0.0008     Total:     1.5080

  Dipole Moment: [D]
     X:    -3.8329      Y:     0.0035      Z:     0.0020     Total:     3.8329


*** tstop() called on n082 at Tue Nov  2 09:22:15 2021
Module time:
	user time   =      13.16 seconds =       0.22 minutes
	system time =       0.26 seconds =       0.00 minutes
	total time  =         13 seconds =       0.22 minutes
Total time:
	user time   =      13.16 seconds =       0.22 minutes
	system time =       0.26 seconds =       0.00 minutes
	total time  =         13 seconds =       0.22 minutes
Grab this energy -132.76109124853963
    Psi4 stopped on: Tuesday, 02 November 2021 09:22AM
    Psi4 wall time for execution: 0:00:13.44

*** Psi4 exiting successfully. Buy a developer a beer!
