
    -----------------------------------------------------------------------
          Psi4: An Open-Source Ab Initio Electronic Structure Package
                               Psi4 1.4a2.dev629 

                         Git: Rev {master} 2938fc2 dirty


    D. G. A. Smith, L. A. Burns, A. C. Simmonett, R. M. Parrish,
    M. C. Schieber, R. Galvelis, P. Kraus, H. Kruse, R. Di Remigio,
    A. Alenaizan, A. M. James, S. Lehtola, J. P. Misiewicz, M. Scheurer,
    R. A. Shaw, J. B. Schriber, Y. Xie, Z. L. Glick, D. A. Sirianni,
    J. S. O'Brien, J. M. Waldrop, A. Kumar, E. G. Hohenstein,
    B. P. Pritchard, B. R. Brooks, H. F. Schaefer III, A. Yu. Sokolov,
    K. Patkowski, A. E. DePrince III, U. Bozkaya, R. A. King,
    F. A. Evangelista, J. M. Turney, T. D. Crawford, C. D. Sherrill,
    J. Chem. Phys. 152(18) 184108 (2020). https://doi.org/10.1063/5.0006002

                            Additional Code Authors
    E. T. Seidl, C. L. Janssen, E. F. Valeev, M. L. Leininger,
    J. F. Gonthier, R. M. Richard, H. R. McAlexander, M. Saitow, X. Wang,
    P. Verma, and M. H. Lechner

             Previous Authors, Complete List of Code Contributors,
                       and Citations for Specific Modules
    https://github.com/psi4/psi4/blob/master/codemeta.json
    https://github.com/psi4/psi4/graphs/contributors
    http://psicode.org/psi4manual/master/introduction.html#citing-psifour

    -----------------------------------------------------------------------


    Psi4 started on: Tuesday, 02 November 2021 09:22AM

    Process ID: 25924
    Host:       n084
    PSIDATADIR: /opt/psi/4/master/share/psi4
    Memory:     500.0 MiB
    Threads:    1
    
  ==> Input File <==

--------------------------------------------------------------------------
import os
memory 14 GB 
 
molecule {
 N    2.5163641707    0.0075318625    0.0043512012
 X    0.3166073300    1.0000000000   -0.0000000000
 C    0.3135378059   -0.0019934237   -0.0011484979
 X    0.3166073300   -0.0000000000    1.0000000000
 C   -2.4586339150   -0.0022470730   -0.0012896259
 H   -3.1515654991    0.9639344776   -1.6774292569
 H   -3.1633271394   -1.9334404638   -0.0019541335
 H   -3.1397779930    0.9662146204    1.6774703131
units bohr
}

basis {

assign 6-31g_2dfp_

[ 6-31g_2dfp_ ]
spherical

!----------------------------------------------------------------------
! Basis Set Exchange
! Version v0.8.13
! https://www.basissetexchange.org
!----------------------------------------------------------------------
!   Basis set: 6-31G(2df,p)
! Description: 6-31G(2df,p)
!        Role: orbital
!     Version: 0  (Data from the original Basis Set Exchange)
!----------------------------------------------------------------------


****
H     0
S    3   1.00
     18.7311370              0.03349460
      2.8253937              0.23472695
      0.6401217              0.81375733
S    1   1.00
      0.1612778              1.00000000
P    1   1.00
      1.5000000              1.0000000
P    1   1.00
      0.3750000              1.0000000
****
C     0
S    6   1.00
   3047.5249000              0.0018347
    457.3695100              0.0140373
    103.9486900              0.0688426
     29.2101550              0.2321844
      9.2866630              0.4679413
      3.1639270              0.3623120
SP   3   1.00
      7.8682724             -0.1193324              0.0689991
      1.8812885             -0.1608542              0.3164240
      0.5442493              1.1434564              0.7443083
SP   1   1.00
      0.1687144              1.0000000              1.0000000
D    1   1.00
      1.2520000              1.0000000
D    1   1.00
      0.3130000              1.0000000
F    1   1.00
      0.8000000              1.0000000
****
N     0
S    6   1.00
   4173.5110000              0.0018348
    627.4579000              0.0139950
    142.9021000              0.0685870
     40.2343300              0.2322410
     12.8202100              0.4690700
      4.3904370              0.3604550
SP   3   1.00
     11.6263580             -0.1149610              0.0675800
      2.7162800             -0.1691180              0.3239070
      0.7722180              1.1458520              0.7408950
SP   1   1.00
      0.2120313              1.0000000              1.0000000
D    1   1.00
      1.8260000              1.0000000
D    1   1.00
      0.4565000              1.0000000
F    1   1.00
      1.0000000              1.0000000
****
}


set {
opt_type min                            
reference rhf                          
freeze_core true
e_convergence 10                       
d_convergence 10                      
ensure_bt_convergence true           
dft_spherical_points 590
dft_radial_points 99
}

e = energy('b3lyp')

print_out('Grab this energy {0}'.format(e))
--------------------------------------------------------------------------

  Memory set to  13.039 GiB by Python driver.

Scratch directory: /tmp/

*** tstart() called on n084
*** at Tue Nov  2 09:22:32 2021

   => Loading Basis Set <=

    Name: ANONYMOUS8B141CB8
    Role: ORBITAL
    Keyword: BASIS
    atoms 1   entry N          line    48 inputblock 6-31g_2dfp_ 
    atoms 2-3 entry C          line    27 inputblock 6-31g_2dfp_ 
    atoms 4-6 entry H          line    15 inputblock 6-31g_2dfp_ 


         ---------------------------------------------------------
                                   SCF
               by Justin Turney, Rob Parrish, Andy Simmonett
                          and Daniel G. A. Smith
                              RKS Reference
                        1 Threads,  13351 MiB Core
         ---------------------------------------------------------

  ==> Geometry <==

    Molecular point group: c1
    Full point group: C1

    Geometry (in Bohr), charge = 0, multiplicity = 1:

       Center              X                  Y                   Z               Mass       
    ------------   -----------------  -----------------  -----------------  -----------------
         N            2.517167878041     0.006282277832     0.003626191169    14.003074004430
         C            0.314341513241    -0.003243008368    -0.001873507931    12.000000000000
         C           -2.457830207659    -0.003496657668    -0.002014635931    12.000000000000
         H           -3.150761791759     0.962684892932    -1.678154266931     1.007825032230
         H           -3.162523432059    -1.934690048468    -0.002679143531     1.007825032230
         H           -3.138974285659     0.964965035732     1.676745303069     1.007825032230

  Running in c1 symmetry.

  Rotational constants: A =      5.31958  B =      0.30395  C =      0.30390 [cm^-1]
  Rotational constants: A = 159477.03317  B =   9112.04488  C =   9110.61675 [MHz]
  Nuclear repulsion =   58.190938886358332

  Charge       = 0
  Multiplicity = 1
  Electrons    = 22
  Nalpha       = 11
  Nbeta        = 11

  ==> Algorithm <==

  SCF Algorithm Type is DF.
  DIIS enabled.
  MOM disabled.
  Fractional occupation disabled.
  Guess Type is SAD.
  Energy threshold   = 1.00e-10
  Density threshold  = 1.00e-10
  Integral threshold = 0.00e+00

  ==> Primary Basis <==

  Basis Set: ANONYMOUS8B141CB8
    Blend: 6-31G_2DFP_
    Number of shells: 36
    Number of basis function: 102
    Number of Cartesian functions: 117
    Spherical Harmonics?: true
    Max angular momentum: 3

  ==> DFT Potential <==

   => Composite Functional: B3LYP <= 

    B3LYP Hyb-GGA Exchange-Correlation Functional

    P. J. Stephens, F. J. Devlin, C. F. Chabalowski, and M. J. Frisch, J. Phys. Chem. 98, 11623 (1994)

    Deriv               =              1
    GGA                 =           TRUE
    Meta                =          FALSE

    Exchange Hybrid     =           TRUE
    MP2 Hybrid          =          FALSE

   => Exchange Functionals <=

    0.0800   Slater exchange
    0.7200         Becke 88

   => Exact (HF) Exchange <=

    0.2000               HF 

   => Correlation Functionals <=

    0.1900   Vosko, Wilk & Nusair (VWN5_RPA)
    0.8100   Lee, Yang & Parr

   => Molecular Quadrature <=

    Radial Scheme          =       TREUTLER
    Pruning Scheme         =           NONE
    Nuclear Scheme         =       TREUTLER

    BS radius alpha        =              1
    Pruning alpha          =              1
    Radial Points          =             99
    Spherical Points       =            590
    Total Points           =         330791
    Total Blocks           =           2440
    Max Points             =            256
    Max Functions          =            102
    Weights Tolerance      =       1.00E-15

   => Loading Basis Set <=

    Name: (ANONYMOUS8B141CB8 AUX)
    Role: JKFIT
    Keyword: DF_BASIS_SCF
    atoms 1   entry N          line   258 file /opt/psi/4/master/share/psi4/basis/def2-universal-jkfit.gbs 
    atoms 2-3 entry C          line   198 file /opt/psi/4/master/share/psi4/basis/def2-universal-jkfit.gbs 
    atoms 4-6 entry H          line    18 file /opt/psi/4/master/share/psi4/basis/def2-universal-jkfit.gbs 

  ==> Integral Setup <==

  DFHelper Memory: AOs need 0.024 GiB; user supplied 8.929 GiB. Using in-core AOs.

  ==> MemDFJK: Density-Fitted J/K Matrices <==

    J tasked:                   Yes
    K tasked:                   Yes
    wK tasked:                   No
    OpenMP threads:               1
    Memory [MiB]:              9143
    Algorithm:                 Core
    Schwarz Cutoff:           1E-12
    Mask sparsity (%):       0.3268
    Fitting Condition:        1E-10

   => Auxiliary Basis Set <=

  Basis Set: (ANONYMOUS8B141CB8 AUX)
    Blend: DEF2-UNIVERSAL-JKFIT
    Number of shells: 93
    Number of basis function: 281
    Number of Cartesian functions: 331
    Spherical Harmonics?: true
    Max angular momentum: 4

  Cached 100.0% of DFT collocation blocks in 0.850 [GiB].

  Minimum eigenvalue in the overlap matrix is 1.4468609426E-03.
  Reciprocal condition number of the overlap matrix is 2.7101389541E-04.
    Using symmetric orthogonalization.

  ==> Pre-Iterations <==

  SCF Guess: Superposition of Atomic Densities via on-the-fly atomic UHF (no occupation information).

   -------------------------
    Irrep   Nso     Nmo    
   -------------------------
     A        102     102 
   -------------------------
    Total     102     102
   -------------------------

  ==> Iterations <==

                           Total Energy        Delta E     RMS |[F,P]|

   @DF-RKS iter SAD:  -132.11054826602711   -1.32111e+02   0.00000e+00 
   @DF-RKS iter   1:  -132.55349563347687   -4.42947e-01   6.36132e-03 DIIS
   @DF-RKS iter   2:  -132.34065143400440    2.12844e-01   8.93502e-03 DIIS
   @DF-RKS iter   3:  -132.70017077546672   -3.59519e-01   3.52430e-03 DIIS
   @DF-RKS iter   4:  -132.76081059282853   -6.06398e-02   2.29121e-04 DIIS
   @DF-RKS iter   5:  -132.76102446943585   -2.13877e-04   1.17652e-04 DIIS
   @DF-RKS iter   6:  -132.76109361625868   -6.91468e-05   1.84790e-05 DIIS
   @DF-RKS iter   7:  -132.76109541163734   -1.79538e-06   3.46490e-06 DIIS
   @DF-RKS iter   8:  -132.76109546580460   -5.41673e-08   5.25960e-07 DIIS
   @DF-RKS iter   9:  -132.76109546698964   -1.18504e-09   9.29134e-08 DIIS
   @DF-RKS iter  10:  -132.76109546702685   -3.72040e-11   1.23769e-08 DIIS
   @DF-RKS iter  11:  -132.76109546702742   -5.68434e-13   1.26422e-09 DIIS
   @DF-RKS iter  12:  -132.76109546702750   -8.52651e-14   1.07866e-10 DIIS
   @DF-RKS iter  13:  -132.76109546702747    2.84217e-14   7.80159e-12 DIIS
  Energy and wave function converged.


  ==> Post-Iterations <==

    Orbital Energies [Eh]
    ---------------------

    Doubly Occupied:                                                      

       1A    -14.333735     2A    -10.235226     3A    -10.225288  
       4A     -0.897653     5A     -0.776792     6A     -0.514696  
       7A     -0.466233     8A     -0.465301     9A     -0.357786  
      10A     -0.324861    11A     -0.324859  

    Virtual:                                                              

      12A      0.034351    13A      0.034781    14A      0.068914  
      15A      0.147025    16A      0.147201    17A      0.173744  
      18A      0.275045    19A      0.408766    20A      0.409335  
      21A      0.469394    22A      0.488119    23A      0.488138  
      24A      0.558698    25A      0.559281    26A      0.578725  
      27A      0.644201    28A      0.644619    29A      0.646022  
      30A      0.676884    31A      0.677164    32A      0.706046  
      33A      0.759080    34A      0.759295    35A      0.823973  
      36A      0.981373    37A      0.991922    38A      0.993028  
      39A      1.123882    40A      1.142087    41A      1.143436  
      42A      1.280244    43A      1.318751    44A      1.319422  
      45A      1.328590    46A      1.358348    47A      1.359710  
      48A      1.451434    49A      1.453384    50A      1.544124  
      51A      1.713414    52A      1.768653    53A      1.768930  
      54A      1.857801    55A      1.858382    56A      2.052127  
      57A      2.626933    58A      2.749322    59A      2.777472  
      60A      2.778155    61A      2.779517    62A      2.847650  
      63A      2.849787    64A      2.906049    65A      2.926860  
      66A      3.029734    67A      3.030589    68A      3.105860  
      69A      3.106371    70A      3.261676    71A      3.262758  
      72A      3.335840    73A      3.338583    74A      3.408893  
      75A      3.524264    76A      3.524860    77A      3.581950  
      78A      3.673894    79A      3.675755    80A      3.915564  
      81A      3.919230    82A      3.959033    83A      4.101584  
      84A      4.102845    85A      4.216706    86A      4.217638  
      87A      4.225833    88A      4.357989    89A      4.396091  
      90A      4.558919    91A      4.561394    92A      4.786651  
      93A      4.787999    94A      4.838847    95A      4.838872  
      96A      4.951464    97A      5.195101    98A      5.196731  
      99A      5.263019   100A      5.554307   101A      5.554411  
     102A      5.983534  

    Final Occupation by Irrep:
              A 
    DOCC [    11 ]

  @DF-RKS Final Energy:  -132.76109546702747

   => Energetics <=

    Nuclear Repulsion Energy =             58.1909388863583317
    One-Electron Energy =                -293.1110992221871356
    Two-Electron Energy =                 117.3772565429382411
    DFT Exchange-Correlation Energy =     -15.2181916741369108
    Empirical Dispersion Energy =           0.0000000000000000
    VV10 Nonlocal Energy =                  0.0000000000000000
    Total Energy =                       -132.7610954670274737

Computation Completed


Properties will be evaluated at   0.000000,   0.000000,   0.000000 [a0]

Properties computed using the SCF density matrix

  Nuclear Dipole Moment: [e a0]
     X:    -4.6930      Y:    -0.0035      Z:    -0.0020

  Electronic Dipole Moment: [e a0]
     X:     3.1850      Y:     0.0003      Z:     0.0002

  Dipole Moment: [e a0]
     X:    -1.5080      Y:    -0.0032      Z:    -0.0019     Total:     1.5080

  Dipole Moment: [D]
     X:    -3.8329      Y:    -0.0082      Z:    -0.0047     Total:     3.8329


*** tstop() called on n084 at Tue Nov  2 09:22:46 2021
Module time:
	user time   =      13.17 seconds =       0.22 minutes
	system time =       0.27 seconds =       0.00 minutes
	total time  =         14 seconds =       0.23 minutes
Total time:
	user time   =      13.17 seconds =       0.22 minutes
	system time =       0.27 seconds =       0.00 minutes
	total time  =         14 seconds =       0.23 minutes
Grab this energy -132.76109546702747
    Psi4 stopped on: Tuesday, 02 November 2021 09:22AM
    Psi4 wall time for execution: 0:00:13.47

*** Psi4 exiting successfully. Buy a developer a beer!
