
    -----------------------------------------------------------------------
          Psi4: An Open-Source Ab Initio Electronic Structure Package
                               Psi4 1.4a2.dev629 

                         Git: Rev {master} 2938fc2 dirty


    D. G. A. Smith, L. A. Burns, A. C. Simmonett, R. M. Parrish,
    M. C. Schieber, R. Galvelis, P. Kraus, H. Kruse, R. Di Remigio,
    A. Alenaizan, A. M. James, S. Lehtola, J. P. Misiewicz, M. Scheurer,
    R. A. Shaw, J. B. Schriber, Y. Xie, Z. L. Glick, D. A. Sirianni,
    J. S. O'Brien, J. M. Waldrop, A. Kumar, E. G. Hohenstein,
    B. P. Pritchard, B. R. Brooks, H. F. Schaefer III, A. Yu. Sokolov,
    K. Patkowski, A. E. DePrince III, U. Bozkaya, R. A. King,
    F. A. Evangelista, J. M. Turney, T. D. Crawford, C. D. Sherrill,
    J. Chem. Phys. 152(18) 184108 (2020). https://doi.org/10.1063/5.0006002

                            Additional Code Authors
    E. T. Seidl, C. L. Janssen, E. F. Valeev, M. L. Leininger,
    J. F. Gonthier, R. M. Richard, H. R. McAlexander, M. Saitow, X. Wang,
    P. Verma, and M. H. Lechner

             Previous Authors, Complete List of Code Contributors,
                       and Citations for Specific Modules
    https://github.com/psi4/psi4/blob/master/codemeta.json
    https://github.com/psi4/psi4/graphs/contributors
    http://psicode.org/psi4manual/master/introduction.html#citing-psifour

    -----------------------------------------------------------------------


    Psi4 started on: Tuesday, 02 November 2021 09:24AM

    Process ID: 22636
    Host:       n023
    PSIDATADIR: /opt/psi/4/master/share/psi4
    Memory:     500.0 MiB
    Threads:    1
    
  ==> Input File <==

--------------------------------------------------------------------------
import os
memory 14 GB 
 
molecule {
 N    2.5082278478   -0.0000000000    0.0000000000
 X    0.3166073300    1.0000000000    0.0000000000
 C    0.3157257621    0.0000000000   -0.0000000000
 X    0.3166073300    0.0000000000    1.0000000000
 C   -2.4509383355    0.0000000000   -0.0000000000
 H   -3.1521392815    0.9653154263   -1.6719753612
 H   -3.1521392815   -1.9306308525    0.0000000000
 H   -3.1521392815    0.9653154263    1.6719753612
units bohr
}

basis {

assign 6-31g_2dfp_

[ 6-31g_2dfp_ ]
spherical

!----------------------------------------------------------------------
! Basis Set Exchange
! Version v0.8.13
! https://www.basissetexchange.org
!----------------------------------------------------------------------
!   Basis set: 6-31G(2df,p)
! Description: 6-31G(2df,p)
!        Role: orbital
!     Version: 0  (Data from the original Basis Set Exchange)
!----------------------------------------------------------------------


****
H     0
S    3   1.00
     18.7311370              0.03349460
      2.8253937              0.23472695
      0.6401217              0.81375733
S    1   1.00
      0.1612778              1.00000000
P    1   1.00
      1.5000000              1.0000000
P    1   1.00
      0.3750000              1.0000000
****
C     0
S    6   1.00
   3047.5249000              0.0018347
    457.3695100              0.0140373
    103.9486900              0.0688426
     29.2101550              0.2321844
      9.2866630              0.4679413
      3.1639270              0.3623120
SP   3   1.00
      7.8682724             -0.1193324              0.0689991
      1.8812885             -0.1608542              0.3164240
      0.5442493              1.1434564              0.7443083
SP   1   1.00
      0.1687144              1.0000000              1.0000000
D    1   1.00
      1.2520000              1.0000000
D    1   1.00
      0.3130000              1.0000000
F    1   1.00
      0.8000000              1.0000000
****
N     0
S    6   1.00
   4173.5110000              0.0018348
    627.4579000              0.0139950
    142.9021000              0.0685870
     40.2343300              0.2322410
     12.8202100              0.4690700
      4.3904370              0.3604550
SP   3   1.00
     11.6263580             -0.1149610              0.0675800
      2.7162800             -0.1691180              0.3239070
      0.7722180              1.1458520              0.7408950
SP   1   1.00
      0.2120313              1.0000000              1.0000000
D    1   1.00
      1.8260000              1.0000000
D    1   1.00
      0.4565000              1.0000000
F    1   1.00
      1.0000000              1.0000000
****
}


set {
opt_type min                            
reference rhf                          
freeze_core true
e_convergence 10                       
d_convergence 10                      
ensure_bt_convergence true           
dft_spherical_points 590
dft_radial_points 99
}

e = energy('b3lyp')

print_out('Grab this energy {0}'.format(e))
--------------------------------------------------------------------------

  Memory set to  13.039 GiB by Python driver.

Scratch directory: /tmp/

*** tstart() called on n023
*** at Tue Nov  2 09:24:03 2021

   => Loading Basis Set <=

    Name: ANONYMOUSACC65D17
    Role: ORBITAL
    Keyword: BASIS
    atoms 1   entry N          line    48 inputblock 6-31g_2dfp_ 
    atoms 2-3 entry C          line    27 inputblock 6-31g_2dfp_ 
    atoms 4-6 entry H          line    15 inputblock 6-31g_2dfp_ 


         ---------------------------------------------------------
                                   SCF
               by Justin Turney, Rob Parrish, Andy Simmonett
                          and Daniel G. A. Smith
                              RKS Reference
                        1 Threads,  13351 MiB Core
         ---------------------------------------------------------

  ==> Geometry <==

    Molecular point group: cs
    Full point group: C3v

    Geometry (in Bohr), charge = 0, multiplicity = 1:

       Center              X                  Y                   Z               Mass       
    ------------   -----------------  -----------------  -----------------  -----------------
         N            0.000000000001    -2.508960673925     0.000000000000    14.003074004430
         C            0.000000000001    -0.316458588225     0.000000000000    12.000000000000
         C            0.000000000001     2.450205509375     0.000000000000    12.000000000000
         H            0.965315425202     3.151406455375     1.671975363018     1.007825032230
         H            0.965315425202     3.151406455375    -1.671975363018     1.007825032230
         H           -1.930630850450     3.151406455375     0.000000000000     1.007825032230

  Running in cs symmetry.

  Rotational constants: A =      5.34182  B =      0.30550  C =      0.30550 [cm^-1]
  Rotational constants: A = 160143.77225  B =   9158.63379  C =   9158.63379 [MHz]
  Nuclear repulsion =   58.344304816324517

  Charge       = 0
  Multiplicity = 1
  Electrons    = 22
  Nalpha       = 11
  Nbeta        = 11

  ==> Algorithm <==

  SCF Algorithm Type is DF.
  DIIS enabled.
  MOM disabled.
  Fractional occupation disabled.
  Guess Type is SAD.
  Energy threshold   = 1.00e-10
  Density threshold  = 1.00e-10
  Integral threshold = 0.00e+00

  ==> Primary Basis <==

  Basis Set: ANONYMOUSACC65D17
    Blend: 6-31G_2DFP_
    Number of shells: 36
    Number of basis function: 102
    Number of Cartesian functions: 117
    Spherical Harmonics?: true
    Max angular momentum: 3

  ==> DFT Potential <==

   => Composite Functional: B3LYP <= 

    B3LYP Hyb-GGA Exchange-Correlation Functional

    P. J. Stephens, F. J. Devlin, C. F. Chabalowski, and M. J. Frisch, J. Phys. Chem. 98, 11623 (1994)

    Deriv               =              1
    GGA                 =           TRUE
    Meta                =          FALSE

    Exchange Hybrid     =           TRUE
    MP2 Hybrid          =          FALSE

   => Exchange Functionals <=

    0.0800   Slater exchange
    0.7200         Becke 88

   => Exact (HF) Exchange <=

    0.2000               HF 

   => Correlation Functionals <=

    0.1900   Vosko, Wilk & Nusair (VWN5_RPA)
    0.8100   Lee, Yang & Parr

   => Molecular Quadrature <=

    Radial Scheme          =       TREUTLER
    Pruning Scheme         =           NONE
    Nuclear Scheme         =       TREUTLER

    BS radius alpha        =              1
    Pruning alpha          =              1
    Radial Points          =             99
    Spherical Points       =            590
    Total Points           =         330782
    Total Blocks           =           2454
    Max Points             =            256
    Max Functions          =            102
    Weights Tolerance      =       1.00E-15

   => Loading Basis Set <=

    Name: (ANONYMOUSACC65D17 AUX)
    Role: JKFIT
    Keyword: DF_BASIS_SCF
    atoms 1   entry N          line   258 file /opt/psi/4/master/share/psi4/basis/def2-universal-jkfit.gbs 
    atoms 2-3 entry C          line   198 file /opt/psi/4/master/share/psi4/basis/def2-universal-jkfit.gbs 
    atoms 4-6 entry H          line    18 file /opt/psi/4/master/share/psi4/basis/def2-universal-jkfit.gbs 

  ==> Integral Setup <==

  DFHelper Memory: AOs need 0.024 GiB; user supplied 8.927 GiB. Using in-core AOs.

  ==> MemDFJK: Density-Fitted J/K Matrices <==

    J tasked:                   Yes
    K tasked:                   Yes
    wK tasked:                   No
    OpenMP threads:               1
    Memory [MiB]:              9141
    Algorithm:                 Core
    Schwarz Cutoff:           1E-12
    Mask sparsity (%):       0.2884
    Fitting Condition:        1E-10

   => Auxiliary Basis Set <=

  Basis Set: (ANONYMOUSACC65D17 AUX)
    Blend: DEF2-UNIVERSAL-JKFIT
    Number of shells: 93
    Number of basis function: 281
    Number of Cartesian functions: 331
    Spherical Harmonics?: true
    Max angular momentum: 4

  Cached 100.0% of DFT collocation blocks in 0.852 [GiB].

  Minimum eigenvalue in the overlap matrix is 1.4317254301E-03.
  Reciprocal condition number of the overlap matrix is 2.8594201522E-04.
    Using symmetric orthogonalization.

  ==> Pre-Iterations <==

  SCF Guess: Superposition of Atomic Densities via on-the-fly atomic UHF (no occupation information).

   -------------------------
    Irrep   Nso     Nmo    
   -------------------------
     A'        65      65 
     A"        37      37 
   -------------------------
    Total     102     102
   -------------------------

  ==> Iterations <==

                           Total Energy        Delta E     RMS |[F,P]|

   @DF-RKS iter SAD:  -132.12119997920706   -1.32121e+02   0.00000e+00 
   @DF-RKS iter   1:  -132.55239356521838   -4.31194e-01   8.70534e-03 DIIS
   @DF-RKS iter   2:  -132.34796692326086    2.04427e-01   1.20901e-02 DIIS
   @DF-RKS iter   3:  -132.70213164909489   -3.54165e-01   4.74414e-03 DIIS
   @DF-RKS iter   4:  -132.76104518793807   -5.89135e-02   3.06257e-04 DIIS
   @DF-RKS iter   5:  -132.76125242613327   -2.07238e-04   1.56474e-04 DIIS
   @DF-RKS iter   6:  -132.76131763893903   -6.52128e-05   2.50495e-05 DIIS
   @DF-RKS iter   7:  -132.76131941732928   -1.77839e-06   4.68681e-06 DIIS
   @DF-RKS iter   8:  -132.76131947070681   -5.33775e-08   6.86261e-07 DIIS
   @DF-RKS iter   9:  -132.76131947178837   -1.08156e-09   1.19236e-07 DIIS
   @DF-RKS iter  10:  -132.76131947182151   -3.31397e-11   1.52550e-08 DIIS
   @DF-RKS iter  11:  -132.76131947182199   -4.83169e-13   2.53815e-10 DIIS
   @DF-RKS iter  12:  -132.76131947182216   -1.70530e-13   2.08720e-11 DIIS
  Energy and wave function converged.


  ==> Post-Iterations <==

    Orbital Energies [Eh]
    ---------------------

    Doubly Occupied:                                                      

       1Ap   -14.332483     2Ap   -10.234581     3Ap   -10.223893  
       4Ap    -0.899727     5Ap    -0.777163     6Ap    -0.515463  
       7Ap    -0.465578     1App   -0.465578     8Ap    -0.357570  
       9Ap    -0.325981     2App   -0.325981  

    Virtual:                                                              

       3App    0.035928    10Ap     0.035928    11Ap     0.069199  
      12Ap     0.148067     4App    0.148067    13Ap     0.176025  
      14Ap     0.274323    15Ap     0.409117     5App    0.409117  
      16Ap     0.469907     6App    0.488010    17Ap     0.488010  
      18Ap     0.558617     7App    0.558617    19Ap     0.579751  
      20Ap     0.643990     8App    0.643990    21Ap     0.646689  
       9App    0.676949    22Ap     0.676949    23Ap     0.707003  
      10App    0.759457    24Ap     0.759457    11App    0.825428  
      25Ap     0.989771    12App    0.993265    26Ap     0.993265  
      27Ap     1.126585    13App    1.142493    28Ap     1.142493  
      29Ap     1.281730    30Ap     1.321138    14App    1.321138  
      31Ap     1.330358    15App    1.362575    32Ap     1.362575  
      33Ap     1.452834    16App    1.452834    34Ap     1.543075  
      35Ap     1.713269    17App    1.770435    36Ap     1.770435  
      37Ap     1.861348    18App    1.861348    38Ap     2.058704  
      39Ap     2.638895    19App    2.748075    40Ap     2.776578  
      20App    2.777300    41Ap     2.777300    21App    2.850627  
      42Ap     2.850627    22App    2.907411    43Ap     2.930285  
      44Ap     3.028802    23App    3.028802    24App    3.105884  
      45Ap     3.105884    46Ap     3.265197    25App    3.265197  
      47Ap     3.335146    26App    3.335147    48Ap     3.419632  
      27App    3.526574    49Ap     3.526574    50Ap     3.580844  
      28App    3.675692    51Ap     3.677718    29App    3.914492  
      52Ap     3.914492    53Ap     3.964073    54Ap     4.108029  
      30App    4.108029    55Ap     4.223100    31App    4.223100  
      56Ap     4.235517    57Ap     4.357623    32App    4.389785  
      58Ap     4.567243    33App    4.567243    59Ap     4.792061  
      34App    4.792061    60Ap     4.842108    35App    4.842108  
      61Ap     4.946050    62Ap     5.202707    36App    5.202707  
      63Ap     5.255329    37App    5.567361    64Ap     5.567361  
      65Ap     6.000386  

    Final Occupation by Irrep:
             Ap   App 
    DOCC [     9,    2 ]

  @DF-RKS Final Energy:  -132.76131947182216

   => Energetics <=

    Nuclear Repulsion Energy =             58.3443048163245166
    One-Electron Energy =                -293.4109943674693568
    Two-Electron Energy =                 117.5295725723115510
    DFT Exchange-Correlation Energy =     -15.2242024929888657
    Empirical Dispersion Energy =           0.0000000000000000
    VV10 Nonlocal Energy =                  0.0000000000000000
    Total Energy =                       -132.7613194718221621

Computation Completed


Properties will be evaluated at   0.000000,   0.000000,   0.000000 [a0]

Properties computed using the SCF density matrix

  Nuclear Dipole Moment: [e a0]
     X:    -0.0000      Y:     4.6940      Z:     0.0000

  Electronic Dipole Moment: [e a0]
     X:     0.0000      Y:    -3.1886      Z:     0.0000

  Dipole Moment: [e a0]
     X:     0.0000      Y:     1.5054      Z:     0.0000     Total:     1.5054

  Dipole Moment: [D]
     X:     0.0000      Y:     3.8264      Z:     0.0000     Total:     3.8264


*** tstop() called on n023 at Tue Nov  2 09:24:20 2021
Module time:
	user time   =      17.06 seconds =       0.28 minutes
	system time =       0.21 seconds =       0.00 minutes
	total time  =         17 seconds =       0.28 minutes
Total time:
	user time   =      17.06 seconds =       0.28 minutes
	system time =       0.21 seconds =       0.00 minutes
	total time  =         17 seconds =       0.28 minutes
Grab this energy -132.76131947182216
    Psi4 stopped on: Tuesday, 02 November 2021 09:24AM
    Psi4 wall time for execution: 0:00:17.31

*** Psi4 exiting successfully. Buy a developer a beer!
