
 Primary working directories    : /tmp/999602.612.gen6.q
 Secondary working directories  : /tmp/999602.612.gen6.q
 Wavefunction directory         : /home/vulcan/jj04645/wfu/
 Main file repository           : /tmp/999602.612.gen6.q/

 ARCHNAME  : Linux/x86_64
 FC        : /opt/intel/compilers_and_libraries_2016.1.150/linux/bin/intel64/ifort
 FCVERSION : 16.0.1
 BLASLIB   : -mkl
 id        : ccgc

 Nodes     nprocs
 n092         1
 ga_uses_ma=false, calling ma_init with nominal heap.
 GA-space will be limited to   8.0 MW (determined by -G option)

 Using customized tuning parameters: mindgm=10; mindgv=16; mindgc=4; mindgr=1; noblas=0; mincuda=1000; minvec=7
 default implementation of scratch files=df  

 ***,Optimization of 1,3-difluorobenzene
 memory,1000,m
 gthresh,energy=1.0d-12,orbital=1.0d-10,oneint=1.0d-16,twoint=1.0d-16,optgrad=1.0d-6,compress=1.0d-13
 geomtyp=xyz
 
 bohr
 geometry = {
  F    0.0002614216    4.4362998799   -1.7623897631
  C    0.0000340947    2.2445619207   -0.4832068102
  C   -0.0003443845   -2.2954715037    2.1431260076
  C   -0.0037909937   -0.0000013366   -1.8486170534
  C    0.0036056283    2.2954643714    2.1431233428
  C   -0.0032180639    0.0000013618    3.4459084487
  C    0.0026044432   -2.2445574542   -0.4832046936
  H   -0.0114311796   -0.0000066736   -3.8899987491
  H    0.0115070092    4.0890223475    3.1201272366
  H   -0.0108291358    0.0000090973    5.4909121745
  F    0.0119636052   -4.4362764171   -1.7623859763
  H   -0.0003624446   -4.0890455933    3.1201322712
 }
 
 basis=VDZ
 {rhf;maxit,200}
 {ccsd(t);maxit,200}

 Variables initialized (661), CPU time= 0.00 sec
 Commands  initialized (458), CPU time= 0.01 sec, 486 directives.
 Default parameters read. Elapsed time= 0.04 sec

 Checking input...
 Passed
1


                                         ***  PROGRAM SYSTEM MOLPRO  ***
                         Copyright, University College Cardiff Consultants Limited, 2008

                                    Version 2010.1 linked May 16 2016 07:17:05


 **********************************************************************************************************************************
 LABEL *   Optimization of 1,3-difluorobenzene                                           
 Linux-4.4.3/n092(x86_64) 64 bit mpp version                                             DATE: 07-Feb-24          TIME: 17:07:51  
 **********************************************************************************************************************************

 SHA1:             9e8077add272b0f3cad6f7df79ec5211205f459d
 **********************************************************************************************************************************

 THRESHOLDS:

 ZERO    =  1.00D-12  ONEINT  =  1.00D-16  TWOINT  =  1.00D-16  PREFAC  =  1.00D-14  LOCALI  =  1.00D-09  EORDER  =  1.00D-04
 ENERGY  =  1.00D-12  ETEST   =  0.00D+00  EDENS   =  0.00D+00  THRDEDEF=  1.00D-06  GRADIENT=  1.00D-02  STEP    =  1.00D-03
 ORBITAL =  1.00D-10  CIVEC   =  1.00D-05  COEFF   =  1.00D-04  PRINTCI =  5.00D-02  PUNCHCI =  9.90D+01  OPTGRAD =  1.00D-06
 OPTENERG=  1.00D-06  OPTSTEP =  3.00D-04  THRGRAD =  1.00D-10  COMPRESS=  1.00D-13  VARMIN  =  1.00D-07  VARMAX  =  1.00D-03
 THRDOUB =  0.00D+00  THRDIV  =  1.00D-05  THRRED  =  1.00D-07  THRPSP  =  1.00D+00  THRDC   =  1.00D-10  THRCS   =  1.00D-10
 THRNRM  =  1.00D-08  THREQ   =  0.00D+00  THRDE   =  1.00D+00  THRREF  =  1.00D-05  SPARFAC =  1.00D+00  THRDLP  =  1.00D-07
 THRDIA  =  1.00D-10  THRDLS  =  1.00D-07  THRGPS  =  0.00D+00  THRKEX  =  0.00D+00  THRDIS  =  2.00D-01  THRVAR  =  1.00D-10
 THRLOC  =  1.00D-06  THRGAP  =  1.00D-06  THRLOCT = -1.00D+00  THRGAPT = -1.00D+00  THRORB  =  1.00D-06  THRMLTP =  0.00D+00
 THRCPQCI=  1.00D-10  KEXTA   =  0.00D+00  THRCOARS=  0.00D+00  SYMTOL  =  1.00D-06  GRADTOL =  1.00D-06  THROVL  =  1.00D-08
 THRORTH =  1.00D-08  GRID    =  1.00D-06  GRIDMAX =  1.00D-03  DTMAX   =  0.00D+00

 SETTING GEOMTYP        =    XYZ
 ZUNIT=BOHR
 

 Variable memory set to 1000000000 words,  buffer space   230000 words

 SETTING BASIS          =    VDZ


 Recomputing integrals since basis changed


 Using spherical harmonics

 Library entry F      S cc-pVDZ              selected for orbital group  1
 Library entry F      P cc-pVDZ              selected for orbital group  1
 Library entry F      D cc-pVDZ              selected for orbital group  1
 Library entry C      S cc-pVDZ              selected for orbital group  2
 Library entry C      P cc-pVDZ              selected for orbital group  2
 Library entry C      D cc-pVDZ              selected for orbital group  2
 Library entry H      S cc-pVDZ              selected for orbital group  3
 Library entry H      P cc-pVDZ              selected for orbital group  3

1PROGRAM * SEWARD (Integral evaluation for generally contracted gaussian basis sets)     Author: Roland Lindh, 1990

 Geometry written to block  1 of record 700


 Point group  C1  



 ATOMIC COORDINATES

 NR  ATOM    CHARGE       X              Y              Z

   1  F       9.00    0.000261422    4.436299880   -1.762389763
   2  C       6.00    0.000034095    2.244561921   -0.483206810
   3  C       6.00   -0.000344384   -2.295471504    2.143126008
   4  C       6.00   -0.003790994   -0.000001337   -1.848617053
   5  C       6.00    0.003605628    2.295464371    2.143123343
   6  C       6.00   -0.003218064    0.000001362    3.445908449
   7  C       6.00    0.002604443   -2.244557454   -0.483204694
   8  H       1.00   -0.011431180   -0.000006674   -3.889998749
   9  H       1.00    0.011507009    4.089022348    3.120127237
  10  H       1.00   -0.010829136    0.000009097    5.490912175
  11  F       9.00    0.011963605   -4.436276417   -1.762385976
  12  H       1.00   -0.000362445   -4.089045593    3.120132271

 Bond lengths in Bohr (Angstrom)

 1-2  2.537720308  2-4  2.627246463  2-5  2.626825820  3-6  2.639402588  3-7  2.626825820
     ( 1.342903750)     ( 1.390278951)     ( 1.390056356)     ( 1.396711695)     ( 1.390056356)

  3-12  2.042412606   4- 7  2.627246463   4- 8  2.041395993   5- 6  2.639402588   5- 9  2.042412606
       ( 1.080798203)       ( 1.390278951)       ( 1.080260234)       ( 1.396711695)       ( 1.080798203)

  6-10  2.045017889   7-11  2.537720308
       ( 1.082176859)       ( 1.342903750)

 Bond angles

  1-2-4  118.41754913   1-2-5  119.15910499   2-4-7  117.37365261   2-4-8  121.31317369

  2- 5- 6  118.46627854   2- 5- 9  119.68884878   3- 6- 5  120.84586466   3- 6-10  119.57706767

  3- 7- 4  122.42334055   3- 7-11  119.15910765   4- 2- 5  122.42334588   4- 7-11  118.41755180

  5- 6-10  119.57706767   6- 3- 7  118.46627322   6- 3-12  121.84487534   6- 5- 9  121.84487268

  7- 3-12  119.68885144   7- 4- 8  121.31317370

 NUCLEAR CHARGE:                   58
 NUMBER OF PRIMITIVE AOS:         244
 NUMBER OF SYMMETRY AOS:          236
 NUMBER OF CONTRACTIONS:          132   ( 132A   )
 NUMBER OF CORE ORBITALS:           8   (   8A   )
 NUMBER OF VALENCE ORBITALS:       36   (  36A   )


 NUCLEAR REPULSION ENERGY  342.30892966


 Eigenvalues of metric

         1 0.395E-03 0.120E-02 0.170E-02 0.264E-02 0.304E-02 0.314E-02 0.125E-01 0.130E-01


 Contracted 2-electron integrals neglected if value below      1.0D-16
 AO integral compression algorithm  1   Integral accuracy      1.0D-16

     267.649 MB (compressed) written to integral file ( 80.2%)

     Node minimum: 267.649 MB, node maximum: 267.649 MB


 NUMBER OF SORTED TWO-ELECTRON INTEGRALS:   38531031.     BUFFER LENGTH:  32768
 NUMBER OF SEGMENTS:   3  SEGMENT LENGTH:   15998004      RECORD LENGTH: 524288

 Memory used in sort:      16.56 MW

 SORT1 READ    41686218. AND WROTE    37240250. INTEGRALS IN    108 RECORDS. CPU TIME:     0.41 SEC, REAL TIME:     0.60 SEC
 SORT2 READ    37240250. AND WROTE    38531031. INTEGRALS IN   1021 RECORDS. CPU TIME:     0.36 SEC, REAL TIME:     0.50 SEC

 FILE SIZES:   FILE 1:   247.4 MBYTE,  FILE 4:   453.0 MBYTE,   TOTAL:    700.4 MBYTE

 OPERATOR DM      FOR CENTER  0  COORDINATES:    0.000000    0.000000    0.000000


 **********************************************************************************************************************************
 DATASETS  * FILE   NREC   LENGTH (MB)   RECORD NAMES
              1      19      247.59       500      610      700      900      950      970     1000      129      960     1100   
                                          VAR    BASINP    GEOM    SYMINP    ZMAT    AOBASIS   BASIS     P2S    ABASIS      S 
                                         1400     1410     1200     1210     1080     1600     1650     1300     1700   
                                           T        V       H0       H01     AOSYM     SMH    MOLCAS    ERIS     OPER   

 PROGRAMS   *        TOTAL       INT
 CPU TIMES  *         3.53      3.49
 REAL TIME  *         4.14 SEC
 DISK USED  *       968.91 MB      
 GA USED    *         0.00 MB       (max)       0.00 MB       (current)
 **********************************************************************************************************************************

1PROGRAM * RHF-SCF (CLOSED SHELL)       Authors: W. Meyer, H.-J. Werner


 NUMBER OF ELECTRONS:      29+   29-    SPACE SYMMETRY=1    SPIN SYMMETRY: Singlet 
 CONVERGENCE THRESHOLDS:    1.00E-10 (Density)    1.00E-13 (Energy)
 MAX. NUMBER OF ITERATIONS:      200
 INTERPOLATION TYPE:            DIIS
 INTERPOLATION STEPS:              2 (START)      1 (STEP)
 LEVEL SHIFTS:                  0.00 (CLOSED)  0.00 (OPEN) 



 Orbital guess generated from atomic densities. Full valence occupancy:   44

 Molecular orbital dump at record        2100.2

 ITERATION    DDIFF          GRAD             ENERGY        2-EL.EN.            DIPOLE MOMENTS         DIIS
    1      0.000D+00      0.000D+00      -428.34383013    992.945986   -0.00349   -0.00002    0.47451    0
    2      0.000D+00      0.606D-02      -428.41798479    992.476835   -0.00292   -0.00001    0.92559    1
    3      0.124D-01      0.275D-02      -428.43186185    992.815964   -0.00295   -0.00001    0.62075    2
    4      0.395D-02      0.728D-03      -428.43341811    992.871818   -0.00298   -0.00001    0.73480    3
    5      0.148D-02      0.221D-03      -428.43355431    992.836604   -0.00298   -0.00001    0.70126    4
    6      0.374D-03      0.465D-04      -428.43356217    992.846216   -0.00297   -0.00001    0.70560    5
    7      0.987D-04      0.141D-04      -428.43356327    992.849559   -0.00298   -0.00001    0.70396    6
    8      0.340D-04      0.511D-05      -428.43356342    992.848970   -0.00297   -0.00001    0.70438    7
    9      0.116D-04      0.239D-05      -428.43356346    992.849411   -0.00297   -0.00001    0.70410    8
   10      0.649D-05      0.940D-06      -428.43356347    992.850006   -0.00297   -0.00001    0.70417    8
   11      0.304D-05      0.513D-06      -428.43356347    992.849914   -0.00297   -0.00001    0.70414    8
   12      0.179D-05      0.196D-06      -428.43356347    992.850014   -0.00297   -0.00001    0.70415    8
   13      0.951D-06      0.320D-07      -428.43356347    992.850040   -0.00297   -0.00001    0.70415    8
   14      0.994D-07      0.123D-07      -428.43356347    992.850035   -0.00297   -0.00001    0.70415    9
   15      0.408D-07      0.296D-08      -428.43356347    992.850035   -0.00297   -0.00001    0.70415    9
   16      0.888D-08      0.113D-08      -428.43356347    992.850035   -0.00297   -0.00001    0.70415    9
   17      0.346D-08      0.424D-09      -428.43356347    992.850035   -0.00297   -0.00001    0.70415    8
   18      0.126D-08      0.839D-10      -428.43356347    992.850035   -0.00297   -0.00001    0.70415    7
   19      0.220D-09      0.280D-10      -428.43356347    992.850035   -0.00297   -0.00001    0.70415    7
   20      0.729D-10      0.104D-10      -428.43356347    992.850035   -0.00297   -0.00001    0.70415    8
   21      0.194D-10      0.225D-11      -428.43356347    992.850035   -0.00297   -0.00001    0.70415    8
   22      0.492D-11      0.897D-12      -428.43356347    992.850035   -0.00297   -0.00001    0.70415    8
   23      0.264D-11      0.400D-12      -428.43356347    992.850035   -0.00297   -0.00001    0.70415    8
   24      0.157D-11      0.128D-12      -428.43356347    992.850035   -0.00297   -0.00001    0.70415    7
   25      0.132D-11      0.659D-13      -428.43356347    992.850035   -0.00297   -0.00001    0.70415    0

 Final occupancy:  29

 !RHF STATE 1.1 Energy               -428.433563469993
 Nuclear energy                       342.30892966
 One-electron energy                -1267.16751063
 Two-electron energy                  496.42501750
 Virial quotient                       -1.00060685
 !RHF STATE 1.1 Dipole moment          -0.00297470    -0.00000985     0.70414618
 Dipole moment /Debye                  -0.00756044    -0.00002502     1.78964384

 Orbital energies:

         1.1          2.1          3.1          4.1          5.1          6.1          7.1          8.1          9.1         10.1
    -26.321241   -26.321240   -11.349494   -11.349489   -11.272853   -11.258848   -11.255916   -11.255863    -1.639699    -1.639102

        11.1         12.1         13.1         14.1         15.1         16.1         17.1         18.1         19.1         20.1
     -1.178941    -1.046748    -1.036953    -0.875062    -0.865067    -0.774911    -0.741022    -0.704077    -0.702675    -0.696100

        21.1         22.1         23.1         24.1         25.1         26.1         27.1         28.1         29.1         30.1
     -0.685613    -0.668564    -0.623031    -0.586416    -0.554425    -0.532855    -0.513819    -0.360298    -0.348413     0.113754

        31.1
      0.131847


 **********************************************************************************************************************************
 DATASETS  * FILE   NREC   LENGTH (MB)   RECORD NAMES
              1      19      247.59       500      610      700      900      950      970     1000      129      960     1100   
                                          VAR    BASINP    GEOM    SYMINP    ZMAT    AOBASIS   BASIS     P2S    ABASIS      S 
                                         1400     1410     1200     1210     1080     1600     1650     1300     1700   
                                           T        V       H0       H01     AOSYM     SMH    MOLCAS    ERIS     OPER   

              2       3        0.82       700     1000     2100   
                                         GEOM     BASIS     RHF  

 PROGRAMS   *        TOTAL       RHF       INT
 CPU TIMES  *        10.77      7.24      3.49
 REAL TIME  *        11.96 SEC
 DISK USED  *       968.91 MB      
 GA USED    *         0.00 MB       (max)       0.00 MB       (current)
 **********************************************************************************************************************************


1PROGRAM * CCSD (Closed-shell coupled cluster)     Authors: C. Hampel, H.-J. Werner, 1991, M. Deegan, P.J. Knowles, 1992


 Convergence thresholds:  THRVAR = 1.00D-08  THRDEN = 1.00D-12

 CCSD(T)     terms to be evaluated (factor= 1.000)


 Number of core orbitals:           8 (   8 )
 Number of closed-shell orbitals:  21 (  21 )
 Number of external orbitals:     103 ( 103 )

 Molecular orbitals read from record     2100.2  Type=RHF/CANONICAL (state 1.1)

 Number of N-1 electron functions:              21
 Number of N-2 electron functions:             231
 Number of singly external CSFs:              2163
 Number of doubly external CSFs:           2340366
 Total number of CSFs:                     2342530

 Length of J-op  integral file:               0.00 MB
 Length of K-op  integral file:               1.24 MB
 Length of 3-ext integral record:             0.00 MB

 Memory could be reduced to 31.86 Mwords without degradation in triples

 Integral transformation finished. Total CPU:   2.08 sec, npass=  1  Memory used:  32.41 MW

 Reference energy:                   -428.43356347

 MP2 singlet pair energy:              -0.67267769
 MP2 triplet pair energy:              -0.46576710
 MP2 correlation energy:               -1.13844478
 MP2 total energy:                   -429.57200825

 SCS-MP2 correlation energy:           -1.09702386   (PS=  1.200000  PT=  0.333333)
 SCS-MP2 total energy:               -429.53058733

 ITER.      SQ.NORM     CORR.ENERGY   TOTAL ENERGY   ENERGY CHANGE        DEN1      VAR(S)    VAR(P)  DIIS     TIME
   1      1.36214361    -1.16817532  -429.60173879    -0.02973054     0.00050855  0.67D-02  0.73D-02  1  1    11.15
   2      1.38861321    -1.17170827  -429.60527174    -0.00353295    -0.02700173  0.13D-03  0.11D-02  2  2    20.33
   3      1.39940707    -1.17230913  -429.60587260    -0.00060086    -0.00538170  0.86D-04  0.10D-03  3  3    29.53
   4      1.40343504    -1.17223460  -429.60579807     0.00007454    -0.00142349  0.47D-05  0.20D-04  4  4    38.74
   5      1.40527388    -1.17226515  -429.60582862    -0.00003055    -0.00045079  0.90D-06  0.22D-05  5  5    47.95
   6      1.40574813    -1.17227084  -429.60583431    -0.00000569    -0.00006786  0.12D-06  0.24D-06  6  6    57.16
   7      1.40583452    -1.17226581  -429.60582928     0.00000503     0.00000034  0.27D-07  0.22D-07  6  1    66.36
   8      1.40585918    -1.17226692  -429.60583039    -0.00000111    -0.00000751  0.58D-08  0.29D-08  6  2    75.57
   9      1.40586037    -1.17226756  -429.60583103    -0.00000065     0.00000228  0.17D-08  0.33D-09  6  3    84.78
  10      1.40586264    -1.17226734  -429.60583081     0.00000023    -0.00000118  0.36D-09  0.72D-10  6  4    93.99
  11      1.40586269    -1.17226757  -429.60583104    -0.00000023     0.00000032  0.45D-10  0.19D-10  6  5   103.20
  12      1.40586288    -1.17226755  -429.60583102     0.00000002    -0.00000007  0.11D-10  0.23D-11  6  6   112.40
  13      1.40586289    -1.17226757  -429.60583104    -0.00000002     0.00000004  0.56D-12  0.55D-12  6  1   121.62
  14      1.40586288    -1.17226757  -429.60583104    -0.00000001     0.00000002  0.14D-12  0.85D-13  6  2   130.83
  15      1.40586288    -1.17226757  -429.60583104     0.00000000     0.00000000  0.39D-13  0.14D-13  6  3   140.02
  16      1.40586288    -1.17226757  -429.60583104    -0.00000000     0.00000000  0.61D-14  0.41D-14  6  4   149.23
  17      1.40586288    -1.17226757  -429.60583104    -0.00000000    -0.00000000  0.16D-14  0.72D-15  6  5   158.41
  18      1.40586289    -1.17226757  -429.60583104    -0.00000000    -0.00000000  0.21D-15  0.10D-15  6  6   167.62
  19      1.40586289    -1.17226757  -429.60583104    -0.00000000    -0.00000000  0.31D-16  0.23D-16  6  1   176.83
  20      1.40586289    -1.17226757  -429.60583104     0.00000000    -0.00000000  0.13D-16  0.29D-17  6  2   186.05
  21      1.40586289    -1.17226757  -429.60583104    -0.00000000    -0.00000000  0.15D-17  0.67D-18  6  3   195.25
  22      1.40586289    -1.17226757  -429.60583104    -0.00000000    -0.00000000  0.45D-18  0.14D-18  6  4   204.46
  23      1.40586289    -1.17226757  -429.60583104     0.00000000    -0.00000000  0.90D-19  0.23D-19  6  5   213.67
  24      1.40586289    -1.17226757  -429.60583104    -0.00000000    -0.00000000  0.77D-20  0.50D-20  6  6   222.89
  25      1.40586289    -1.17226757  -429.60583104    -0.00000000     0.00000000  0.19D-20  0.11D-20  6  1   232.10

 Norm of t1 vector:      0.10819393      S-energy:     0.00000000      T1 diagnostic:  0.01180493
                                                                       D1 diagnostic:  0.03158930

 Doubles amplitudes (print threshold =  0.500E-01):

         I         J         SYM. A    SYM. B    A         B      T(IJ, AB)

        20        20         1         1         1         1     -0.08688811
        21        20         1         1         1         2     -0.05132739
        21        21         1         1         2         2     -0.08407688


 Total CPU time for triples:    136.00 sec


 RESULTS
 =======

  Reference energy                   -428.433563469991
  CCSD singlet pair energy             -0.756766265661
  CCSD triplet pair energy             -0.415501308098
  CCSD correlation energy              -1.172267573759

  Triples (T) contribution             -0.043069665579
  Total correlation energy             -1.215337239337

  CCSD total energy                  -429.605831043749
  CCSD[T] energy                     -429.650900096305
  CCSD-T energy                      -429.648175880737
 !CCSD(T) total energy               -429.648900709328

 Timing summary (sec):

 STEP                 CPU(USER)    SYS     CPU(TOT)    WALL
 Transformation          2.20      0.21      2.41      2.41
 CCSD iterations       229.91      3.32    233.23    233.36
 Triples               136.00      2.40    138.40    138.42

 Program statistics:

 Available memory in ccsd:               999998136
 Min. memory needed in ccsd:               6063316
 Max. memory used in ccsd:                 8147482
 Max. memory used in cckext:               8418193 (25 integral passes)



 **********************************************************************************************************************************
 DATASETS  * FILE   NREC   LENGTH (MB)   RECORD NAMES
              1      20      389.22       500      610      700      900      950      970     1000      129      960     1100   
                                          VAR    BASINP    GEOM    SYMINP    ZMAT    AOBASIS   BASIS     P2S    ABASIS      S 
                                         1400     1410     1200     1210     1080     1600     1650     1300     1700     1380   
                                           T        V       H0       H01     AOSYM     SMH    MOLCAS    ERIS     OPER     JKOP   

              2       3        0.82       700     1000     2100   
                                         GEOM     BASIS     RHF  

 PROGRAMS   *        TOTAL   CCSD(T)       RHF       INT
 CPU TIMES  *       378.89    368.12      7.24      3.49
 REAL TIME  *       386.20 SEC
 DISK USED  *         1.06 GB      
 GA USED    *         0.00 MB       (max)       0.00 MB       (current)
 **********************************************************************************************************************************

        CCSD(T)         RHF-SCF 
   -429.64890071   -428.43356347
 **********************************************************************************************************************************
 Variable memory released
