
 Primary working directories    : /tmp/1049102.548.gen6.q
 Secondary working directories  : /tmp/1049102.548.gen6.q
 Wavefunction directory         : /home/vulcan/mel64643/wfu/
 Main file repository           : /tmp/1049102.548.gen6.q/

 ARCHNAME  : Linux/x86_64
 FC        : /opt/intel/compilers_and_libraries_2016.1.150/linux/bin/intel64/ifort
 FCVERSION : 16.0.1
 BLASLIB   : -mkl
 id        : ccgc

 Nodes     nprocs
 n087         1
 ga_uses_ma=false, calling ma_init with nominal heap.
 GA-space will be limited to   8.0 MW (determined by -G option)

 Using customized tuning parameters: mindgm=10; mindgv=16; mindgc=4; mindgr=1; noblas=0; mincuda=1000; minvec=7
 default implementation of scratch files=df  

 ***,Optimization of h2o_3
 memory,1000,m
 gthresh,energy=1.0d-12,orbital=1.0d-10,oneint=1.0d-16,twoint=1.0d-16,optgrad=1.0d-6,compress=1.0d-13
 geomtyp=xyz
 
 
 
 bohr
 geometry = {
  C    0.9154978941    1.4056142094   -2.2728747198
  C    0.7395713635    2.7093455860    0.0186398633
  C    0.9981975950    1.4059212325    2.3026363972
  C    1.4311521722   -1.2012867615    2.2951195314
  C    1.6078059715   -2.5045266245    0.0036471572
  C    1.3492382079   -1.2008786474   -2.2801452473
  H    0.7055278764    2.4168729788   -4.0461850939
  H    0.3892157139    4.7228481892    0.0244973660
  H    0.8563195983    2.4178964109    4.0825114488
  H    1.6285781804   -2.2095822311    4.0625320005
  H    1.9420199051   -4.5295265970   -0.0022265131
  H    1.4834740600   -2.2094419265   -4.0534262949
  N   -5.4427731113   -0.3572902585   -0.0705956771
  H   -5.5914345930   -1.5686415293   -1.5510759467
  H   -6.0693701370   -1.3154573021    1.4690252532
  H   -3.5620888300   -0.0736563271    0.1979981520
 }
 
 basis=aug-cc-pvdz, H=cc-pvdz
 {rhf;maxit,200}
 {ccsd(t)}

 Variables initialized (661), CPU time= 0.00 sec
 Commands  initialized (458), CPU time= 0.01 sec, 486 directives.
 Default parameters read. Elapsed time= 0.04 sec

 Checking input...
 Passed
1


                                         ***  PROGRAM SYSTEM MOLPRO  ***
                         Copyright, University College Cardiff Consultants Limited, 2008

                                    Version 2010.1 linked May 16 2016 07:17:05


 **********************************************************************************************************************************
 LABEL *   Optimization of h2o_3                                                         
 Linux-4.4.3/n087(x86_64) 64 bit mpp version                                             DATE: 19-Mar-24          TIME: 10:56:07  
 **********************************************************************************************************************************

 SHA1:             9e8077add272b0f3cad6f7df79ec5211205f459d
 **********************************************************************************************************************************

 THRESHOLDS:

 ZERO    =  1.00D-12  ONEINT  =  1.00D-16  TWOINT  =  1.00D-16  PREFAC  =  1.00D-14  LOCALI  =  1.00D-09  EORDER  =  1.00D-04
 ENERGY  =  1.00D-12  ETEST   =  0.00D+00  EDENS   =  0.00D+00  THRDEDEF=  1.00D-06  GRADIENT=  1.00D-02  STEP    =  1.00D-03
 ORBITAL =  1.00D-10  CIVEC   =  1.00D-05  COEFF   =  1.00D-04  PRINTCI =  5.00D-02  PUNCHCI =  9.90D+01  OPTGRAD =  1.00D-06
 OPTENERG=  1.00D-06  OPTSTEP =  3.00D-04  THRGRAD =  1.00D-10  COMPRESS=  1.00D-13  VARMIN  =  1.00D-07  VARMAX  =  1.00D-03
 THRDOUB =  0.00D+00  THRDIV  =  1.00D-05  THRRED  =  1.00D-07  THRPSP  =  1.00D+00  THRDC   =  1.00D-10  THRCS   =  1.00D-10
 THRNRM  =  1.00D-08  THREQ   =  0.00D+00  THRDE   =  1.00D+00  THRREF  =  1.00D-05  SPARFAC =  1.00D+00  THRDLP  =  1.00D-07
 THRDIA  =  1.00D-10  THRDLS  =  1.00D-07  THRGPS  =  0.00D+00  THRKEX  =  0.00D+00  THRDIS  =  2.00D-01  THRVAR  =  1.00D-10
 THRLOC  =  1.00D-06  THRGAP  =  1.00D-06  THRLOCT = -1.00D+00  THRGAPT = -1.00D+00  THRORB  =  1.00D-06  THRMLTP =  0.00D+00
 THRCPQCI=  1.00D-10  KEXTA   =  0.00D+00  THRCOARS=  0.00D+00  SYMTOL  =  1.00D-06  GRADTOL =  1.00D-06  THROVL  =  1.00D-08
 THRORTH =  1.00D-08  GRID    =  1.00D-06  GRIDMAX =  1.00D-03  DTMAX   =  0.00D+00

 SETTING GEOMTYP        =    XYZ
 ZUNIT=BOHR
 

 Variable memory set to 1000000000 words,  buffer space   230000 words

 SETTING BASIS          =    AUG-CC-PVDZ,H=CC-PVDZ


 Recomputing integrals since basis changed


 Using spherical harmonics

 Library entry C      S aug-cc-pVDZ          selected for orbital group  1
 Library entry C      P aug-cc-pVDZ          selected for orbital group  1
 Library entry C      D aug-cc-pVDZ          selected for orbital group  1
 Library entry H      S cc-pVDZ              selected for orbital group  2
 Library entry H      P cc-pVDZ              selected for orbital group  2
 Library entry N      S aug-cc-pVDZ          selected for orbital group  3
 Library entry N      P aug-cc-pVDZ          selected for orbital group  3
 Library entry N      D aug-cc-pVDZ          selected for orbital group  3

1PROGRAM * SEWARD (Integral evaluation for generally contracted gaussian basis sets)     Author: Roland Lindh, 1990

 Geometry written to block  1 of record 700


 Point group  C1  



 ATOMIC COORDINATES

 NR  ATOM    CHARGE       X              Y              Z

   1  C       6.00    0.915497894    1.405614209   -2.272874720
   2  C       6.00    0.739571363    2.709345586    0.018639863
   3  C       6.00    0.998197595    1.405921232    2.302636397
   4  C       6.00    1.431152172   -1.201286762    2.295119531
   5  C       6.00    1.607805971   -2.504526624    0.003647157
   6  C       6.00    1.349238208   -1.200878647   -2.280145247
   7  H       1.00    0.705527876    2.416872979   -4.046185094
   8  H       1.00    0.389215714    4.722848189    0.024497366
   9  H       1.00    0.856319598    2.417896411    4.082511449
  10  H       1.00    1.628578180   -2.209582231    4.062532001
  11  H       1.00    1.942019905   -4.529526597   -0.002226513
  12  H       1.00    1.483474060   -2.209441926   -4.053426295
  13  N       7.00   -5.442773111   -0.357290259   -0.070595677
  14  H       1.00   -5.591434593   -1.568641529   -1.551075947
  15  H       1.00   -6.069370137   -1.315457302    1.469025253
  16  H       1.00   -3.562088830   -0.073656327    0.197998152

 Bond lengths in Bohr (Angstrom)

 1-2  2.642291568  1-6  2.642345271  1-7  2.052160176  2-3  2.642431218  2-8  2.043765183
     ( 1.398240477)     ( 1.398268896)     ( 1.085956395)     ( 1.398314377)     ( 1.081513956)

  3- 4  2.642922567   3- 9  2.052359210   4- 5  2.642061004   4-10  2.044354083   5- 6  2.642359378
       ( 1.398574387)       ( 1.086061719)       ( 1.398118468)       ( 1.081825588)       ( 1.398276361)

  5-11  2.052403065   6-12  2.044442424  13-14  1.918669843  13-15  1.918629856  13-16  1.920823838
       ( 1.086084926)       ( 1.081872336)       ( 1.015316352)       ( 1.015295192)       ( 1.016456198)

 Bond angles

  1- 2- 3  119.98067219   1- 2- 8  120.00017362   1- 6- 5  120.02353208   1- 6-12  119.98613481

  2-1-6  120.00199142   2-1-7  119.96358305   2-3-4  120.01167908   2-3-9  119.97429893

  3- 2- 8  120.01747718   3- 4- 5  120.00136271   3- 4-10  119.99378387   4- 3- 9  120.01369028

  4- 5- 6  119.98073459   4- 5-11  120.00333269   5- 4-10  120.00484870   5- 6-12  119.99031857

  6- 1- 7  120.03368563   6- 5-11  120.01581872  14-13-15  106.17607583  14-13-16  106.08043224

 15-13-16  106.33745550

 NUCLEAR CHARGE:                   52
 NUMBER OF PRIMITIVE AOS:         322
 NUMBER OF SYMMETRY AOS:          308
 NUMBER OF CONTRACTIONS:          206   ( 206A   )
 NUMBER OF CORE ORBITALS:           7   (   7A   )
 NUMBER OF VALENCE ORBITALS:       37   (  37A   )


 NUCLEAR REPULSION ENERGY  273.71043512


 Eigenvalues of metric

         1 0.861E-05 0.184E-04 0.228E-04 0.532E-04 0.643E-04 0.644E-04 0.107E-03 0.107E-03


 Contracted 2-electron integrals neglected if value below      1.0D-16
 AO integral compression algorithm  1   Integral accuracy      1.0D-16

     1892.155 MB (compressed) written to integral file ( 94.5%)

     Node minimum: 1892.155 MB, node maximum: 1892.155 MB


 NUMBER OF SORTED TWO-ELECTRON INTEGRALS:  227303181.     BUFFER LENGTH:  32768
 NUMBER OF SEGMENTS:  15  SEGMENT LENGTH:   15999503      RECORD LENGTH: 524288

 Memory used in sort:      16.56 MW

 SORT1 READ   250230265. AND WROTE   226407793. INTEGRALS IN    654 RECORDS. CPU TIME:     2.17 SEC, REAL TIME:     3.40 SEC
 SORT2 READ   226407793. AND WROTE   227303181. INTEGRALS IN   7218 RECORDS. CPU TIME:     1.26 SEC, REAL TIME:     2.18 SEC

 FILE SIZES:   FILE 1:  1743.1 MBYTE,  FILE 4:  2743.1 MBYTE,   TOTAL:   4486.2 MBYTE

 OPERATOR DM      FOR CENTER  0  COORDINATES:    0.000000    0.000000    0.000000


 **********************************************************************************************************************************
 DATASETS  * FILE   NREC   LENGTH (MB)   RECORD NAMES
              1      19     1743.60       500      610      700      900      950      970     1000      129      960     1100   
                                          VAR    BASINP    GEOM    SYMINP    ZMAT    AOBASIS   BASIS     P2S    ABASIS      S 
                                         1400     1410     1200     1210     1080     1600     1650     1300     1700   
                                           T        V       H0       H01     AOSYM     SMH    MOLCAS    ERIS     OPER   

 PROGRAMS   *        TOTAL       INT
 CPU TIMES  *        12.24     12.20
 REAL TIME  *        15.40 SEC
 DISK USED  *         6.38 GB      
 GA USED    *         0.01 MB       (max)       0.00 MB       (current)
 **********************************************************************************************************************************

1PROGRAM * RHF-SCF (CLOSED SHELL)       Authors: W. Meyer, H.-J. Werner


 NUMBER OF ELECTRONS:      26+   26-    SPACE SYMMETRY=1    SPIN SYMMETRY: Singlet 
 CONVERGENCE THRESHOLDS:    1.00E-10 (Density)    1.00E-13 (Energy)
 MAX. NUMBER OF ITERATIONS:      200
 INTERPOLATION TYPE:            DIIS
 INTERPOLATION STEPS:              2 (START)      1 (STEP)
 LEVEL SHIFTS:                  0.00 (CLOSED)  0.00 (OPEN) 



 Orbital guess generated from atomic densities. Full valence occupancy:   44

 Molecular orbital dump at record        2100.2

 ITERATION    DDIFF          GRAD             ENERGY        2-EL.EN.            DIPOLE MOMENTS         DIIS
    1      0.000D+00      0.000D+00      -286.85322838    740.883113    0.51948   -0.76792    0.13622    0
    2      0.000D+00      0.322D-02      -286.92078699    735.092768    0.43513   -0.38432    0.06233    1
    3      0.826D-02      0.133D-02      -286.93011511    737.724522    0.45167   -0.52281    0.09237    2
    4      0.218D-02      0.381D-03      -286.93133314    737.204768    0.45026   -0.49607    0.08459    3
    5      0.783D-03      0.526D-04      -286.93135696    737.193532    0.45608   -0.50617    0.08856    4
    6      0.135D-03      0.177D-04      -286.93135940    737.208427    0.45494   -0.50067    0.08647    5
    7      0.511D-04      0.554D-05      -286.93135968    737.205345    0.45559   -0.50289    0.08722    6
    8      0.150D-04      0.131D-05      -286.93135970    737.204339    0.45574   -0.50253    0.08708    7
    9      0.423D-05      0.559D-06      -286.93135970    737.204802    0.45578   -0.50262    0.08712    7
   10      0.155D-05      0.165D-06      -286.93135970    737.204748    0.45578   -0.50263    0.08711    7
   11      0.643D-06      0.583D-07      -286.93135970    737.204733    0.45579   -0.50263    0.08711    7
   12      0.246D-06      0.285D-07      -286.93135970    737.204750    0.45579   -0.50263    0.08711    8
   13      0.128D-06      0.126D-07      -286.93135970    737.204741    0.45579   -0.50263    0.08711    8
   14      0.747D-07      0.486D-08      -286.93135970    737.204745    0.45579   -0.50263    0.08711    8
   15      0.260D-07      0.158D-08      -286.93135970    737.204744    0.45579   -0.50263    0.08711    9
   16      0.708D-08      0.309D-09      -286.93135970    737.204744    0.45579   -0.50263    0.08711    9
   17      0.112D-08      0.911D-10      -286.93135970    737.204744    0.45579   -0.50263    0.08711    8
   18      0.355D-09      0.404D-10      -286.93135970    737.204744    0.45579   -0.50263    0.08711    8
   19      0.170D-09      0.166D-10      -286.93135970    737.204744    0.45579   -0.50263    0.08711    9
   20      0.128D-09      0.774D-11      -286.93135970    737.204744    0.45579   -0.50263    0.08711    8
   21      0.191D-09      0.269D-11      -286.93135970    737.204744    0.45579   -0.50263    0.08711    8
   22      0.213D-09      0.115D-11      -286.93135970    737.204744    0.45579   -0.50263    0.08711    8
   23      0.114D-09      0.686D-12      -286.93135970    737.204744    0.45579   -0.50263    0.08711    9
   24      0.965D-10      0.624D-12      -286.93135970    737.204744    0.45579   -0.50263    0.08711    9
   25      0.610D-10      0.537D-12      -286.93135970    737.204744    0.45579   -0.50263    0.08711    9
   26      0.472D-10      0.554D-12      -286.93135970    737.204744    0.45579   -0.50263    0.08711    9
   27      0.370D-10      0.592D-12      -286.93135970    737.204744    0.45579   -0.50263    0.08711    0

 Final occupancy:  26

 !RHF STATE 1.1 Energy               -286.931359700135
 Nuclear energy                       273.71043512
 One-electron energy                 -929.24416684
 Two-electron energy                  368.60237202
 Virial quotient                       -1.00146511
 !RHF STATE 1.1 Dipole moment           0.45578834    -0.50262727     0.08711388
 Dipole moment /Debye                   1.15842253    -1.27746741     0.22140691

 Orbital energies:

         1.1          2.1          3.1          4.1          5.1          6.1          7.1          8.1          9.1         10.1
    -15.535005   -11.250642   -11.250004   -11.249743   -11.248813   -11.248646   -11.247776    -1.157503    -1.125560    -1.022057

        11.1         12.1         13.1         14.1         15.1         16.1         17.1         18.1         19.1         20.1
     -1.021951    -0.830637    -0.830539    -0.714512    -0.650445    -0.623921    -0.611679    -0.609819    -0.593582    -0.593455

        21.1         22.1         23.1         24.1         25.1         26.1         27.1         28.1
     -0.504903    -0.500095    -0.500026    -0.413435    -0.342975    -0.341989     0.063890     0.066419


 **********************************************************************************************************************************
 DATASETS  * FILE   NREC   LENGTH (MB)   RECORD NAMES
              1      19     1743.60       500      610      700      900      950      970     1000      129      960     1100   
                                          VAR    BASINP    GEOM    SYMINP    ZMAT    AOBASIS   BASIS     P2S    ABASIS      S 
                                         1400     1410     1200     1210     1080     1600     1650     1300     1700   
                                           T        V       H0       H01     AOSYM     SMH    MOLCAS    ERIS     OPER   

              2       3        1.40       700     1000     2100   
                                         GEOM     BASIS     RHF  

 PROGRAMS   *        TOTAL       RHF       INT
 CPU TIMES  *        48.08     35.84     12.20
 REAL TIME  *        55.40 SEC
 DISK USED  *         6.38 GB      
 GA USED    *         0.01 MB       (max)       0.00 MB       (current)
 **********************************************************************************************************************************


1PROGRAM * CCSD (Closed-shell coupled cluster)     Authors: C. Hampel, H.-J. Werner, 1991, M. Deegan, P.J. Knowles, 1992


 Convergence thresholds:  THRVAR = 1.00D-08  THRDEN = 1.00D-12

 CCSD(T)     terms to be evaluated (factor= 1.000)


 Number of core orbitals:           7 (   7 )
 Number of closed-shell orbitals:  19 (  19 )
 Number of external orbitals:     180 ( 180 )

 Molecular orbitals read from record     2100.2  Type=RHF/CANONICAL (state 1.1)

 Number of N-1 electron functions:              19
 Number of N-2 electron functions:             190
 Number of singly external CSFs:              3420
 Number of doubly external CSFs:           5849910
 Total number of CSFs:                     5853331

 Length of J-op  integral file:               0.00 MB
 Length of K-op  integral file:               2.96 MB
 Length of 3-ext integral record:             0.00 MB

 Memory could be reduced to 140.12 Mwords without degradation in triples

 Integral transformation finished. Total CPU:  10.31 sec, npass=  1  Memory used: 101.90 MW

 Reference energy:                   -286.93135970

 MP2 singlet pair energy:              -0.62063146
 MP2 triplet pair energy:              -0.38983345
 MP2 correlation energy:               -1.01046491
 MP2 total energy:                   -287.94182461

 SCS-MP2 correlation energy:           -0.98732079   (PS=  1.200000  PT=  0.333333)
 SCS-MP2 total energy:               -287.91868049

 ITER.      SQ.NORM     CORR.ENERGY   TOTAL ENERGY   ENERGY CHANGE        DEN1      VAR(S)    VAR(P)  DIIS     TIME
   1      1.38488227    -1.05475731  -287.98611701    -0.04429240    -0.01721381  0.36D-02  0.80D-02  1  1    42.55
   2      1.41439509    -1.06061997  -287.99197967    -0.00586265    -0.02705290  0.63D-04  0.10D-02  2  2    75.06
   3      1.42352617    -1.06071570  -287.99207540    -0.00009573    -0.00464347  0.27D-04  0.84D-04  3  3   107.55
   4      1.42746346    -1.06088444  -287.99224414    -0.00016875    -0.00121414  0.22D-05  0.11D-04  4  4   140.09
   5      1.42867703    -1.06091539  -287.99227509    -0.00003095    -0.00027320  0.27D-06  0.13D-05  5  5   172.64
   6      1.42897960    -1.06090516  -287.99226486     0.00001023    -0.00004348  0.23D-07  0.79D-07  6  6   205.21
   7      1.42902034    -1.06090679  -287.99226649    -0.00000163    -0.00000103  0.35D-08  0.82D-08  6  2   237.78
   8      1.42902953    -1.06090664  -287.99226634     0.00000014    -0.00000117  0.75D-09  0.76D-09  6  1   270.37
   9      1.42902936    -1.06090678  -287.99226648    -0.00000014     0.00000123  0.21D-09  0.92D-10  6  4   302.91
  10      1.42903055    -1.06090679  -287.99226649    -0.00000001    -0.00000018  0.57D-10  0.15D-10  6  3   335.46
  11      1.42903050    -1.06090681  -287.99226651    -0.00000002     0.00000013  0.14D-10  0.37D-11  6  5   368.01
  12      1.42903046    -1.06090681  -287.99226651    -0.00000000     0.00000003  0.15D-11  0.10D-11  6  6   400.54
  13      1.42903028    -1.06090681  -287.99226651    -0.00000000     0.00000006  0.69D-13  0.20D-12  6  2   433.12
  14      1.42903018    -1.06090681  -287.99226652    -0.00000000     0.00000002  0.81D-14  0.40D-13  6  1   465.70
  15      1.42903012    -1.06090682  -287.99226652    -0.00000000     0.00000001  0.89D-15  0.54D-14  6  3   498.24
  16      1.42903010    -1.06090682  -287.99226652    -0.00000000     0.00000000  0.12D-15  0.37D-15  6  4   530.78
  17      1.42903010    -1.06090682  -287.99226652    -0.00000000     0.00000000  0.31D-16  0.44D-16  6  5   563.33
  18      1.42903010    -1.06090682  -287.99226652    -0.00000000     0.00000000  0.82D-17  0.70D-17  6  6   595.89
  19      1.42903010    -1.06090682  -287.99226652    -0.00000000     0.00000000  0.24D-17  0.77D-18  6  2   628.47
  20      1.42903010    -1.06090682  -287.99226652    -0.00000000     0.00000000  0.78D-18  0.19D-18  6  1   661.07
  21      1.42903010    -1.06090682  -287.99226652    -0.00000000     0.00000000  0.28D-18  0.74D-19  6  3   693.63
  22      1.42903010    -1.06090682  -287.99226652    -0.00000000     0.00000000  0.12D-18  0.37D-19  6  4   726.19
  23      1.42903010    -1.06090682  -287.99226652    -0.00000000     0.00000000  0.51D-19  0.20D-19  6  6   758.76

 Norm of t1 vector:      0.08385646      S-energy:    -0.00000000      T1 diagnostic:  0.00961900
                                                                       D1 diagnostic:  0.02619534

 Doubles amplitudes (print threshold =  0.500E-01):

         I         J         SYM. A    SYM. B    A         B      T(IJ, AB)

        18        18         1         1         6         6     -0.05118734
        19        19         1         1         7         7     -0.05457794


 Total CPU time for triples:    639.28 sec


 RESULTS
 =======

  Reference energy                   -286.931359700131
  CCSD singlet pair energy             -0.711155759415
  CCSD triplet pair energy             -0.349751056198
  CCSD correlation energy              -1.060906815613

  Triples (T) contribution             -0.045602643455
  Total correlation energy             -1.106509459068

  CCSD total energy                  -287.992266515744
  CCSD[T] energy                     -288.038739366458
  CCSD-T energy                      -288.037480616965
 !CCSD(T) total energy               -288.037869159199

 Timing summary (sec):

 STEP                 CPU(USER)    SYS     CPU(TOT)    WALL
 Transformation         10.65      0.75     11.40     11.40
 CCSD iterations       748.13     11.61    759.74    760.14
 Triples               639.28     10.49    649.77    649.87

 Program statistics:

 Available memory in ccsd:               999998456
 Min. memory needed in ccsd:              14392275
 Max. memory used in ccsd:                19775697
 Max. memory used in cckext:              16737545 (23 integral passes)



 **********************************************************************************************************************************
 DATASETS  * FILE   NREC   LENGTH (MB)   RECORD NAMES
              1      20     2287.20       500      610      700      900      950      970     1000      129      960     1100   
                                          VAR    BASINP    GEOM    SYMINP    ZMAT    AOBASIS   BASIS     P2S    ABASIS      S 
                                         1400     1410     1200     1210     1080     1600     1650     1300     1700     1380   
                                           T        V       H0       H01     AOSYM     SMH    MOLCAS    ERIS     OPER     JKOP   

              2       3        1.40       700     1000     2100   
                                         GEOM     BASIS     RHF  

 PROGRAMS   *        TOTAL   CCSD(T)       RHF       INT
 CPU TIMES  *      1446.15   1398.07     35.84     12.20
 REAL TIME  *      1476.91 SEC
 DISK USED  *         6.38 GB      
 GA USED    *         0.01 MB       (max)       0.00 MB       (current)
 **********************************************************************************************************************************

        CCSD(T)         RHF-SCF 
   -288.03786916   -286.93135970
 **********************************************************************************************************************************
 Variable memory released
