
 Primary working directories    : /tmp/985636.1401.gen4.q
 Secondary working directories  : /tmp/985636.1401.gen4.q
 Wavefunction directory         : /home/vulcan/jj04645/wfu/
 Main file repository           : /tmp/985636.1401.gen4.q/

 ARCHNAME  : Linux/x86_64
 FC        : /opt/intel/compilers_and_libraries_2016.1.150/linux/bin/intel64/ifort
 FCVERSION : 16.0.1
 BLASLIB   : -mkl
 id        : ccgc

 Nodes     nprocs
 n049         1
 ga_uses_ma=false, calling ma_init with nominal heap.
 GA-space will be limited to   8.0 MW (determined by -G option)

 Using customized tuning parameters: mindgm=10; mindgv=16; mindgc=4; mindgr=1; noblas=0; mincuda=1000; minvec=7
 default implementation of scratch files=df  

 ***,Optimization of tetrahydrothiopyran
 memory,1000,m
 gthresh,energy=1.0d-12,orbital=1.0d-10,oneint=1.0d-16,twoint=1.0d-16,optgrad=1.0d-6,compress=1.0d-13
 geomtyp=xyz
 
 bohr
 geometry = {
  S    0.3527878255    2.6993969784   -0.0036602962
  C   -0.3301152994   -3.3656598658    0.0007011884
  C   -0.6618241536    0.6667624766   -2.5836737270
  C   -0.6634553960    0.6706584652    2.5787764522
  C    0.4726898117   -1.9838039105   -2.4139914879
  C    0.4711643156   -1.9801604848    2.4138122717
  H   -2.7284180608    0.5760903214   -2.5843085273
  H   -2.7293373701    0.5652309537    2.5857714042
  H   -0.0723897228    1.6278952630   -4.3106441103
  H   -0.0744082473    1.6197336877    4.3125340952
  H    2.5347569845   -1.8388226066   -2.4803475670
  H    2.5331892114   -1.8350782335    2.4812526314
  H   -0.1267579892   -3.0779244248   -4.0650356685
  H   -0.1293273740   -3.0717879583    4.0661268428
  H    0.4652609775   -5.2724420066   -0.0092869571
  H   -2.3925505298   -3.5799100718    0.0119734554
 }
 
 basis=VDZ
 {rhf;maxit,200}
 {ccsd(t);maxit,200}

 Variables initialized (661), CPU time= 0.00 sec
 Commands  initialized (458), CPU time= 0.00 sec, 486 directives.
 Default parameters read. Elapsed time= 0.05 sec

 Checking input...
 Passed
1


                                         ***  PROGRAM SYSTEM MOLPRO  ***
                         Copyright, University College Cardiff Consultants Limited, 2008

                                    Version 2010.1 linked May 16 2016 07:17:05


 **********************************************************************************************************************************
 LABEL *   Optimization of tetrahydrothiopyran                                           
 Linux-4.4.3/n049(x86_64) 64 bit mpp version                                             DATE: 26-Jan-24          TIME: 17:45:00  
 **********************************************************************************************************************************

 SHA1:             9e8077add272b0f3cad6f7df79ec5211205f459d
 **********************************************************************************************************************************

 THRESHOLDS:

 ZERO    =  1.00D-12  ONEINT  =  1.00D-16  TWOINT  =  1.00D-16  PREFAC  =  1.00D-14  LOCALI  =  1.00D-09  EORDER  =  1.00D-04
 ENERGY  =  1.00D-12  ETEST   =  0.00D+00  EDENS   =  0.00D+00  THRDEDEF=  1.00D-06  GRADIENT=  1.00D-02  STEP    =  1.00D-03
 ORBITAL =  1.00D-10  CIVEC   =  1.00D-05  COEFF   =  1.00D-04  PRINTCI =  5.00D-02  PUNCHCI =  9.90D+01  OPTGRAD =  1.00D-06
 OPTENERG=  1.00D-06  OPTSTEP =  3.00D-04  THRGRAD =  1.00D-10  COMPRESS=  1.00D-13  VARMIN  =  1.00D-07  VARMAX  =  1.00D-03
 THRDOUB =  0.00D+00  THRDIV  =  1.00D-05  THRRED  =  1.00D-07  THRPSP  =  1.00D+00  THRDC   =  1.00D-10  THRCS   =  1.00D-10
 THRNRM  =  1.00D-08  THREQ   =  0.00D+00  THRDE   =  1.00D+00  THRREF  =  1.00D-05  SPARFAC =  1.00D+00  THRDLP  =  1.00D-07
 THRDIA  =  1.00D-10  THRDLS  =  1.00D-07  THRGPS  =  0.00D+00  THRKEX  =  0.00D+00  THRDIS  =  2.00D-01  THRVAR  =  1.00D-10
 THRLOC  =  1.00D-06  THRGAP  =  1.00D-06  THRLOCT = -1.00D+00  THRGAPT = -1.00D+00  THRORB  =  1.00D-06  THRMLTP =  0.00D+00
 THRCPQCI=  1.00D-10  KEXTA   =  0.00D+00  THRCOARS=  0.00D+00  SYMTOL  =  1.00D-06  GRADTOL =  1.00D-06  THROVL  =  1.00D-08
 THRORTH =  1.00D-08  GRID    =  1.00D-06  GRIDMAX =  1.00D-03  DTMAX   =  0.00D+00

 SETTING GEOMTYP        =    XYZ
 ZUNIT=BOHR
 

 Variable memory set to 1000000000 words,  buffer space   230000 words

 SETTING BASIS          =    VDZ


 Recomputing integrals since basis changed


 Using spherical harmonics

 Library entry S      S cc-pVDZ              selected for orbital group  1
 Library entry S      P cc-pVDZ              selected for orbital group  1
 Library entry S      D cc-pVDZ              selected for orbital group  1
 Library entry C      S cc-pVDZ              selected for orbital group  2
 Library entry C      P cc-pVDZ              selected for orbital group  2
 Library entry C      D cc-pVDZ              selected for orbital group  2
 Library entry H      S cc-pVDZ              selected for orbital group  3
 Library entry H      P cc-pVDZ              selected for orbital group  3

1PROGRAM * SEWARD (Integral evaluation for generally contracted gaussian basis sets)     Author: Roland Lindh, 1990

 Geometry written to block  1 of record 700


 Point group  C1  



 ATOMIC COORDINATES

 NR  ATOM    CHARGE       X              Y              Z

   1  S      16.00    0.352787825    2.699396978   -0.003660296
   2  C       6.00   -0.330115299   -3.365659866    0.000701188
   3  C       6.00   -0.661824154    0.666762477   -2.583673727
   4  C       6.00   -0.663455396    0.670658465    2.578776452
   5  C       6.00    0.472689812   -1.983803911   -2.413991488
   6  C       6.00    0.471164316   -1.980160485    2.413812272
   7  H       1.00   -2.728418061    0.576090321   -2.584308527
   8  H       1.00   -2.729337370    0.565230954    2.585771404
   9  H       1.00   -0.072389723    1.627895263   -4.310644110
  10  H       1.00   -0.074408247    1.619733688    4.312534095
  11  H       1.00    2.534756984   -1.838822607   -2.480347567
  12  H       1.00    2.533189211   -1.835078233    2.481252631
  13  H       1.00   -0.126757989   -3.077924425   -4.065035669
  14  H       1.00   -0.129327374   -3.071787958    4.066126843
  15  H       1.00    0.465260978   -5.272442007   -0.009286957
  16  H       1.00   -2.392550530   -3.579910072    0.011973455

 Bond lengths in Bohr (Angstrom)

  1- 3  3.437660511   1- 4  3.437660513   2- 5  2.895645463   2- 6  2.895645465   2-15  2.066044849
       ( 1.819131595)       ( 1.819131596)       ( 1.532309584)       ( 1.532309585)       ( 1.093303847)

  2-16  2.073564394   3- 5  2.888150995   3- 7  2.068582176   3- 9  2.062434456   4- 6  2.888150996
       ( 1.097283018)       ( 1.528343683)       ( 1.094646543)       ( 1.091393309)       ( 1.528343683)

  4- 8  2.068582176   4-10  2.062434456   5-11  2.068222361   5-13  2.069392242   6-12  2.068222361
       ( 1.094646543)       ( 1.091393309)       ( 1.094456136)       ( 1.095075211)       ( 1.094456136)

  6-14  2.069392242
       ( 1.095075211)

 Bond angles

  1-3-5  112.49558369   1-3-7  108.72404397   1-3-9  105.57734683   1-4-6  112.49558723

  1- 4- 8  109.13849124   1- 4-10  105.99179409   2- 5- 3  112.21281758   2- 5-11  109.67156714

  2- 5-13  109.43267491   2- 6- 4  112.21281360   2- 6-12  109.67156796   2- 6-14  109.43267573

  3- 1- 4   97.33107798   3- 5-11  108.99161269   3- 5-13  108.93892927   4- 6-12  108.99161352

  4- 6-14  108.93893010   5- 2- 6  112.94731822   5- 2-15  109.24860536   5- 2-16  109.24445680

  5- 3- 7  110.62377010   5- 3- 9  111.38375769   6- 2-15  109.82156315   6- 2-16  108.67149901

  6- 4- 8  110.22793277   6- 4-10  110.98792032   7- 3- 9  107.79972905   8- 4-10  107.80903395

 11- 5-13  107.47420311  12- 6-14  107.47420400  15- 2-16  106.71286842

 NUCLEAR CHARGE:                   56
 NUMBER OF PRIMITIVE AOS:         247
 NUMBER OF SYMMETRY AOS:          241
 NUMBER OF CONTRACTIONS:          138   ( 138A   )
 NUMBER OF CORE ORBITALS:          10   (  10A   )
 NUMBER OF VALENCE ORBITALS:       34   (  34A   )


 NUCLEAR REPULSION ENERGY  312.12689498


 Eigenvalues of metric

         1 0.286E-02 0.305E-02 0.426E-02 0.634E-02 0.704E-02 0.151E-01 0.157E-01 0.196E-01


 Contracted 2-electron integrals neglected if value below      1.0D-16
 AO integral compression algorithm  1   Integral accuracy      1.0D-16

     374.342 MB (compressed) written to integral file ( 94.2%)

     Node minimum: 374.342 MB, node maximum: 374.342 MB


 NUMBER OF SORTED TWO-ELECTRON INTEGRALS:   45998436.     BUFFER LENGTH:  32768
 NUMBER OF SEGMENTS:   3  SEGMENT LENGTH:   15998004      RECORD LENGTH: 524288

 Memory used in sort:      16.56 MW

 SORT1 READ    49669836. AND WROTE    45798054. INTEGRALS IN    132 RECORDS. CPU TIME:     0.50 SEC, REAL TIME:     0.76 SEC
 SORT2 READ    45798054. AND WROTE    45998436. INTEGRALS IN   1428 RECORDS. CPU TIME:     0.36 SEC, REAL TIME:     0.55 SEC

 FILE SIZES:   FILE 1:   349.7 MBYTE,  FILE 4:   553.7 MBYTE,   TOTAL:    903.3 MBYTE

 OPERATOR DM      FOR CENTER  0  COORDINATES:    0.000000    0.000000    0.000000


 **********************************************************************************************************************************
 DATASETS  * FILE   NREC   LENGTH (MB)   RECORD NAMES
              1      19      349.88       500      610      700      900      950      970     1000      129      960     1100   
                                          VAR    BASINP    GEOM    SYMINP    ZMAT    AOBASIS   BASIS     P2S    ABASIS      S 
                                         1400     1410     1200     1210     1080     1600     1650     1300     1700   
                                           T        V       H0       H01     AOSYM     SMH    MOLCAS    ERIS     OPER   

 PROGRAMS   *        TOTAL       INT
 CPU TIMES  *         5.21      5.16
 REAL TIME  *         6.01 SEC
 DISK USED  *         1.28 GB      
 GA USED    *         0.01 MB       (max)       0.00 MB       (current)
 **********************************************************************************************************************************

1PROGRAM * RHF-SCF (CLOSED SHELL)       Authors: W. Meyer, H.-J. Werner


 NUMBER OF ELECTRONS:      28+   28-    SPACE SYMMETRY=1    SPIN SYMMETRY: Singlet 
 CONVERGENCE THRESHOLDS:    1.00E-10 (Density)    1.00E-13 (Energy)
 MAX. NUMBER OF ITERATIONS:      200
 INTERPOLATION TYPE:            DIIS
 INTERPOLATION STEPS:              2 (START)      1 (STEP)
 LEVEL SHIFTS:                  0.00 (CLOSED)  0.00 (OPEN) 



 Orbital guess generated from atomic densities. Full valence occupancy:   44

 Molecular orbital dump at record        2100.2

 ITERATION    DDIFF          GRAD             ENERGY        2-EL.EN.            DIPOLE MOMENTS         DIIS
    1      0.000D+00      0.000D+00      -592.64387252   1056.822202   -0.40815   -0.80494   -0.00101    0
    2      0.000D+00      0.396D-02      -592.70490371   1054.236237   -0.20799   -0.73937   -0.00089    1
    3      0.778D-02      0.132D-02      -592.71084139   1055.671857   -0.28041   -0.67689   -0.00143    2
    4      0.269D-02      0.540D-03      -592.71185102   1055.053286   -0.25318   -0.70993   -0.00137    3
    5      0.931D-03      0.774D-04      -592.71187676   1055.116342   -0.24926   -0.70145   -0.00140    4
    6      0.181D-03      0.267D-04      -592.71187929   1055.085446   -0.25099   -0.70174   -0.00142    5
    7      0.504D-04      0.620D-05      -592.71187950   1055.088602   -0.25032   -0.70162   -0.00142    6
    8      0.164D-04      0.174D-05      -592.71187952   1055.087742   -0.25031   -0.70148   -0.00143    7
    9      0.539D-05      0.453D-06      -592.71187952   1055.087624   -0.25029   -0.70144   -0.00143    7
   10      0.127D-05      0.162D-06      -592.71187952   1055.087662   -0.25028   -0.70144   -0.00143    7
   11      0.480D-06      0.344D-07      -592.71187952   1055.087648   -0.25028   -0.70144   -0.00143    7
   12      0.114D-06      0.691D-08      -592.71187952   1055.087653   -0.25028   -0.70144   -0.00143    7
   13      0.183D-07      0.289D-08      -592.71187952   1055.087651   -0.25028   -0.70144   -0.00143    7
   14      0.635D-08      0.855D-09      -592.71187952   1055.087652   -0.25028   -0.70144   -0.00143    7
   15      0.228D-08      0.280D-09      -592.71187952   1055.087651   -0.25028   -0.70144   -0.00143    7
   16      0.672D-09      0.897D-10      -592.71187952   1055.087651   -0.25028   -0.70144   -0.00143    8
   17      0.216D-09      0.225D-10      -592.71187952   1055.087651   -0.25028   -0.70144   -0.00143    7
   18      0.600D-10      0.831D-11      -592.71187952   1055.087651   -0.25028   -0.70144   -0.00143    7
   19      0.264D-10      0.307D-11      -592.71187952   1055.087651   -0.25028   -0.70144   -0.00143    8
   20      0.953D-11      0.105D-11      -592.71187952   1055.087651   -0.25028   -0.70144   -0.00143    8
   21      0.367D-11      0.350D-12      -592.71187952   1055.087651   -0.25028   -0.70144   -0.00143    8
   22      0.117D-11      0.118D-12      -592.71187952   1055.087651   -0.25028   -0.70144   -0.00143    8
   23      0.430D-12      0.600D-13      -592.71187952   1055.087651   -0.25028   -0.70144   -0.00143    8
   24      0.223D-12      0.378D-13      -592.71187952   1055.087651   -0.25028   -0.70144   -0.00143    9
   25      0.144D-12      0.455D-13      -592.71187952   1055.087651   -0.25028   -0.70144   -0.00143    9
   26      0.109D-12      0.368D-13      -592.71187952   1055.087651   -0.25028   -0.70144   -0.00143    9
   27      0.741D-13      0.411D-13      -592.71187952   1055.087651   -0.25028   -0.70144   -0.00143    9
   28      0.532D-13      0.231D-13      -592.71187952   1055.087651   -0.25028   -0.70144   -0.00143    0

 Final occupancy:  28

 !RHF STATE 1.1 Energy               -592.711879519030
 Nuclear energy                       312.12689498
 One-electron energy                -1432.38260011
 Two-electron energy                  527.54382562
 Virial quotient                       -1.00019592
 !RHF STATE 1.1 Dipole moment          -0.25028400    -0.70143777    -0.00142732
 Dipole moment /Debye                  -0.63611680    -1.78276021    -0.00362765

 Orbital energies:

         1.1          2.1          3.1          4.1          5.1          6.1          7.1          8.1          9.1         10.1
    -91.929772   -11.255030   -11.254930   -11.231142   -11.230867   -11.229124    -8.933661    -6.615555    -6.614123    -6.611922

        11.1         12.1         13.1         14.1         15.1         16.1         17.1         18.1         19.1         20.1
     -1.119561    -1.019964    -1.006501    -0.842418    -0.835841    -0.755671    -0.646686    -0.614446    -0.609710    -0.578487

        21.1         22.1         23.1         24.1         25.1         26.1         27.1         28.1         29.1         30.1
     -0.547021    -0.523632    -0.497851    -0.495539    -0.472976    -0.434653    -0.411699    -0.328694     0.176918     0.190295


 **********************************************************************************************************************************
 DATASETS  * FILE   NREC   LENGTH (MB)   RECORD NAMES
              1      19      349.88       500      610      700      900      950      970     1000      129      960     1100   
                                          VAR    BASINP    GEOM    SYMINP    ZMAT    AOBASIS   BASIS     P2S    ABASIS      S 
                                         1400     1410     1200     1210     1080     1600     1650     1300     1700   
                                           T        V       H0       H01     AOSYM     SMH    MOLCAS    ERIS     OPER   

              2       3        0.92       700     1000     2100   
                                         GEOM     BASIS     RHF  

 PROGRAMS   *        TOTAL       RHF       INT
 CPU TIMES  *        15.08      9.87      5.16
 REAL TIME  *        16.99 SEC
 DISK USED  *         1.28 GB      
 GA USED    *         0.01 MB       (max)       0.00 MB       (current)
 **********************************************************************************************************************************


1PROGRAM * CCSD (Closed-shell coupled cluster)     Authors: C. Hampel, H.-J. Werner, 1991, M. Deegan, P.J. Knowles, 1992


 Convergence thresholds:  THRVAR = 1.00D-08  THRDEN = 1.00D-12

 CCSD(T)     terms to be evaluated (factor= 1.000)


 Number of core orbitals:          10 (  10 )
 Number of closed-shell orbitals:  18 (  18 )
 Number of external orbitals:     110 ( 110 )

 Molecular orbitals read from record     2100.2  Type=RHF/CANONICAL (state 1.1)

 Number of N-1 electron functions:              18
 Number of N-2 electron functions:             171
 Number of singly external CSFs:              1980
 Number of doubly external CSFs:           1961190
 Total number of CSFs:                     1963171

 Length of J-op  integral file:               0.00 MB
 Length of K-op  integral file:               1.35 MB
 Length of 3-ext integral record:             0.00 MB

 Memory could be reduced to 32.58 Mwords without degradation in triples

 Integral transformation finished. Total CPU:   2.61 sec, npass=  1  Memory used:  30.89 MW

 Reference energy:                   -592.71187952

 MP2 singlet pair energy:              -0.53946082
 MP2 triplet pair energy:              -0.30436199
 MP2 correlation energy:               -0.84382280
 MP2 total energy:                   -593.55570232

 SCS-MP2 correlation energy:           -0.83673377   (PS=  1.200000  PT=  0.333333)
 SCS-MP2 total energy:               -593.54861329

 ITER.      SQ.NORM     CORR.ENERGY   TOTAL ENERGY   ENERGY CHANGE        DEN1      VAR(S)    VAR(P)  DIIS     TIME
   1      1.33970549    -0.91080126  -593.62268078    -0.06697845    -0.04301948  0.26D-02  0.55D-02  1  1    10.61
   2      1.36670197    -0.91614900  -593.62802852    -0.00534774    -0.02577736  0.69D-04  0.46D-03  2  2    18.71
   3      1.37203585    -0.91627689  -593.62815641    -0.00012789    -0.00303805  0.16D-04  0.28D-04  3  3    26.81
   4      1.37352910    -0.91633494  -593.62821446    -0.00005805    -0.00059398  0.76D-06  0.20D-05  4  4    34.92
   5      1.37376978    -0.91634155  -593.62822107    -0.00000661    -0.00007086  0.17D-06  0.16D-06  5  5    43.03
   6      1.37381543    -0.91633710  -593.62821662     0.00000445    -0.00001393  0.30D-07  0.14D-07  6  6    51.15
   7      1.37382301    -0.91633699  -593.62821651     0.00000011     0.00000064  0.53D-08  0.23D-08  6  2    59.26
   8      1.37382909    -0.91633668  -593.62821620     0.00000031    -0.00000125  0.73D-09  0.27D-09  6  1    67.39
   9      1.37382992    -0.91633661  -593.62821613     0.00000006     0.00000051  0.66D-10  0.44D-10  6  4    75.50
  10      1.37383080    -0.91633658  -593.62821610     0.00000003    -0.00000011  0.47D-11  0.35D-11  6  3    83.62
  11      1.37383081    -0.91633658  -593.62821610    -0.00000000     0.00000004  0.12D-11  0.54D-12  6  5    91.75
  12      1.37383078    -0.91633659  -593.62821610    -0.00000000     0.00000002  0.17D-12  0.77D-13  6  6    99.87
  13      1.37383072    -0.91633659  -593.62821611    -0.00000000     0.00000002  0.24D-13  0.11D-13  6  1   107.99
  14      1.37383071    -0.91633659  -593.62821611    -0.00000000     0.00000000  0.31D-14  0.12D-14  6  2   116.11
  15      1.37383071    -0.91633659  -593.62821611     0.00000000    -0.00000000  0.67D-15  0.31D-15  6  4   124.23
  16      1.37383072    -0.91633659  -593.62821611     0.00000000    -0.00000000  0.32D-16  0.23D-16  6  5   132.36
  17      1.37383072    -0.91633659  -593.62821611     0.00000000    -0.00000000  0.57D-17  0.24D-17  6  3   140.47
  18      1.37383072    -0.91633659  -593.62821611     0.00000000    -0.00000000  0.18D-17  0.49D-18  6  6   148.59
  19      1.37383072    -0.91633659  -593.62821611     0.00000000    -0.00000000  0.37D-18  0.12D-18  6  1   156.72
  20      1.37383072    -0.91633659  -593.62821611     0.00000000     0.00000000  0.46D-19  0.17D-19  6  2   164.83
  21      1.37383072    -0.91633659  -593.62821611    -0.00000000     0.00000000  0.82D-20  0.35D-20  6  4   172.94

 Norm of t1 vector:      0.07014843      S-energy:    -0.00000000      T1 diagnostic:  0.00826707
                                                                       D1 diagnostic:  0.02108296


 Total CPU time for triples:    123.36 sec


 RESULTS
 =======

  Reference energy                   -592.711879519031
  CCSD singlet pair energy             -0.634217808813
  CCSD triplet pair energy             -0.282118778669
  CCSD correlation energy              -0.916336587482

  Triples (T) contribution             -0.029867650827
  Total correlation energy             -0.946204238309

  CCSD total energy                  -593.628216106513
  CCSD[T] energy                     -593.658703183666
  CCSD-T energy                      -593.657772534791
 !CCSD(T) total energy               -593.658083757340

 Timing summary (sec):

 STEP                 CPU(USER)    SYS     CPU(TOT)    WALL
 Transformation          2.72      0.26      2.98      2.98
 CCSD iterations       170.23      2.97    173.20    173.51
 Triples               123.36      2.26    125.62    125.64

 Program statistics:

 Available memory in ccsd:               999998604
 Min. memory needed in ccsd:               5123362
 Max. memory used in ccsd:                 6867976
 Max. memory used in cckext:               6836871 (21 integral passes)



 **********************************************************************************************************************************
 DATASETS  * FILE   NREC   LENGTH (MB)   RECORD NAMES
              1      20      486.26       500      610      700      900      950      970     1000      129      960     1100   
                                          VAR    BASINP    GEOM    SYMINP    ZMAT    AOBASIS   BASIS     P2S    ABASIS      S 
                                         1400     1410     1200     1210     1080     1600     1650     1300     1700     1380   
                                           T        V       H0       H01     AOSYM     SMH    MOLCAS    ERIS     OPER     JKOP   

              2       3        0.92       700     1000     2100   
                                         GEOM     BASIS     RHF  

 PROGRAMS   *        TOTAL   CCSD(T)       RHF       INT
 CPU TIMES  *       311.41    296.33      9.87      5.16
 REAL TIME  *       319.18 SEC
 DISK USED  *         1.28 GB      
 GA USED    *         0.01 MB       (max)       0.00 MB       (current)
 **********************************************************************************************************************************

        CCSD(T)         RHF-SCF 
   -593.65808376   -592.71187952
 **********************************************************************************************************************************
 Variable memory released
