
 Primary working directories    : /tmp/985636.142.gen6.q
 Secondary working directories  : /tmp/985636.142.gen6.q
 Wavefunction directory         : /home/vulcan/jj04645/wfu/
 Main file repository           : /tmp/985636.142.gen6.q/

 ARCHNAME  : Linux/x86_64
 FC        : /opt/intel/compilers_and_libraries_2016.1.150/linux/bin/intel64/ifort
 FCVERSION : 16.0.1
 BLASLIB   : -mkl
 id        : ccgc

 Nodes     nprocs
 n087         1
 ga_uses_ma=false, calling ma_init with nominal heap.
 GA-space will be limited to   8.0 MW (determined by -G option)

 Using customized tuning parameters: mindgm=10; mindgv=16; mindgc=4; mindgr=1; noblas=0; mincuda=1000; minvec=7
 default implementation of scratch files=df  

 ***,Optimization of tetrahydrothiopyran
 memory,1000,m
 gthresh,energy=1.0d-12,orbital=1.0d-10,oneint=1.0d-16,twoint=1.0d-16,optgrad=1.0d-6,compress=1.0d-13
 geomtyp=xyz
 
 bohr
 geometry = {
  S    0.3542520020    2.6992109133    0.0034469479
  C   -0.3309058591   -3.3655929751    0.0024362546
  C   -0.6615553773    0.6668751714   -2.5817690252
  C   -0.6623025477    0.6709303744    2.5806844212
  C    0.4716977846   -1.9799715489   -2.4150630344
  C    0.4716014557   -1.9844550499    2.4127425680
  H   -2.7274170304    0.5611139040   -2.5896687232
  H   -2.7282687712    0.5671522294    2.5874579294
  H   -0.0727204763    1.6299118081   -4.3078830950
  H   -0.0734988673    1.6323826316    4.3076921422
  H    2.5337180988   -1.8347742191   -2.4823957300
  H    2.5337805349   -1.8411241323    2.4792062909
  H   -0.1285677399   -3.0728706690   -4.0666189874
  H   -0.1288853961   -3.0768577175    4.0645464923
  H    0.4637893523   -5.2726851320    0.0018494103
  H   -2.3934521795   -3.5790670052    0.0033361383
 }
 
 basis=VDZ
 {rhf;maxit,200}
 {ccsd(t);maxit,200}

 Variables initialized (661), CPU time= 0.00 sec
 Commands  initialized (458), CPU time= 0.00 sec, 486 directives.
 Default parameters read. Elapsed time= 0.04 sec

 Checking input...
 Passed
1


                                         ***  PROGRAM SYSTEM MOLPRO  ***
                         Copyright, University College Cardiff Consultants Limited, 2008

                                    Version 2010.1 linked May 16 2016 07:17:05


 **********************************************************************************************************************************
 LABEL *   Optimization of tetrahydrothiopyran                                           
 Linux-4.4.3/n087(x86_64) 64 bit mpp version                                             DATE: 26-Jan-24          TIME: 10:55:14  
 **********************************************************************************************************************************

 SHA1:             9e8077add272b0f3cad6f7df79ec5211205f459d
 **********************************************************************************************************************************

 THRESHOLDS:

 ZERO    =  1.00D-12  ONEINT  =  1.00D-16  TWOINT  =  1.00D-16  PREFAC  =  1.00D-14  LOCALI  =  1.00D-09  EORDER  =  1.00D-04
 ENERGY  =  1.00D-12  ETEST   =  0.00D+00  EDENS   =  0.00D+00  THRDEDEF=  1.00D-06  GRADIENT=  1.00D-02  STEP    =  1.00D-03
 ORBITAL =  1.00D-10  CIVEC   =  1.00D-05  COEFF   =  1.00D-04  PRINTCI =  5.00D-02  PUNCHCI =  9.90D+01  OPTGRAD =  1.00D-06
 OPTENERG=  1.00D-06  OPTSTEP =  3.00D-04  THRGRAD =  1.00D-10  COMPRESS=  1.00D-13  VARMIN  =  1.00D-07  VARMAX  =  1.00D-03
 THRDOUB =  0.00D+00  THRDIV  =  1.00D-05  THRRED  =  1.00D-07  THRPSP  =  1.00D+00  THRDC   =  1.00D-10  THRCS   =  1.00D-10
 THRNRM  =  1.00D-08  THREQ   =  0.00D+00  THRDE   =  1.00D+00  THRREF  =  1.00D-05  SPARFAC =  1.00D+00  THRDLP  =  1.00D-07
 THRDIA  =  1.00D-10  THRDLS  =  1.00D-07  THRGPS  =  0.00D+00  THRKEX  =  0.00D+00  THRDIS  =  2.00D-01  THRVAR  =  1.00D-10
 THRLOC  =  1.00D-06  THRGAP  =  1.00D-06  THRLOCT = -1.00D+00  THRGAPT = -1.00D+00  THRORB  =  1.00D-06  THRMLTP =  0.00D+00
 THRCPQCI=  1.00D-10  KEXTA   =  0.00D+00  THRCOARS=  0.00D+00  SYMTOL  =  1.00D-06  GRADTOL =  1.00D-06  THROVL  =  1.00D-08
 THRORTH =  1.00D-08  GRID    =  1.00D-06  GRIDMAX =  1.00D-03  DTMAX   =  0.00D+00

 SETTING GEOMTYP        =    XYZ
 ZUNIT=BOHR
 

 Variable memory set to 1000000000 words,  buffer space   230000 words

 SETTING BASIS          =    VDZ


 Recomputing integrals since basis changed


 Using spherical harmonics

 Library entry S      S cc-pVDZ              selected for orbital group  1
 Library entry S      P cc-pVDZ              selected for orbital group  1
 Library entry S      D cc-pVDZ              selected for orbital group  1
 Library entry C      S cc-pVDZ              selected for orbital group  2
 Library entry C      P cc-pVDZ              selected for orbital group  2
 Library entry C      D cc-pVDZ              selected for orbital group  2
 Library entry H      S cc-pVDZ              selected for orbital group  3
 Library entry H      P cc-pVDZ              selected for orbital group  3

1PROGRAM * SEWARD (Integral evaluation for generally contracted gaussian basis sets)     Author: Roland Lindh, 1990

 Geometry written to block  1 of record 700


 Point group  C1  



 ATOMIC COORDINATES

 NR  ATOM    CHARGE       X              Y              Z

   1  S      16.00    0.354252002    2.699210913    0.003446948
   2  C       6.00   -0.330905859   -3.365592975    0.002436255
   3  C       6.00   -0.661555377    0.666875171   -2.581769025
   4  C       6.00   -0.662302548    0.670930374    2.580684421
   5  C       6.00    0.471697785   -1.979971549   -2.415063034
   6  C       6.00    0.471601456   -1.984455050    2.412742568
   7  H       1.00   -2.727417030    0.561113904   -2.589668723
   8  H       1.00   -2.728268771    0.567152229    2.587457929
   9  H       1.00   -0.072720476    1.629911808   -4.307883095
  10  H       1.00   -0.073498867    1.632382632    4.307692142
  11  H       1.00    2.533718099   -1.834774219   -2.482395730
  12  H       1.00    2.533780535   -1.841124132    2.479206291
  13  H       1.00   -0.128567740   -3.072870669   -4.066618987
  14  H       1.00   -0.128885396   -3.076857717    4.064546492
  15  H       1.00    0.463789352   -5.272685132    0.001849410
  16  H       1.00   -2.393452180   -3.579067005    0.003336138

 Bond lengths in Bohr (Angstrom)

  1- 3  3.441742993   1- 4  3.433578030   2- 5  2.899727946   2- 6  2.891562983   2-15  2.066044849
       ( 1.821291951)       ( 1.816971239)       ( 1.534469941)       ( 1.530149229)       ( 1.093303847)

  2-16  2.073564394   3- 5  2.884068511   3- 7  2.068582176   3- 9  2.062434456   4- 6  2.892233481
       ( 1.097283019)       ( 1.526183325)       ( 1.094646543)       ( 1.091393309)       ( 1.530504041)

  4- 8  2.068582176   4-10  2.062434456   5-11  2.068222361   5-13  2.069392242   6-12  2.068222361
       ( 1.094646543)       ( 1.091393309)       ( 1.094456136)       ( 1.095075211)       ( 1.094456136)

  6-14  2.069392242
       ( 1.095075211)

 Bond angles

  1-3-5  112.49089326   1-3-7  109.13615903   1-3-9  105.58431955   1-4-6  112.50029559

  1- 4- 8  109.13419431   1- 4-10  105.58235481   2- 5- 3  112.20812659   2- 5-11  109.67255228

  2- 5-13  109.43366005   2- 6- 4  112.21752051   2- 6-12  109.67057943   2- 6-14  109.43168721

  3- 1- 4   97.33108732   3- 5-11  108.99259783   3- 5-13  108.93991440   4- 6-12  108.99062500

  4- 6-14  108.93794158   5- 2- 6  112.94732550   5- 2-15  109.53488018   5- 2-16  108.95777382

  5- 3- 7  110.22560047   5- 3- 9  111.39073040   6- 2-15  109.53488017   6- 2-16  108.95777382

  6- 4- 8  110.22363584   6- 4-10  111.38876572   7- 3- 9  107.80670177   8- 4-10  107.80473701

 11- 5-13  107.47518824  12- 6-14  107.47321548  15- 2-16  106.71266435

 NUCLEAR CHARGE:                   56
 NUMBER OF PRIMITIVE AOS:         247
 NUMBER OF SYMMETRY AOS:          241
 NUMBER OF CONTRACTIONS:          138   ( 138A   )
 NUMBER OF CORE ORBITALS:          10   (  10A   )
 NUMBER OF VALENCE ORBITALS:       34   (  34A   )


 NUCLEAR REPULSION ENERGY  312.12783778


 Eigenvalues of metric

         1 0.285E-02 0.305E-02 0.426E-02 0.634E-02 0.704E-02 0.151E-01 0.157E-01 0.196E-01


 Contracted 2-electron integrals neglected if value below      1.0D-16
 AO integral compression algorithm  1   Integral accuracy      1.0D-16

     374.079 MB (compressed) written to integral file ( 94.1%)

     Node minimum: 374.079 MB, node maximum: 374.079 MB


 NUMBER OF SORTED TWO-ELECTRON INTEGRALS:   45998436.     BUFFER LENGTH:  32768
 NUMBER OF SEGMENTS:   3  SEGMENT LENGTH:   15998004      RECORD LENGTH: 524288

 Memory used in sort:      16.56 MW

 SORT1 READ    49670079. AND WROTE    45796896. INTEGRALS IN    132 RECORDS. CPU TIME:     0.45 SEC, REAL TIME:     0.70 SEC
 SORT2 READ    45796896. AND WROTE    45998436. INTEGRALS IN   1427 RECORDS. CPU TIME:     0.34 SEC, REAL TIME:     0.50 SEC

 FILE SIZES:   FILE 1:   349.4 MBYTE,  FILE 4:   553.7 MBYTE,   TOTAL:    903.1 MBYTE

 OPERATOR DM      FOR CENTER  0  COORDINATES:    0.000000    0.000000    0.000000


 **********************************************************************************************************************************
 DATASETS  * FILE   NREC   LENGTH (MB)   RECORD NAMES
              1      19      349.67       500      610      700      900      950      970     1000      129      960     1100   
                                          VAR    BASINP    GEOM    SYMINP    ZMAT    AOBASIS   BASIS     P2S    ABASIS      S 
                                         1400     1410     1200     1210     1080     1600     1650     1300     1700   
                                           T        V       H0       H01     AOSYM     SMH    MOLCAS    ERIS     OPER   

 PROGRAMS   *        TOTAL       INT
 CPU TIMES  *         4.30      4.26
 REAL TIME  *         5.05 SEC
 DISK USED  *         1.28 GB      
 GA USED    *         0.01 MB       (max)       0.00 MB       (current)
 **********************************************************************************************************************************

1PROGRAM * RHF-SCF (CLOSED SHELL)       Authors: W. Meyer, H.-J. Werner


 NUMBER OF ELECTRONS:      28+   28-    SPACE SYMMETRY=1    SPIN SYMMETRY: Singlet 
 CONVERGENCE THRESHOLDS:    1.00E-10 (Density)    1.00E-13 (Energy)
 MAX. NUMBER OF ITERATIONS:      200
 INTERPOLATION TYPE:            DIIS
 INTERPOLATION STEPS:              2 (START)      1 (STEP)
 LEVEL SHIFTS:                  0.00 (CLOSED)  0.00 (OPEN) 



 Orbital guess generated from atomic densities. Full valence occupancy:   44

 Molecular orbital dump at record        2100.2

 ITERATION    DDIFF          GRAD             ENERGY        2-EL.EN.            DIPOLE MOMENTS         DIIS
    1      0.000D+00      0.000D+00      -592.64386375   1056.822017   -0.40785   -0.80330   -0.00144    0
    2      0.000D+00      0.396D-02      -592.70488317   1054.236200   -0.20786   -0.73851   -0.00142    1
    3      0.777D-02      0.132D-02      -592.71082026   1055.673110   -0.27998   -0.67576   -0.00110    2
    4      0.269D-02      0.540D-03      -592.71183043   1055.053612   -0.25293   -0.70893   -0.00136    3
    5      0.931D-03      0.774D-04      -592.71185622   1055.116757   -0.24896   -0.70046   -0.00128    4
    6      0.181D-03      0.267D-04      -592.71185875   1055.085877   -0.25070   -0.70074   -0.00131    5
    7      0.505D-04      0.620D-05      -592.71185896   1055.088999   -0.25003   -0.70063   -0.00131    6
    8      0.165D-04      0.174D-05      -592.71185898   1055.088141   -0.25002   -0.70049   -0.00131    7
    9      0.540D-05      0.455D-06      -592.71185898   1055.088022   -0.25000   -0.70045   -0.00131    7
   10      0.127D-05      0.162D-06      -592.71185898   1055.088060   -0.24999   -0.70045   -0.00131    7
   11      0.482D-06      0.344D-07      -592.71185898   1055.088046   -0.25000   -0.70045   -0.00131    7
   12      0.114D-06      0.692D-08      -592.71185898   1055.088052   -0.24999   -0.70044   -0.00131    7
   13      0.183D-07      0.290D-08      -592.71185898   1055.088049   -0.24999   -0.70044   -0.00131    7
   14      0.637D-08      0.854D-09      -592.71185898   1055.088050   -0.24999   -0.70044   -0.00131    7
   15      0.228D-08      0.280D-09      -592.71185898   1055.088049   -0.24999   -0.70044   -0.00131    7
   16      0.672D-09      0.889D-10      -592.71185898   1055.088049   -0.24999   -0.70044   -0.00131    8
   17      0.216D-09      0.225D-10      -592.71185898   1055.088049   -0.24999   -0.70044   -0.00131    7
   18      0.611D-10      0.863D-11      -592.71185898   1055.088049   -0.24999   -0.70044   -0.00131    7
   19      0.282D-10      0.330D-11      -592.71185898   1055.088049   -0.24999   -0.70044   -0.00131    8
   20      0.110D-10      0.114D-11      -592.71185898   1055.088049   -0.24999   -0.70044   -0.00131    8
   21      0.415D-11      0.362D-12      -592.71185898   1055.088049   -0.24999   -0.70044   -0.00131    8
   22      0.128D-11      0.113D-12      -592.71185898   1055.088049   -0.24999   -0.70044   -0.00131    8
   23      0.408D-12      0.559D-13      -592.71185898   1055.088049   -0.24999   -0.70044   -0.00131    8
   24      0.240D-12      0.401D-13      -592.71185898   1055.088049   -0.24999   -0.70044   -0.00131    9
   25      0.154D-12      0.434D-13      -592.71185898   1055.088049   -0.24999   -0.70044   -0.00131    9
   26      0.101D-12      0.365D-13      -592.71185898   1055.088049   -0.24999   -0.70044   -0.00131    9
   27      0.755D-13      0.315D-13      -592.71185898   1055.088049   -0.24999   -0.70044   -0.00131    9
   28      0.559D-13      0.320D-13      -592.71185898   1055.088049   -0.24999   -0.70044   -0.00131    0

 Final occupancy:  28

 !RHF STATE 1.1 Energy               -592.711858982265
 Nuclear energy                       312.12783778
 One-electron energy                -1432.38372146
 Two-electron energy                  527.54402470
 Virial quotient                       -1.00019591
 !RHF STATE 1.1 Dipole moment          -0.24999471    -0.70044425    -0.00131042
 Dipole moment /Debye                  -0.63538156    -1.78023510    -0.00333054

 Orbital energies:

         1.1          2.1          3.1          4.1          5.1          6.1          7.1          8.1          9.1         10.1
    -91.929847   -11.255004   -11.254912   -11.231030   -11.230942   -11.229187    -8.933733    -6.615631    -6.614190    -6.611992

        11.1         12.1         13.1         14.1         15.1         16.1         17.1         18.1         19.1         20.1
     -1.119564    -1.019951    -1.006520    -0.842424    -0.835810    -0.755697    -0.646745    -0.614647    -0.609759    -0.578151

        21.1         22.1         23.1         24.1         25.1         26.1         27.1         28.1         29.1         30.1
     -0.547118    -0.523429    -0.497786    -0.495627    -0.472908    -0.434421    -0.412062    -0.328749     0.176963     0.190110


 **********************************************************************************************************************************
 DATASETS  * FILE   NREC   LENGTH (MB)   RECORD NAMES
              1      19      349.67       500      610      700      900      950      970     1000      129      960     1100   
                                          VAR    BASINP    GEOM    SYMINP    ZMAT    AOBASIS   BASIS     P2S    ABASIS      S 
                                         1400     1410     1200     1210     1080     1600     1650     1300     1700   
                                           T        V       H0       H01     AOSYM     SMH    MOLCAS    ERIS     OPER   

              2       3        0.92       700     1000     2100   
                                         GEOM     BASIS     RHF  

 PROGRAMS   *        TOTAL       RHF       INT
 CPU TIMES  *        12.03      7.73      4.26
 REAL TIME  *        13.71 SEC
 DISK USED  *         1.28 GB      
 GA USED    *         0.01 MB       (max)       0.00 MB       (current)
 **********************************************************************************************************************************


1PROGRAM * CCSD (Closed-shell coupled cluster)     Authors: C. Hampel, H.-J. Werner, 1991, M. Deegan, P.J. Knowles, 1992


 Convergence thresholds:  THRVAR = 1.00D-08  THRDEN = 1.00D-12

 CCSD(T)     terms to be evaluated (factor= 1.000)


 Number of core orbitals:          10 (  10 )
 Number of closed-shell orbitals:  18 (  18 )
 Number of external orbitals:     110 ( 110 )

 Molecular orbitals read from record     2100.2  Type=RHF/CANONICAL (state 1.1)

 Number of N-1 electron functions:              18
 Number of N-2 electron functions:             171
 Number of singly external CSFs:              1980
 Number of doubly external CSFs:           1961190
 Total number of CSFs:                     1963171

 Length of J-op  integral file:               0.00 MB
 Length of K-op  integral file:               1.35 MB
 Length of 3-ext integral record:             0.00 MB

 Memory could be reduced to 32.58 Mwords without degradation in triples

 Integral transformation finished. Total CPU:   2.00 sec, npass=  1  Memory used:  30.89 MW

 Reference energy:                   -592.71185898

 MP2 singlet pair energy:              -0.53946972
 MP2 triplet pair energy:              -0.30437411
 MP2 correlation energy:               -0.84384383
 MP2 total energy:                   -593.55570281

 SCS-MP2 correlation energy:           -0.83675200   (PS=  1.200000  PT=  0.333333)
 SCS-MP2 total energy:               -593.54861098

 ITER.      SQ.NORM     CORR.ENERGY   TOTAL ENERGY   ENERGY CHANGE        DEN1      VAR(S)    VAR(P)  DIIS     TIME
   1      1.33971532    -0.91081778  -593.62267676    -0.06697395    -0.04301379  0.26D-02  0.55D-02  1  1     8.93
   2      1.36671245    -0.91616535  -593.62802433    -0.00534757    -0.02577749  0.69D-04  0.46D-03  2  2    15.93
   3      1.37204756    -0.91629318  -593.62815216    -0.00012783    -0.00303873  0.16D-04  0.28D-04  3  3    22.94
   4      1.37354126    -0.91635123  -593.62821021    -0.00005805    -0.00059411  0.76D-06  0.20D-05  4  4    29.96
   5      1.37378207    -0.91635784  -593.62821682    -0.00000661    -0.00007087  0.17D-06  0.16D-06  5  5    36.99
   6      1.37382775    -0.91635339  -593.62821237     0.00000445    -0.00001393  0.30D-07  0.14D-07  6  6    44.02
   7      1.37383534    -0.91635328  -593.62821226     0.00000011     0.00000064  0.53D-08  0.23D-08  6  2    51.03
   8      1.37384143    -0.91635297  -593.62821195     0.00000031    -0.00000125  0.73D-09  0.27D-09  6  1    58.06
   9      1.37384225    -0.91635290  -593.62821188     0.00000006     0.00000051  0.65D-10  0.44D-10  6  4    65.09
  10      1.37384314    -0.91635287  -593.62821185     0.00000003    -0.00000011  0.47D-11  0.35D-11  6  3    72.12
  11      1.37384315    -0.91635287  -593.62821185    -0.00000000     0.00000004  0.11D-11  0.53D-12  6  5    79.13
  12      1.37384311    -0.91635287  -593.62821186    -0.00000000     0.00000002  0.17D-12  0.76D-13  6  6    86.16
  13      1.37384306    -0.91635287  -593.62821186    -0.00000000     0.00000002  0.24D-13  0.10D-13  6  1    93.19
  14      1.37384305    -0.91635288  -593.62821186    -0.00000000     0.00000000  0.31D-14  0.12D-14  6  2   100.21
  15      1.37384305    -0.91635288  -593.62821186     0.00000000    -0.00000000  0.68D-15  0.31D-15  6  4   107.24
  16      1.37384306    -0.91635287  -593.62821186     0.00000000    -0.00000000  0.35D-16  0.23D-16  6  5   114.28
  17      1.37384306    -0.91635287  -593.62821186     0.00000000    -0.00000000  0.70D-17  0.26D-17  6  3   121.31
  18      1.37384306    -0.91635287  -593.62821186     0.00000000    -0.00000000  0.18D-17  0.47D-18  6  5   128.34
  19      1.37384306    -0.91635287  -593.62821186     0.00000000    -0.00000000  0.26D-18  0.78D-19  6  6   135.36
  20      1.37384306    -0.91635287  -593.62821186     0.00000000     0.00000000  0.26D-19  0.81D-20  6  2   142.37
  21      1.37384306    -0.91635287  -593.62821186    -0.00000000     0.00000000  0.76D-20  0.16D-20  6  1   149.41

 Norm of t1 vector:      0.07016074      S-energy:     0.00000000      T1 diagnostic:  0.00826852
                                                                       D1 diagnostic:  0.02107448


 Total CPU time for triples:    100.79 sec


 RESULTS
 =======

  Reference energy                   -592.711858982266
  CCSD singlet pair energy             -0.634225435844
  CCSD triplet pair energy             -0.282127439119
  CCSD correlation energy              -0.916352874964

  Triples (T) contribution             -0.029870686763
  Total correlation energy             -0.946223561726

  CCSD total energy                  -593.628211857230
  CCSD[T] energy                     -593.658702112236
  CCSD-T energy                      -593.657771240762
 !CCSD(T) total energy               -593.658082543992

 Timing summary (sec):

 STEP                 CPU(USER)    SYS     CPU(TOT)    WALL
 Transformation          2.10      0.23      2.33      2.33
 CCSD iterations       147.31      2.72    150.03    150.11
 Triples               100.79      1.93    102.72    102.75

 Program statistics:

 Available memory in ccsd:               999998604
 Min. memory needed in ccsd:               5123362
 Max. memory used in ccsd:                 6867976
 Max. memory used in cckext:               6836871 (21 integral passes)



 **********************************************************************************************************************************
 DATASETS  * FILE   NREC   LENGTH (MB)   RECORD NAMES
              1      20      486.05       500      610      700      900      950      970     1000      129      960     1100   
                                          VAR    BASINP    GEOM    SYMINP    ZMAT    AOBASIS   BASIS     P2S    ABASIS      S 
                                         1400     1410     1200     1210     1080     1600     1650     1300     1700     1380   
                                           T        V       H0       H01     AOSYM     SMH    MOLCAS    ERIS     OPER     JKOP   

              2       3        0.92       700     1000     2100   
                                         GEOM     BASIS     RHF  

 PROGRAMS   *        TOTAL   CCSD(T)       RHF       INT
 CPU TIMES  *       262.25    250.22      7.73      4.26
 REAL TIME  *       268.95 SEC
 DISK USED  *         1.28 GB      
 GA USED    *         0.01 MB       (max)       0.00 MB       (current)
 **********************************************************************************************************************************

        CCSD(T)         RHF-SCF 
   -593.65808254   -592.71185898
 **********************************************************************************************************************************
 Variable memory released
