
 Primary working directories    : /tmp/917057.27.gen4.q
 Secondary working directories  : /tmp/917057.27.gen4.q
 Wavefunction directory         : /home/vulcan/lo21740/wfu/
 Main file repository           : /tmp/917057.27.gen4.q/

 ARCHNAME  : Linux/x86_64
 FC        : /opt/intel/compilers_and_libraries_2016.1.150/linux/bin/intel64/ifort
 FCVERSION : 16.0.1
 BLASLIB   : -mkl
 id        : ccgc

 Nodes     nprocs
 n040         1
 ga_uses_ma=false, calling ma_init with nominal heap.
 GA-space will be limited to   8.0 MW (determined by -G option)

 Using customized tuning parameters: mindgm=10; mindgv=16; mindgc=4; mindgr=1; noblas=0; mincuda=1000; minvec=7
 default implementation of scratch files=df  

 ***,Optimization of h2o_2
 memory,1000,m
 gthresh,energy=1.0d-12,orbital=1.0d-10,oneint=1.0d-16,twoint=1.0d-16,optgrad=1.0d-6,compress=1.0d-13
 geomtyp=xyz
 
 bohr
 geometry = {
  C   -0.0002451837   -3.4213245992    0.0012079359
  H   -0.9694149559   -2.7316768747   -1.6743749406
  H   -0.9694108786   -2.7378315983    1.6793131789
  H    1.9349642302   -2.7303530255    0.0024736660
  H    0.0028666030   -5.4761306466   -0.0025630691
  C    0.0002451855    3.4213291026   -0.0012079416
  H   -0.0028642336    5.4811351648    0.0025585435
  H    0.9717657892    2.7361571252   -1.6833918626
  H    0.9717698508    2.7300097799    1.6784566367
  H   -1.9396764069    2.7286855718   -0.0024721469
 }
 
 basis=AVDZ
 {rhf;maxit,200}
 {ccsd(t);maxit,200}

 Variables initialized (661), CPU time= 0.00 sec
 Commands  initialized (458), CPU time= 0.01 sec, 486 directives.
 Default parameters read. Elapsed time= 0.05 sec

 Checking input...
 Passed
1


                                         ***  PROGRAM SYSTEM MOLPRO  ***
                         Copyright, University College Cardiff Consultants Limited, 2008

                                    Version 2010.1 linked May 16 2016 07:17:05


 **********************************************************************************************************************************
 LABEL *   Optimization of h2o_2                                                         
 Linux-4.4.3/n040(x86_64) 64 bit mpp version                                             DATE: 20-Jul-23          TIME: 13:59:42  
 **********************************************************************************************************************************

 SHA1:             9e8077add272b0f3cad6f7df79ec5211205f459d
 **********************************************************************************************************************************

 THRESHOLDS:

 ZERO    =  1.00D-12  ONEINT  =  1.00D-16  TWOINT  =  1.00D-16  PREFAC  =  1.00D-14  LOCALI  =  1.00D-09  EORDER  =  1.00D-04
 ENERGY  =  1.00D-12  ETEST   =  0.00D+00  EDENS   =  0.00D+00  THRDEDEF=  1.00D-06  GRADIENT=  1.00D-02  STEP    =  1.00D-03
 ORBITAL =  1.00D-10  CIVEC   =  1.00D-05  COEFF   =  1.00D-04  PRINTCI =  5.00D-02  PUNCHCI =  9.90D+01  OPTGRAD =  1.00D-06
 OPTENERG=  1.00D-06  OPTSTEP =  3.00D-04  THRGRAD =  1.00D-10  COMPRESS=  1.00D-13  VARMIN  =  1.00D-07  VARMAX  =  1.00D-03
 THRDOUB =  0.00D+00  THRDIV  =  1.00D-05  THRRED  =  1.00D-07  THRPSP  =  1.00D+00  THRDC   =  1.00D-10  THRCS   =  1.00D-10
 THRNRM  =  1.00D-08  THREQ   =  0.00D+00  THRDE   =  1.00D+00  THRREF  =  1.00D-05  SPARFAC =  1.00D+00  THRDLP  =  1.00D-07
 THRDIA  =  1.00D-10  THRDLS  =  1.00D-07  THRGPS  =  0.00D+00  THRKEX  =  0.00D+00  THRDIS  =  2.00D-01  THRVAR  =  1.00D-10
 THRLOC  =  1.00D-06  THRGAP  =  1.00D-06  THRLOCT = -1.00D+00  THRGAPT = -1.00D+00  THRORB  =  1.00D-06  THRMLTP =  0.00D+00
 THRCPQCI=  1.00D-10  KEXTA   =  0.00D+00  THRCOARS=  0.00D+00  SYMTOL  =  1.00D-06  GRADTOL =  1.00D-06  THROVL  =  1.00D-08
 THRORTH =  1.00D-08  GRID    =  1.00D-06  GRIDMAX =  1.00D-03  DTMAX   =  0.00D+00

 SETTING GEOMTYP        =    XYZ
 ZUNIT=BOHR
 

 Variable memory set to 1000000000 words,  buffer space   230000 words

 SETTING BASIS          =    AVDZ


 Recomputing integrals since basis changed


 Using spherical harmonics

 Library entry C      S aug-cc-pVDZ          selected for orbital group  1
 Library entry C      P aug-cc-pVDZ          selected for orbital group  1
 Library entry C      D aug-cc-pVDZ          selected for orbital group  1
 Library entry H      S aug-cc-pVDZ          selected for orbital group  2
 Library entry H      P aug-cc-pVDZ          selected for orbital group  2

1PROGRAM * SEWARD (Integral evaluation for generally contracted gaussian basis sets)     Author: Roland Lindh, 1990

 Geometry written to block  1 of record 700


 Point group  C1  



 ATOMIC COORDINATES

 NR  ATOM    CHARGE       X              Y              Z

   1  C       6.00   -0.000245184   -3.421324599    0.001207936
   2  H       1.00   -0.969414956   -2.731676875   -1.674374941
   3  H       1.00   -0.969410879   -2.737831598    1.679313179
   4  H       1.00    1.934964230   -2.730353025    0.002473666
   5  H       1.00    0.002866603   -5.476130647   -0.002563069
   6  C       6.00    0.000245185    3.421329103   -0.001207942
   7  H       1.00   -0.002864234    5.481135165    0.002558544
   8  H       1.00    0.971765789    2.736157125   -1.683391863
   9  H       1.00    0.971769851    2.730009780    1.678456637
  10  H       1.00   -1.939676407    2.728685572   -0.002472147

 Bond lengths in Bohr (Angstrom)

 1-2  2.054867881  1-3  2.054867887  1-4  2.054867099  1-5  2.054811864  6-7  2.059811853
     ( 1.087389250)     ( 1.087389253)     ( 1.087388836)     ( 1.087359607)     ( 1.090005487)

  6- 8  2.059867876   6- 9  2.059867878   6-10  2.059867094
       ( 1.090035133)       ( 1.090035135)       ( 1.090034720)

 Bond angles

  2-1-3  109.37992576   2-1-4  109.37980989   2-1-5  109.56240838   3-1-4  109.37980961

  3-1-5  109.56240830   4-1-5  109.56250037   7-6-8  109.56240831   7-6-9  109.56240827

  7- 6-10  109.56250056   8- 6- 9  109.37992576   8- 6-10  109.37980952   9- 6-10  109.37980988

 NUCLEAR CHARGE:                   20
 NUMBER OF PRIMITIVE AOS:         162
 NUMBER OF SYMMETRY AOS:          158
 NUMBER OF CONTRACTIONS:          118   ( 118A   )
 NUMBER OF CORE ORBITALS:           2   (   2A   )
 NUMBER OF VALENCE ORBITALS:       16   (  16A   )


 NUCLEAR REPULSION ENERGY   41.37686125


 Eigenvalues of metric

         1 0.368E-03 0.569E-03 0.570E-03 0.608E-03 0.725E-03 0.726E-03 0.776E-03 0.101E-02


 Contracted 2-electron integrals neglected if value below      1.0D-16
 AO integral compression algorithm  1   Integral accuracy      1.0D-16

     212.337 MB (compressed) written to integral file ( 92.7%)

     Node minimum: 212.337 MB, node maximum: 212.337 MB


 NUMBER OF SORTED TWO-ELECTRON INTEGRALS:   24650731.     BUFFER LENGTH:  32768
 NUMBER OF SEGMENTS:   2  SEGMENT LENGTH:   15997996      RECORD LENGTH: 524288

 Memory used in sort:      16.56 MW

 SORT1 READ    28594353. AND WROTE    24442446. INTEGRALS IN     71 RECORDS. CPU TIME:     0.29 SEC, REAL TIME:     0.44 SEC
 SORT2 READ    24442446. AND WROTE    24650731. INTEGRALS IN    810 RECORDS. CPU TIME:     0.23 SEC, REAL TIME:     0.36 SEC

 FILE SIZES:   FILE 1:   189.2 MBYTE,  FILE 4:   297.8 MBYTE,   TOTAL:    487.0 MBYTE

 OPERATOR DM      FOR CENTER  0  COORDINATES:    0.000000    0.000000    0.000000


 **********************************************************************************************************************************
 DATASETS  * FILE   NREC   LENGTH (MB)   RECORD NAMES
              1      19      189.38       500      610      700      900      950      970     1000      129      960     1100   
                                          VAR    BASINP    GEOM    SYMINP    ZMAT    AOBASIS   BASIS     P2S    ABASIS      S 
                                         1400     1410     1200     1210     1080     1600     1650     1300     1700   
                                           T        V       H0       H01     AOSYM     SMH    MOLCAS    ERIS     OPER   

 PROGRAMS   *        TOTAL       INT
 CPU TIMES  *         1.79      1.73
 REAL TIME  *         2.31 SEC
 DISK USED  *       700.15 MB      
 GA USED    *         0.00 MB       (max)       0.00 MB       (current)
 **********************************************************************************************************************************

1PROGRAM * RHF-SCF (CLOSED SHELL)       Authors: W. Meyer, H.-J. Werner


 NUMBER OF ELECTRONS:      10+   10-    SPACE SYMMETRY=1    SPIN SYMMETRY: Singlet 
 CONVERGENCE THRESHOLDS:    1.00E-10 (Density)    1.00E-13 (Energy)
 MAX. NUMBER OF ITERATIONS:      200
 INTERPOLATION TYPE:            DIIS
 INTERPOLATION STEPS:              2 (START)      1 (STEP)
 LEVEL SHIFTS:                  0.00 (CLOSED)  0.00 (OPEN) 



 Orbital guess generated from atomic densities. Full valence occupancy:   18

 Molecular orbital dump at record        2100.2

 ITERATION    DDIFF          GRAD             ENERGY        2-EL.EN.            DIPOLE MOMENTS         DIIS
    1      0.000D+00      0.000D+00       -80.36221008    134.863205   -0.00000    0.00009    0.00000    0
    2      0.000D+00      0.369D-02       -80.39421373    132.549645   -0.00000    0.00000    0.00000    1
    3      0.813D-02      0.137D-02       -80.39819985    133.378449   -0.00000    0.00001    0.00000    2
    4      0.257D-02      0.371D-03       -80.39878710    133.248137   -0.00000   -0.00000    0.00000    3
    5      0.869D-03      0.457D-04       -80.39879582    133.255022   -0.00000   -0.00000    0.00000    4
    6      0.877D-04      0.298D-05       -80.39879586    133.254856   -0.00000   -0.00000    0.00000    5
    7      0.107D-04      0.348D-06       -80.39879586    133.254840   -0.00000   -0.00000    0.00000    5
    8      0.164D-05      0.120D-06       -80.39879586    133.254838   -0.00000   -0.00000    0.00000    5
    9      0.364D-06      0.158D-07       -80.39879586    133.254838   -0.00000   -0.00000    0.00000    5
   10      0.110D-06      0.218D-08       -80.39879586    133.254838   -0.00000   -0.00000    0.00000    5
   11      0.602D-08      0.274D-09       -80.39879586    133.254838   -0.00000   -0.00000    0.00000    5
   12      0.104D-08      0.661D-10       -80.39879586    133.254838   -0.00000   -0.00000    0.00000    6
   13      0.398D-09      0.205D-10       -80.39879586    133.254838   -0.00000   -0.00000    0.00000    6
   14      0.682D-10      0.299D-11       -80.39879586    133.254838   -0.00000   -0.00000    0.00000    6
   15      0.867D-11      0.553D-12       -80.39879586    133.254838   -0.00000   -0.00000    0.00000    6
   16      0.322D-11      0.117D-12       -80.39879586    133.254838   -0.00000   -0.00000    0.00000    6
   17      0.160D-11      0.595D-13       -80.39879586    133.254838   -0.00000   -0.00000    0.00000    6
   18      0.112D-11      0.450D-13       -80.39879586    133.254838   -0.00000   -0.00000    0.00000    7
   19      0.573D-12      0.344D-13       -80.39879586    133.254838   -0.00000   -0.00000    0.00000    8
   20      0.393D-12      0.324D-13       -80.39879586    133.254838   -0.00000   -0.00000    0.00000    9
   21      0.243D-12      0.404D-13       -80.39879586    133.254838   -0.00000   -0.00000    0.00000    9
   22      0.540D-13      0.385D-13       -80.39879586    133.254838   -0.00000   -0.00000    0.00000    9
   23      0.173D-12      0.321D-13       -80.39879586    133.254838   -0.00000   -0.00000    0.00000    9
   24      0.142D-12      0.303D-13       -80.39879586    133.254838   -0.00000   -0.00000    0.00000    9
   25      0.130D-12      0.314D-13       -80.39879586    133.254838   -0.00000   -0.00000    0.00000    9
   26      0.948D-13      0.313D-13       -80.39879586    133.254838   -0.00000   -0.00000    0.00000    9
   27      0.173D-12      0.352D-13       -80.39879586    133.254838   -0.00000   -0.00000    0.00000    9
   28      0.191D-12      0.370D-13       -80.39879586    133.254838   -0.00000   -0.00000    0.00000    9
   29      0.159D-12      0.380D-13       -80.39879586    133.254838   -0.00000   -0.00000    0.00000    9
   30      0.165D-12      0.340D-13       -80.39879586    133.254838   -0.00000   -0.00000    0.00000    9
   31      0.234D-12      0.347D-13       -80.39879586    133.254838   -0.00000   -0.00000    0.00000    0

 Final occupancy:  10

 !RHF STATE 1.1 Energy                -80.398795864096
 Nuclear energy                        41.37686125
 One-electron energy                 -188.40307632
 Two-electron energy                   66.62741920
 Virial quotient                       -1.00177282
 !RHF STATE 1.1 Dipole moment          -0.00000001    -0.00000273     0.00000001
 Dipole moment /Debye                  -0.00000002    -0.00000693     0.00000003

 Orbital energies:

         1.1          2.1          3.1          4.1          5.1          6.1          7.1          8.1          9.1         10.1
    -11.214651   -11.213388    -0.946176    -0.940121    -0.551246    -0.546886    -0.546860    -0.539400    -0.539373    -0.536018

        11.1         12.1
      0.035489     0.045876


 **********************************************************************************************************************************
 DATASETS  * FILE   NREC   LENGTH (MB)   RECORD NAMES
              1      19      189.38       500      610      700      900      950      970     1000      129      960     1100   
                                          VAR    BASINP    GEOM    SYMINP    ZMAT    AOBASIS   BASIS     P2S    ABASIS      S 
                                         1400     1410     1200     1210     1080     1600     1650     1300     1700   
                                           T        V       H0       H01     AOSYM     SMH    MOLCAS    ERIS     OPER   

              2       3        0.70       700     1000     2100   
                                         GEOM     BASIS     RHF  

 PROGRAMS   *        TOTAL       RHF       INT
 CPU TIMES  *         7.78      5.99      1.73
 REAL TIME  *         8.97 SEC
 DISK USED  *       700.15 MB      
 GA USED    *         0.00 MB       (max)       0.00 MB       (current)
 **********************************************************************************************************************************


1PROGRAM * CCSD (Closed-shell coupled cluster)     Authors: C. Hampel, H.-J. Werner, 1991, M. Deegan, P.J. Knowles, 1992


 Convergence thresholds:  THRVAR = 1.00D-08  THRDEN = 1.00D-12

 CCSD(T)     terms to be evaluated (factor= 1.000)


 Number of core orbitals:           2 (   2 )
 Number of closed-shell orbitals:   8 (   8 )
 Number of external orbitals:     108 ( 108 )

 Molecular orbitals read from record     2100.2  Type=RHF/CANONICAL (state 1.1)

 Number of N-1 electron functions:               8
 Number of N-2 electron functions:              36
 Number of singly external CSFs:               864
 Number of doubly external CSFs:            373680
 Total number of CSFs:                      374545

 Length of J-op  integral file:               0.00 MB
 Length of K-op  integral file:               1.00 MB
 Length of 3-ext integral record:             0.00 MB

 Memory could be reduced to 14.62 Mwords without degradation in triples

 Integral transformation finished. Total CPU:   0.86 sec, npass=  1  Memory used:   8.61 MW

 Reference energy:                    -80.39879586

 MP2 singlet pair energy:              -0.24094454
 MP2 triplet pair energy:              -0.09675779
 MP2 correlation energy:               -0.33770233
 MP2 total energy:                    -80.73649819

 SCS-MP2 correlation energy:           -0.34933829   (PS=  1.200000  PT=  0.333333)
 SCS-MP2 total energy:                -80.74813416

 ITER.      SQ.NORM     CORR.ENERGY   TOTAL ENERGY   ENERGY CHANGE        DEN1      VAR(S)    VAR(P)  DIIS     TIME
   1      1.14022392    -0.38132454   -80.78012040    -0.04362221    -0.03251116  0.70D-03  0.24D-02  1  1     2.03
   2      1.15322643    -0.38407027   -80.78286613    -0.00274573    -0.01266924  0.16D-04  0.11D-03  2  2     3.24
   3      1.15532500    -0.38420171   -80.78299757    -0.00013144    -0.00112370  0.25D-05  0.71D-05  3  3     4.45
   4      1.15576948    -0.38421974   -80.78301560    -0.00001803    -0.00017585  0.10D-06  0.44D-06  4  4     5.66
   5      1.15584015    -0.38421644   -80.78301230     0.00000330    -0.00003198  0.39D-08  0.30D-07  5  5     6.87
   6      1.15584404    -0.38421543   -80.78301129     0.00000101    -0.00000141  0.28D-09  0.20D-08  6  6     8.09
   7      1.15584444    -0.38421565   -80.78301151    -0.00000022    -0.00000002  0.24D-10  0.13D-09  6  1     9.31
   8      1.15584450    -0.38421566   -80.78301153    -0.00000002    -0.00000007  0.24D-11  0.95D-11  6  2    10.53
   9      1.15584445    -0.38421567   -80.78301153    -0.00000000     0.00000003  0.44D-12  0.74D-12  6  3    11.75
  10      1.15584441    -0.38421567   -80.78301153    -0.00000000     0.00000002  0.34D-13  0.65D-13  6  4    12.96
  11      1.15584438    -0.38421567   -80.78301153    -0.00000000     0.00000002  0.31D-14  0.70D-14  6  5    14.17
  12      1.15584437    -0.38421567   -80.78301153    -0.00000000     0.00000001  0.27D-15  0.84D-15  6  6    15.39
  13      1.15584437    -0.38421567   -80.78301153    -0.00000000     0.00000000  0.22D-16  0.10D-15  6  1    16.59
  14      1.15584437    -0.38421567   -80.78301153    -0.00000000     0.00000000  0.25D-17  0.11D-16  6  3    17.81
  15      1.15584437    -0.38421567   -80.78301153    -0.00000000     0.00000000  0.19D-18  0.59D-18  6  2    19.02
  16      1.15584437    -0.38421567   -80.78301153    -0.00000000     0.00000000  0.26D-19  0.45D-19  6  4    20.23
  17      1.15584437    -0.38421567   -80.78301153    -0.00000000     0.00000000  0.31D-20  0.57D-20  6  5    21.44
  18      1.15584437    -0.38421567   -80.78301153    -0.00000000     0.00000000  0.34D-21  0.48D-21  6  6    22.64

 Norm of t1 vector:      0.03911772      S-energy:     0.00000000      T1 diagnostic:  0.00691510
                                                                       D1 diagnostic:  0.01252297


 Total CPU time for triples:     14.05 sec


 RESULTS
 =======

  Reference energy                    -80.398795864096
  CCSD singlet pair energy             -0.289968639409
  CCSD triplet pair energy             -0.094247029565
  CCSD correlation energy              -0.384215668974

  Triples (T) contribution             -0.009201760577
  Total correlation energy             -0.393417429551

  CCSD total energy                   -80.783011533070
  CCSD[T] energy                      -80.792433165876
  CCSD-T energy                       -80.792096581782
 !CCSD(T) total energy                -80.792213293647

 Timing summary (sec):

 STEP                 CPU(USER)    SYS     CPU(TOT)    WALL
 Transformation          0.88      0.10      0.98      0.98
 CCSD iterations        21.76      0.74     22.50     22.55
 Triples                14.05      0.22     14.27     14.27

 Program statistics:

 Available memory in ccsd:               999999644
 Min. memory needed in ccsd:               1156281
 Max. memory used in ccsd:                 1468601
 Max. memory used in cckext:               1135046 (18 integral passes)



 **********************************************************************************************************************************
 DATASETS  * FILE   NREC   LENGTH (MB)   RECORD NAMES
              1      20      236.35       500      610      700      900      950      970     1000      129      960     1100   
                                          VAR    BASINP    GEOM    SYMINP    ZMAT    AOBASIS   BASIS     P2S    ABASIS      S 
                                         1400     1410     1200     1210     1080     1600     1650     1300     1700     1380   
                                           T        V       H0       H01     AOSYM     SMH    MOLCAS    ERIS     OPER     JKOP   

              2       3        0.70       700     1000     2100   
                                         GEOM     BASIS     RHF  

 PROGRAMS   *        TOTAL   CCSD(T)       RHF       INT
 CPU TIMES  *        44.48     36.70      5.99      1.73
 REAL TIME  *        46.81 SEC
 DISK USED  *       700.15 MB      
 GA USED    *         0.00 MB       (max)       0.00 MB       (current)
 **********************************************************************************************************************************

        CCSD(T)         RHF-SCF 
    -80.79221329    -80.39879586
 **********************************************************************************************************************************
 Variable memory released
