
    -----------------------------------------------------------------------
          Psi4: An Open-Source Ab Initio Electronic Structure Package
                               Psi4 1.4a2.dev629 

                         Git: Rev {master} 2938fc2 dirty


    D. G. A. Smith, L. A. Burns, A. C. Simmonett, R. M. Parrish,
    M. C. Schieber, R. Galvelis, P. Kraus, H. Kruse, R. Di Remigio,
    A. Alenaizan, A. M. James, S. Lehtola, J. P. Misiewicz, M. Scheurer,
    R. A. Shaw, J. B. Schriber, Y. Xie, Z. L. Glick, D. A. Sirianni,
    J. S. O'Brien, J. M. Waldrop, A. Kumar, E. G. Hohenstein,
    B. P. Pritchard, B. R. Brooks, H. F. Schaefer III, A. Yu. Sokolov,
    K. Patkowski, A. E. DePrince III, U. Bozkaya, R. A. King,
    F. A. Evangelista, J. M. Turney, T. D. Crawford, C. D. Sherrill,
    J. Chem. Phys. 152(18) 184108 (2020). https://doi.org/10.1063/5.0006002

                            Additional Code Authors
    E. T. Seidl, C. L. Janssen, E. F. Valeev, M. L. Leininger,
    J. F. Gonthier, R. M. Richard, H. R. McAlexander, M. Saitow, X. Wang,
    P. Verma, and M. H. Lechner

             Previous Authors, Complete List of Code Contributors,
                       and Citations for Specific Modules
    https://github.com/psi4/psi4/blob/master/codemeta.json
    https://github.com/psi4/psi4/graphs/contributors
    http://psicode.org/psi4manual/master/introduction.html#citing-psifour

    -----------------------------------------------------------------------


    Psi4 started on: Friday, 29 October 2021 12:22PM

    Process ID: 1364
    Host:       n080
    PSIDATADIR: /opt/psi/4/master/share/psi4
    Memory:     500.0 MiB
    Threads:    4
    
  ==> Input File <==

--------------------------------------------------------------------------
import os
memory 14 GB 
 
molecule {
 C   -0.0011009242    0.0000000000    0.0000000000
 C   -1.0254021354   -1.0257457488   -2.4000906503
 C    1.0261826971    1.0258389453   -2.3994143938
 C    1.0261826971   -1.0258389453    2.3994143938
 C   -1.0254021354    1.0257457488    2.4000906503
 H   -0.4682287089   -2.9083165118   -2.9661989070
 H   -2.9083220948   -0.4681843425   -2.9661735060
 H    0.4680882554    2.9082374536   -2.9663493491
 H    2.9082324487    0.4681334078   -2.9663742786
 H    0.4680882554   -2.9082374536    2.9663493491
 H    2.9082324487   -0.4681334078    2.9663742786
 H   -0.4682287089    2.9083165118    2.9661989070
 H   -2.9083220948    0.4681843425    2.9661735060
units bohr
}

basis {

assign 6-31g_2dfp_

[ 6-31g_2dfp_ ]

spherical

!----------------------------------------------------------------------
! Basis Set Exchange
! Version v0.8.13
! https://www.basissetexchange.org
!----------------------------------------------------------------------
!   Basis set: 6-31G(2df,p)
! Description: 6-31G(2df,p)
!        Role: orbital
!     Version: 0  (Data from the original Basis Set Exchange)
!----------------------------------------------------------------------


****
H     0
S    3   1.00
     18.7311370              0.03349460
      2.8253937              0.23472695
      0.6401217              0.81375733
S    1   1.00
      0.1612778              1.00000000
P    1   1.00
      1.5000000              1.0000000
P    1   1.00
      0.3750000              1.0000000
****
B     0
S    6   1.00
   2068.8823000              0.0018663
    310.6495700              0.0142515
     70.6830330              0.0695516
     19.8610800              0.2325729
      6.2993048              0.4670787
      2.1270270              0.3634314
SP   3   1.00
      4.7279710             -0.1303938              0.0745976
      1.1903377             -0.1307889              0.3078467
      0.3594117              1.1309444              0.7434568
SP   1   1.00
      0.1267512              1.0000000              1.0000000
D    1   1.00
      0.8020000              1.0000000
D    1   1.00
      0.2005000              1.0000000
F    1   1.00
      0.5000000              1.0000000
****
C     0
S    6   1.00
   3047.5249000              0.0018347
    457.3695100              0.0140373
    103.9486900              0.0688426
     29.2101550              0.2321844
      9.2866630              0.4679413
      3.1639270              0.3623120
SP   3   1.00
      7.8682724             -0.1193324              0.0689991
      1.8812885             -0.1608542              0.3164240
      0.5442493              1.1434564              0.7443083
SP   1   1.00
      0.1687144              1.0000000              1.0000000
D    1   1.00
      1.2520000              1.0000000
D    1   1.00
      0.3130000              1.0000000
F    1   1.00
      0.8000000              1.0000000
****
N     0
S    6   1.00
   4173.5110000              0.0018348
    627.4579000              0.0139950
    142.9021000              0.0685870
     40.2343300              0.2322410
     12.8202100              0.4690700
      4.3904370              0.3604550
SP   3   1.00
     11.6263580             -0.1149610              0.0675800
      2.7162800             -0.1691180              0.3239070
      0.7722180              1.1458520              0.7408950
SP   1   1.00
      0.2120313              1.0000000              1.0000000
D    1   1.00
      1.8260000              1.0000000
D    1   1.00
      0.4565000              1.0000000
F    1   1.00
      1.0000000              1.0000000
****
O     0
S    6   1.00
   5484.6717000              0.0018311
    825.2349500              0.0139501
    188.0469600              0.0684451
     52.9645000              0.2327143
     16.8975700              0.4701930
      5.7996353              0.3585209
SP   3   1.00
     15.5396160             -0.1107775              0.0708743
      3.5999336             -0.1480263              0.3397528
      1.0137618              1.1307670              0.7271586
SP   1   1.00
      0.2700058              1.0000000              1.0000000
D    1   1.00
      2.5840000              1.0000000
D    1   1.00
      0.6460000              1.0000000
F    1   1.00
      1.4000000              1.0000000
****
F     0
S    6   1.00
   7001.7130900              0.0018196169
   1051.3660900              0.0139160796
    239.2856900              0.0684053245
     67.3974453              0.233185760
     21.5199573              0.471267439
      7.40310130             0.356618546
SP   3   1.00
     20.8479528             -0.108506975            0.0716287243
      4.80830834            -0.146451658            0.3459121030
      1.34406986             1.128688580            0.7224699570
SP   1   1.00
      0.358151393            1.0000000              1.0000000
D    1   1.00
      3.5000000              1.0000000
D    1   1.00
      0.8750000              1.0000000
F    1   1.00
      1.8500000              1.0000000
****
Al     0
S    6   1.00
  13983.1000000              0.00194267
   2098.7500000              0.0148599
    477.7050000              0.0728494
    134.3600000              0.2468300
     42.8709000              0.4872580
     14.5189000              0.3234960
SP   6   1.00
    239.6680000             -0.00292619             0.00460285
     57.4419000             -0.0374080              0.0331990
     18.2859000             -0.1144870              0.1362820
      6.5991400              0.1156350              0.3304760
      2.4904900              0.6125950              0.4491460
      0.9445400              0.3937990              0.2657040
SP   3   1.00
      1.2779000             -0.2276060             -0.0175130
      0.3975900              0.00144583             0.2445330
      0.1600950              1.0927900              0.8049340
SP   1   1.00
      0.0556577              1.0000000              1.0000000
D    1   1.00
      0.6500000              1.0000000
D    1   1.00
      0.1625000              1.0000000
F    1   1.00
      0.2500000              1.0000000
****
Si     0
S    6   1.00
  16115.9000000              0.00195948
   2425.5800000              0.01492880
    553.8670000              0.07284780
    156.3400000              0.24613000
     50.0683000              0.48591400
     17.0178000              0.32500200
SP   6   1.00
    292.7180000             -0.00278094             0.00443826
     69.8731000             -0.03571460             0.03266790
     22.3363000             -0.11498500             0.13472100
      8.1503900              0.09356340             0.32867800
      3.1345800              0.60301700             0.44964000
      1.2254300              0.41895900             0.26137200
SP   3   1.00
      1.7273800             -0.24463000            -0.01779510
      0.5729220              0.00431572             0.25353900
      0.2221920              1.09818000             0.80066900
SP   1   1.00
      0.0778369              1.00000000             1.00000000
D    1   1.00
      0.9000000              1.0000000
D    1   1.00
      0.2250000              1.0000000
F    1   1.00
      0.3200000              1.0000000
****
P     0
S    6   1.00
  19413.3000000              0.0018516
   2909.4200000              0.0142062
    661.3640000              0.0699995
    185.7590000              0.2400790
     59.1943000              0.4847620
     20.0310000              0.3352000
SP   6   1.00
    339.4780000             -0.00278217             0.00456462
     81.0101000             -0.0360499              0.03369360
     25.8780000             -0.1166310              0.13975500
      9.4522100              0.0968328              0.33936200
      3.6656600              0.6144180              0.45092100
      1.4674600              0.4037980              0.23858600
SP   3   1.00
      2.1562300             -0.2529230             -0.01776530
      0.7489970              0.0328517              0.27405800
      0.2831450              1.0812500              0.78542100
SP   1   1.00
      0.0998317              1.0000000              1.00000000
D    1   1.00
      1.1000000              1.0000000
D    1   1.00
      0.2750000              1.0000000
F    1   1.00
      0.4500000              1.0000000
****
S     0
S    6   1.00
  21917.1000000              0.0018690
   3301.4900000              0.0142300
    754.1460000              0.0696960
    212.7110000              0.2384870
     67.9896000              0.4833070
     23.0515000              0.3380740
SP   6   1.00
    423.7350000             -0.0023767              0.0040610
    100.7100000             -0.0316930              0.0306810
     32.1599000             -0.1133170              0.1304520
     11.8079000              0.0560900              0.3272050
      4.6311000              0.5922550              0.4528510
      1.8702500              0.4550060              0.2560420
SP   3   1.00
      2.6158400             -0.2503740             -0.0145110
      0.9221670              0.0669570              0.3102630
      0.3412870              1.0545100              0.7544830
SP   1   1.00
      0.1171670              1.0000000              1.0000000
D    1   1.00
      1.3000000              1.0000000
D    1   1.00
      0.3250000              1.0000000
F    1   1.00
      0.5500000              1.0000000
****
Cl     0
S    6   1.00
  25180.1000000              0.0018330
   3780.3500000              0.0140340
    860.4740000              0.0690970
    242.1450000              0.2374520
     77.3349000              0.4830340
     26.2470000              0.3398560
SP   6   1.00
    491.7650000             -0.0022974              0.0039894
    116.9840000             -0.0307140              0.0303180
     37.4153000             -0.1125280              0.1298800
     13.7834000              0.0450160              0.3279510
      5.4521500              0.5893530              0.4535270
      2.2258800              0.4652060              0.2521540
SP   3   1.00
      3.1864900             -0.2518300             -0.0142990
      1.1442700              0.0615890              0.3235720
      0.4203770              1.0601800              0.7435070
SP   1   1.00
      0.1426570              1.0000000              1.0000000
D    1   1.00
      1.5000000              1.0000000
D    1   1.00
      0.3750000              1.0000000
F    1   1.00
      0.7000000              1.0000000
****
}


set {
reference rhf                          
freeze_core true
e_convergence 10                       
d_convergence 10                      
dft_spherical_points 1202
dft_radial_points 99
}

e = energy('b3lyp')

print_out('Grab this energy {0}'.format(e))
--------------------------------------------------------------------------

  Memory set to  13.039 GiB by Python driver.

Scratch directory: /tmp/

*** tstart() called on n080
*** at Fri Oct 29 12:22:48 2021

   => Loading Basis Set <=

    Name: ANONYMOUS0BAE305A
    Role: ORBITAL
    Keyword: BASIS
    atoms 1-5  entry C          line    48 inputblock 6-31g_2dfp_ 
    atoms 6-13 entry H          line    15 inputblock 6-31g_2dfp_ 


         ---------------------------------------------------------
                                   SCF
               by Justin Turney, Rob Parrish, Andy Simmonett
                          and Daniel G. A. Smith
                              RKS Reference
                        4 Threads,  13351 MiB Core
         ---------------------------------------------------------

  ==> Geometry <==

    Molecular point group: c2
    Full point group: C2

    Geometry (in Bohr), charge = 0, multiplicity = 1:

       Center              X                  Y                   Z               Mass       
    ------------   -----------------  -----------------  -----------------  -----------------
         C           -0.000000000000     0.000000000000    -0.001175246810    12.000000000000
         C            1.025745748800     2.400090650300    -1.025476458010    12.000000000000
         C           -1.025838945300     2.399414393800     1.026108374490    12.000000000000
         C            1.025838945300    -2.399414393800     1.026108374490    12.000000000000
         C           -1.025745748800    -2.400090650300    -1.025476458010    12.000000000000
         H            2.908316511800     2.966198907000    -0.468303031510     1.007825032230
         H            0.468184342500     2.966173506000    -2.908396417410     1.007825032230
         H           -2.908237453600     2.966349349100     0.468013932790     1.007825032230
         H           -0.468133407800     2.966374278600     2.908158126090     1.007825032230
         H            2.908237453600    -2.966349349100     0.468013932790     1.007825032230
         H            0.468133407800    -2.966374278600     2.908158126090     1.007825032230
         H           -2.908316511800    -2.966198907000    -0.468303031510     1.007825032230
         H           -0.468184342500    -2.966173506000    -2.908396417410     1.007825032230

  Running in c2 symmetry.

  Rotational constants: A =      0.35209  B =      0.13908  C =      0.13908 [cm^-1]
  Rotational constants: A =  10555.44907  B =   4169.41254  C =   4169.41221 [MHz]
  Nuclear repulsion =  170.312084305254473

  Charge       = 0
  Multiplicity = 1
  Electrons    = 38
  Nalpha       = 19
  Nbeta        = 19

  ==> Algorithm <==

  SCF Algorithm Type is DF.
  DIIS enabled.
  MOM disabled.
  Fractional occupation disabled.
  Guess Type is SAD.
  Energy threshold   = 1.00e-10
  Density threshold  = 1.00e-10
  Integral threshold = 0.00e+00

  ==> Primary Basis <==

  Basis Set: ANONYMOUS0BAE305A
    Blend: 6-31G_2DFP_
    Number of shells: 72
    Number of basis function: 194
    Number of Cartesian functions: 219
    Spherical Harmonics?: true
    Max angular momentum: 3

  ==> DFT Potential <==

   => Composite Functional: B3LYP <= 

    B3LYP Hyb-GGA Exchange-Correlation Functional

    P. J. Stephens, F. J. Devlin, C. F. Chabalowski, and M. J. Frisch, J. Phys. Chem. 98, 11623 (1994)

    Deriv               =              1
    GGA                 =           TRUE
    Meta                =          FALSE

    Exchange Hybrid     =           TRUE
    MP2 Hybrid          =          FALSE

   => Exchange Functionals <=

    0.0800   Slater exchange
    0.7200         Becke 88

   => Exact (HF) Exchange <=

    0.2000               HF 

   => Correlation Functionals <=

    0.1900   Vosko, Wilk & Nusair (VWN5_RPA)
    0.8100   Lee, Yang & Parr

   => Molecular Quadrature <=

    Radial Scheme          =       TREUTLER
    Pruning Scheme         =           NONE
    Nuclear Scheme         =       TREUTLER

    BS radius alpha        =              1
    Pruning alpha          =              1
    Radial Points          =             99
    Spherical Points       =           1202
    Total Points           =        1436706
    Total Blocks           =           9612
    Max Points             =            256
    Max Functions          =            194
    Weights Tolerance      =       1.00E-15

   => Loading Basis Set <=

    Name: (ANONYMOUS0BAE305A AUX)
    Role: JKFIT
    Keyword: DF_BASIS_SCF
    atoms 1-5  entry C          line   198 file /opt/psi/4/master/share/psi4/basis/def2-universal-jkfit.gbs 
    atoms 6-13 entry H          line    18 file /opt/psi/4/master/share/psi4/basis/def2-universal-jkfit.gbs 

  ==> Integral Setup <==

  DFHelper Memory: AOs need 0.155 GiB; user supplied 3.330 GiB. Using in-core AOs.

  ==> MemDFJK: Density-Fitted J/K Matrices <==

    J tasked:                   Yes
    K tasked:                   Yes
    wK tasked:                   No
    OpenMP threads:               4
    Memory [MiB]:              3409
    Algorithm:                 Core
    Schwarz Cutoff:           1E-12
    Mask sparsity (%):       1.0841
    Fitting Condition:        1E-10

   => Auxiliary Basis Set <=

  Basis Set: (ANONYMOUS0BAE305A AUX)
    Blend: DEF2-UNIVERSAL-JKFIT
    Number of shells: 173
    Number of basis function: 519
    Number of Cartesian functions: 605
    Spherical Harmonics?: true
    Max angular momentum: 4

  Cached 100.0% of DFT collocation blocks in 6.449 [GiB].

  Minimum eigenvalue in the overlap matrix is 9.0824110153E-04.
  Reciprocal condition number of the overlap matrix is 1.5056933971E-04.
    Using symmetric orthogonalization.

  ==> Pre-Iterations <==

  SCF Guess: Superposition of Atomic Densities via on-the-fly atomic UHF (no occupation information).

   -------------------------
    Irrep   Nso     Nmo    
   -------------------------
     A         98      98 
     B         96      96 
   -------------------------
    Total     194     194
   -------------------------

  ==> Iterations <==

                           Total Energy        Delta E     RMS |[F,P]|

   @DF-RKS iter SAD:  -194.95727034178131   -1.94957e+02   0.00000e+00 
   @DF-RKS iter   1:  -194.92067139674523    3.65989e-02   5.90402e-03 DIIS
   @DF-RKS iter   2:  -194.74456501933412    1.76106e-01   7.24077e-03 DIIS
   @DF-RKS iter   3:  -195.28355865457971   -5.38994e-01   7.89904e-04 DIIS
   @DF-RKS iter   4:  -195.28812026841092   -4.56161e-03   3.21539e-04 DIIS
   @DF-RKS iter   5:  -195.28902084101597   -9.00573e-04   2.55696e-05 DIIS
   @DF-RKS iter   6:  -195.28902642178249   -5.58077e-06   3.11921e-06 DIIS
   @DF-RKS iter   7:  -195.28902651628442   -9.45019e-08   5.56655e-07 DIIS
   @DF-RKS iter   8:  -195.28902651942531   -3.14088e-09   1.17928e-07 DIIS
   @DF-RKS iter   9:  -195.28902651950008   -7.47775e-11   7.74381e-08 DIIS
   @DF-RKS iter  10:  -195.28902651955642   -5.63318e-11   3.53095e-09 DIIS
   @DF-RKS iter  11:  -195.28902651955687   -4.54747e-13   4.52066e-10 DIIS
   @DF-RKS iter  12:  -195.28902651955696   -8.52651e-14   1.62150e-10 DIIS
   @DF-RKS iter  13:  -195.28902651955684    1.13687e-13   5.33465e-12 DIIS
  Energy and wave function converged.


  ==> Post-Iterations <==

    Orbital Energies [Eh]
    ---------------------

    Doubly Occupied:                                                      

       1A    -10.189292     1B    -10.177766     2A    -10.177743  
       2B    -10.177634     3A    -10.177633     4A     -0.873406  
       3B     -0.789806     5A     -0.599109     4B     -0.599109  
       6A     -0.536295     5B     -0.480797     7A     -0.466126  
       6B     -0.466126     8A     -0.369869     7B     -0.356864  
       9A     -0.342499     8B     -0.282798    10A     -0.282797  
       9B     -0.266321  

    Virtual:                                                              

      10B      0.098099    11A      0.098099    12A      0.104244  
      11B      0.108314    12B      0.143139    13A      0.143139  
      14A      0.192081    13B      0.192926    15A      0.192927  
      16A      0.202765    14B      0.221955    17A      0.265789  
      15B      0.265789    16B      0.302281    18A      0.372324  
      17B      0.431209    19A      0.431214    18B      0.432466  
      20A      0.446597    21A      0.465454    19B      0.465454  
      22A      0.468108    20B      0.494224    21B      0.521737  
      23A      0.521737    24A      0.529702    25A      0.589767  
      22B      0.589767    23B      0.625320    24B      0.627057  
      26A      0.628429    25B      0.628429    27A      0.636495  
      26B      0.647104    28A      0.655882    27B      0.655882  
      29A      0.679960    28B      0.688113    30A      0.809997  
      29B      0.825168    30B      0.832342    31B      0.847845  
      31A      0.847845    32A      0.924159    33A      0.962711  
      32B      1.018010    34A      1.057089    35A      1.069343  
      33B      1.069344    36A      1.108489    34B      1.108489  
      37A      1.154725    35B      1.154726    38A      1.173367  
      36B      1.173367    39A      1.200467    37B      1.200473  
      40A      1.206895    38B      1.237104    41A      1.268873  
      39B      1.329236    42A      1.329256    40B      1.329995  
      43A      1.342373    41B      1.347755    44A      1.389014  
      42B      1.403554    45A      1.407674    43B      1.407674  
      46A      1.439487    44B      1.439487    45B      1.491716  
      47A      1.524248    46B      1.537859    47B      1.556827  
      48A      1.655490    48B      1.660970    49A      1.660974  
      50A      1.716435    51A      1.751435    49B      1.752653  
      50B      1.787425    52A      1.787429    51B      1.996053  
      53A      1.996053    52B      2.112365    54A      2.112366  
      55A      2.144970    53B      2.164358    54B      2.266757  
      56A      2.294163    55B      2.573483    56B      2.744794  
      57A      2.744794    58A      2.823906    57B      2.833792  
      59A      2.833793    58B      2.895184    59B      2.919423  
      60A      2.944255    60B      2.944256    61A      2.949883  
      62A      3.020397    61B      3.020404    63A      3.038520  
      64A      3.099720    62B      3.101993    65A      3.101995  
      63B      3.119774    64B      3.147167    65B      3.180390  
      66A      3.180390    66B      3.203881    67A      3.212472  
      68A      3.332793    67B      3.332795    68B      3.362983  
      69B      3.394126    69A      3.408843    70B      3.408853  
      70A      3.416098    71A      3.424747    72A      3.523343  
      71B      3.523352    73A      3.526890    72B      3.627238  
      74A      3.659886    73B      3.660571    75A      3.660589  
      76A      3.712608    77A      3.817366    74B      3.843372  
      78A      3.843376    75B      3.897472    76B      3.915002  
      79A      4.019870    77B      4.019870    80A      4.050591  
      78B      4.088032    79B      4.133694    81A      4.142155  
      82A      4.165210    80B      4.165212    81B      4.198380  
      82B      4.211013    83A      4.243019    83B      4.243024  
      84A      4.263195    85A      4.273043    84B      4.317612  
      86A      4.317619    85B      4.396206    87A      4.425888  
      86B      4.425889    88A      4.492155    87B      4.510438  
      89A      4.510447    90A      4.527543    88B      4.672047  
      91A      4.688341    89B      4.688356    90B      4.712210  
      92A      4.888737    91B      4.888740    93A      4.958101  
      94A      5.011290    92B      5.100082    93B      5.169823  
      95A      5.169833    94B      5.174118    96A      5.243239  
      97A      5.296192    95B      5.328486    98A      5.328490  
      96B      5.510510  

    Final Occupation by Irrep:
              A     B 
    DOCC [    10,    9 ]

  @DF-RKS Final Energy:  -195.28902651955684

   => Energetics <=

    Nuclear Repulsion Energy =            170.3120843052544728
    One-Electron Energy =                -598.4201087913388619
    Two-Electron Energy =                 257.2423000527956560
    DFT Exchange-Correlation Energy =     -24.4233020862681371
    Empirical Dispersion Energy =           0.0000000000000000
    VV10 Nonlocal Energy =                  0.0000000000000000
    Total Energy =                       -195.2890265195568702

Computation Completed


Properties will be evaluated at   0.000000,   0.000000,   0.000000 [a0]

Properties computed using the SCF density matrix

  Nuclear Dipole Moment: [e a0]
     X:    -0.0000      Y:    -0.0000      Z:    -0.0005

  Electronic Dipole Moment: [e a0]
     X:     0.0000      Y:     0.0000      Z:     0.0004

  Dipole Moment: [e a0]
     X:    -0.0000      Y:    -0.0000      Z:    -0.0001     Total:     0.0001

  Dipole Moment: [D]
     X:    -0.0000      Y:    -0.0000      Z:    -0.0003     Total:     0.0003


*** tstop() called on n080 at Fri Oct 29 12:23:20 2021
Module time:
	user time   =     123.72 seconds =       2.06 minutes
	system time =       1.82 seconds =       0.03 minutes
	total time  =         32 seconds =       0.53 minutes
Total time:
	user time   =     123.72 seconds =       2.06 minutes
	system time =       1.82 seconds =       0.03 minutes
	total time  =         32 seconds =       0.53 minutes
Grab this energy -195.28902651955684
    Psi4 stopped on: Friday, 29 October 2021 12:23PM
    Psi4 wall time for execution: 0:00:32.58

*** Psi4 exiting successfully. Buy a developer a beer!
