
    -----------------------------------------------------------------------
          Psi4: An Open-Source Ab Initio Electronic Structure Package
                               Psi4 1.4a2.dev629 

                         Git: Rev {master} 2938fc2 dirty


    D. G. A. Smith, L. A. Burns, A. C. Simmonett, R. M. Parrish,
    M. C. Schieber, R. Galvelis, P. Kraus, H. Kruse, R. Di Remigio,
    A. Alenaizan, A. M. James, S. Lehtola, J. P. Misiewicz, M. Scheurer,
    R. A. Shaw, J. B. Schriber, Y. Xie, Z. L. Glick, D. A. Sirianni,
    J. S. O'Brien, J. M. Waldrop, A. Kumar, E. G. Hohenstein,
    B. P. Pritchard, B. R. Brooks, H. F. Schaefer III, A. Yu. Sokolov,
    K. Patkowski, A. E. DePrince III, U. Bozkaya, R. A. King,
    F. A. Evangelista, J. M. Turney, T. D. Crawford, C. D. Sherrill,
    J. Chem. Phys. 152(18) 184108 (2020). https://doi.org/10.1063/5.0006002

                            Additional Code Authors
    E. T. Seidl, C. L. Janssen, E. F. Valeev, M. L. Leininger,
    J. F. Gonthier, R. M. Richard, H. R. McAlexander, M. Saitow, X. Wang,
    P. Verma, and M. H. Lechner

             Previous Authors, Complete List of Code Contributors,
                       and Citations for Specific Modules
    https://github.com/psi4/psi4/blob/master/codemeta.json
    https://github.com/psi4/psi4/graphs/contributors
    http://psicode.org/psi4manual/master/introduction.html#citing-psifour

    -----------------------------------------------------------------------


    Psi4 started on: Friday, 29 October 2021 12:44PM

    Process ID: 8405
    Host:       n075
    PSIDATADIR: /opt/psi/4/master/share/psi4
    Memory:     500.0 MiB
    Threads:    4
    
  ==> Input File <==

--------------------------------------------------------------------------
import os
memory 14 GB 
 
molecule {
 C    0.0000000000    0.0000000000   -0.0000000000
 C   -1.0265578234   -1.0265578234   -2.3994902659
 C    1.0265578234    1.0265578234   -2.3994902659
 C    1.0265578234   -1.0265578234    2.3994902659
 C   -1.0265578234    1.0265578234    2.3994902659
 H   -0.4652608342   -2.9101050739   -2.9659219147
 H   -2.9101050739   -0.4652608342   -2.9659219147
 H    0.4652608342    2.9101050739   -2.9659219147
 H    2.9101050739    0.4652608342   -2.9659219147
 H    0.4652608342   -2.9101050739    2.9659219147
 H    2.9101050739   -0.4652608342    2.9659219147
 H   -0.4652608342    2.9101050739    2.9659219147
 H   -2.9101050739    0.4652608342    2.9659219147
units bohr
}

basis {

assign 6-31g_2dfp_

[ 6-31g_2dfp_ ]

spherical

!----------------------------------------------------------------------
! Basis Set Exchange
! Version v0.8.13
! https://www.basissetexchange.org
!----------------------------------------------------------------------
!   Basis set: 6-31G(2df,p)
! Description: 6-31G(2df,p)
!        Role: orbital
!     Version: 0  (Data from the original Basis Set Exchange)
!----------------------------------------------------------------------


****
H     0
S    3   1.00
     18.7311370              0.03349460
      2.8253937              0.23472695
      0.6401217              0.81375733
S    1   1.00
      0.1612778              1.00000000
P    1   1.00
      1.5000000              1.0000000
P    1   1.00
      0.3750000              1.0000000
****
B     0
S    6   1.00
   2068.8823000              0.0018663
    310.6495700              0.0142515
     70.6830330              0.0695516
     19.8610800              0.2325729
      6.2993048              0.4670787
      2.1270270              0.3634314
SP   3   1.00
      4.7279710             -0.1303938              0.0745976
      1.1903377             -0.1307889              0.3078467
      0.3594117              1.1309444              0.7434568
SP   1   1.00
      0.1267512              1.0000000              1.0000000
D    1   1.00
      0.8020000              1.0000000
D    1   1.00
      0.2005000              1.0000000
F    1   1.00
      0.5000000              1.0000000
****
C     0
S    6   1.00
   3047.5249000              0.0018347
    457.3695100              0.0140373
    103.9486900              0.0688426
     29.2101550              0.2321844
      9.2866630              0.4679413
      3.1639270              0.3623120
SP   3   1.00
      7.8682724             -0.1193324              0.0689991
      1.8812885             -0.1608542              0.3164240
      0.5442493              1.1434564              0.7443083
SP   1   1.00
      0.1687144              1.0000000              1.0000000
D    1   1.00
      1.2520000              1.0000000
D    1   1.00
      0.3130000              1.0000000
F    1   1.00
      0.8000000              1.0000000
****
N     0
S    6   1.00
   4173.5110000              0.0018348
    627.4579000              0.0139950
    142.9021000              0.0685870
     40.2343300              0.2322410
     12.8202100              0.4690700
      4.3904370              0.3604550
SP   3   1.00
     11.6263580             -0.1149610              0.0675800
      2.7162800             -0.1691180              0.3239070
      0.7722180              1.1458520              0.7408950
SP   1   1.00
      0.2120313              1.0000000              1.0000000
D    1   1.00
      1.8260000              1.0000000
D    1   1.00
      0.4565000              1.0000000
F    1   1.00
      1.0000000              1.0000000
****
O     0
S    6   1.00
   5484.6717000              0.0018311
    825.2349500              0.0139501
    188.0469600              0.0684451
     52.9645000              0.2327143
     16.8975700              0.4701930
      5.7996353              0.3585209
SP   3   1.00
     15.5396160             -0.1107775              0.0708743
      3.5999336             -0.1480263              0.3397528
      1.0137618              1.1307670              0.7271586
SP   1   1.00
      0.2700058              1.0000000              1.0000000
D    1   1.00
      2.5840000              1.0000000
D    1   1.00
      0.6460000              1.0000000
F    1   1.00
      1.4000000              1.0000000
****
F     0
S    6   1.00
   7001.7130900              0.0018196169
   1051.3660900              0.0139160796
    239.2856900              0.0684053245
     67.3974453              0.233185760
     21.5199573              0.471267439
      7.40310130             0.356618546
SP   3   1.00
     20.8479528             -0.108506975            0.0716287243
      4.80830834            -0.146451658            0.3459121030
      1.34406986             1.128688580            0.7224699570
SP   1   1.00
      0.358151393            1.0000000              1.0000000
D    1   1.00
      3.5000000              1.0000000
D    1   1.00
      0.8750000              1.0000000
F    1   1.00
      1.8500000              1.0000000
****
Al     0
S    6   1.00
  13983.1000000              0.00194267
   2098.7500000              0.0148599
    477.7050000              0.0728494
    134.3600000              0.2468300
     42.8709000              0.4872580
     14.5189000              0.3234960
SP   6   1.00
    239.6680000             -0.00292619             0.00460285
     57.4419000             -0.0374080              0.0331990
     18.2859000             -0.1144870              0.1362820
      6.5991400              0.1156350              0.3304760
      2.4904900              0.6125950              0.4491460
      0.9445400              0.3937990              0.2657040
SP   3   1.00
      1.2779000             -0.2276060             -0.0175130
      0.3975900              0.00144583             0.2445330
      0.1600950              1.0927900              0.8049340
SP   1   1.00
      0.0556577              1.0000000              1.0000000
D    1   1.00
      0.6500000              1.0000000
D    1   1.00
      0.1625000              1.0000000
F    1   1.00
      0.2500000              1.0000000
****
Si     0
S    6   1.00
  16115.9000000              0.00195948
   2425.5800000              0.01492880
    553.8670000              0.07284780
    156.3400000              0.24613000
     50.0683000              0.48591400
     17.0178000              0.32500200
SP   6   1.00
    292.7180000             -0.00278094             0.00443826
     69.8731000             -0.03571460             0.03266790
     22.3363000             -0.11498500             0.13472100
      8.1503900              0.09356340             0.32867800
      3.1345800              0.60301700             0.44964000
      1.2254300              0.41895900             0.26137200
SP   3   1.00
      1.7273800             -0.24463000            -0.01779510
      0.5729220              0.00431572             0.25353900
      0.2221920              1.09818000             0.80066900
SP   1   1.00
      0.0778369              1.00000000             1.00000000
D    1   1.00
      0.9000000              1.0000000
D    1   1.00
      0.2250000              1.0000000
F    1   1.00
      0.3200000              1.0000000
****
P     0
S    6   1.00
  19413.3000000              0.0018516
   2909.4200000              0.0142062
    661.3640000              0.0699995
    185.7590000              0.2400790
     59.1943000              0.4847620
     20.0310000              0.3352000
SP   6   1.00
    339.4780000             -0.00278217             0.00456462
     81.0101000             -0.0360499              0.03369360
     25.8780000             -0.1166310              0.13975500
      9.4522100              0.0968328              0.33936200
      3.6656600              0.6144180              0.45092100
      1.4674600              0.4037980              0.23858600
SP   3   1.00
      2.1562300             -0.2529230             -0.01776530
      0.7489970              0.0328517              0.27405800
      0.2831450              1.0812500              0.78542100
SP   1   1.00
      0.0998317              1.0000000              1.00000000
D    1   1.00
      1.1000000              1.0000000
D    1   1.00
      0.2750000              1.0000000
F    1   1.00
      0.4500000              1.0000000
****
S     0
S    6   1.00
  21917.1000000              0.0018690
   3301.4900000              0.0142300
    754.1460000              0.0696960
    212.7110000              0.2384870
     67.9896000              0.4833070
     23.0515000              0.3380740
SP   6   1.00
    423.7350000             -0.0023767              0.0040610
    100.7100000             -0.0316930              0.0306810
     32.1599000             -0.1133170              0.1304520
     11.8079000              0.0560900              0.3272050
      4.6311000              0.5922550              0.4528510
      1.8702500              0.4550060              0.2560420
SP   3   1.00
      2.6158400             -0.2503740             -0.0145110
      0.9221670              0.0669570              0.3102630
      0.3412870              1.0545100              0.7544830
SP   1   1.00
      0.1171670              1.0000000              1.0000000
D    1   1.00
      1.3000000              1.0000000
D    1   1.00
      0.3250000              1.0000000
F    1   1.00
      0.5500000              1.0000000
****
Cl     0
S    6   1.00
  25180.1000000              0.0018330
   3780.3500000              0.0140340
    860.4740000              0.0690970
    242.1450000              0.2374520
     77.3349000              0.4830340
     26.2470000              0.3398560
SP   6   1.00
    491.7650000             -0.0022974              0.0039894
    116.9840000             -0.0307140              0.0303180
     37.4153000             -0.1125280              0.1298800
     13.7834000              0.0450160              0.3279510
      5.4521500              0.5893530              0.4535270
      2.2258800              0.4652060              0.2521540
SP   3   1.00
      3.1864900             -0.2518300             -0.0142990
      1.1442700              0.0615890              0.3235720
      0.4203770              1.0601800              0.7435070
SP   1   1.00
      0.1426570              1.0000000              1.0000000
D    1   1.00
      1.5000000              1.0000000
D    1   1.00
      0.3750000              1.0000000
F    1   1.00
      0.7000000              1.0000000
****
}


set {
reference rhf                          
freeze_core true
e_convergence 10                       
d_convergence 10                      
dft_spherical_points 1202
dft_radial_points 99
}

e = energy('b3lyp')

print_out('Grab this energy {0}'.format(e))
--------------------------------------------------------------------------

  Memory set to  13.039 GiB by Python driver.

Scratch directory: /tmp/

*** tstart() called on n075
*** at Fri Oct 29 12:44:17 2021

   => Loading Basis Set <=

    Name: ANONYMOUSA115BA29
    Role: ORBITAL
    Keyword: BASIS
    atoms 1-5  entry C          line    48 inputblock 6-31g_2dfp_ 
    atoms 6-13 entry H          line    15 inputblock 6-31g_2dfp_ 


         ---------------------------------------------------------
                                   SCF
               by Justin Turney, Rob Parrish, Andy Simmonett
                          and Daniel G. A. Smith
                              RKS Reference
                        4 Threads,  13351 MiB Core
         ---------------------------------------------------------

  ==> Geometry <==

    Molecular point group: c2v
    Full point group: D2d

    Geometry (in Bohr), charge = 0, multiplicity = 1:

       Center              X                  Y                   Z               Mass       
    ------------   -----------------  -----------------  -----------------  -----------------
         C            0.000000000000     0.000000000000    -0.000000000000    12.000000000000
         C           -1.451771996412    -0.000000000000    -2.399490265900    12.000000000000
         C            1.451771996412     0.000000000000    -2.399490265900    12.000000000000
         C            0.000000000000    -1.451771996412     2.399490265900    12.000000000000
         C           -0.000000000000     1.451771996412     2.399490265900    12.000000000000
         H           -2.386744122603    -1.728765940837    -2.965921914700     1.007825032230
         H           -2.386744122603     1.728765940837    -2.965921914700     1.007825032230
         H            2.386744122603     1.728765940837    -2.965921914700     1.007825032230
         H            2.386744122603    -1.728765940837    -2.965921914700     1.007825032230
         H           -1.728765940837    -2.386744122603     2.965921914700     1.007825032230
         H            1.728765940837    -2.386744122603     2.965921914700     1.007825032230
         H            1.728765940837     2.386744122603     2.965921914700     1.007825032230
         H           -1.728765940837     2.386744122603     2.965921914700     1.007825032230

  Running in c2v symmetry.

  Rotational constants: A =      0.35165  B =      0.13907  C =      0.13907 [cm^-1]
  Rotational constants: A =  10542.20893  B =   4169.12241  C =   4169.12241 [MHz]
  Nuclear repulsion =  170.255362948405406

  Charge       = 0
  Multiplicity = 1
  Electrons    = 38
  Nalpha       = 19
  Nbeta        = 19

  ==> Algorithm <==

  SCF Algorithm Type is DF.
  DIIS enabled.
  MOM disabled.
  Fractional occupation disabled.
  Guess Type is SAD.
  Energy threshold   = 1.00e-10
  Density threshold  = 1.00e-10
  Integral threshold = 0.00e+00

  ==> Primary Basis <==

  Basis Set: ANONYMOUSA115BA29
    Blend: 6-31G_2DFP_
    Number of shells: 72
    Number of basis function: 194
    Number of Cartesian functions: 219
    Spherical Harmonics?: true
    Max angular momentum: 3

  ==> DFT Potential <==

   => Composite Functional: B3LYP <= 

    B3LYP Hyb-GGA Exchange-Correlation Functional

    P. J. Stephens, F. J. Devlin, C. F. Chabalowski, and M. J. Frisch, J. Phys. Chem. 98, 11623 (1994)

    Deriv               =              1
    GGA                 =           TRUE
    Meta                =          FALSE

    Exchange Hybrid     =           TRUE
    MP2 Hybrid          =          FALSE

   => Exchange Functionals <=

    0.0800   Slater exchange
    0.7200         Becke 88

   => Exact (HF) Exchange <=

    0.2000               HF 

   => Correlation Functionals <=

    0.1900   Vosko, Wilk & Nusair (VWN5_RPA)
    0.8100   Lee, Yang & Parr

   => Molecular Quadrature <=

    Radial Scheme          =       TREUTLER
    Pruning Scheme         =           NONE
    Nuclear Scheme         =       TREUTLER

    BS radius alpha        =              1
    Pruning alpha          =              1
    Radial Points          =             99
    Spherical Points       =           1202
    Total Points           =        1434324
    Total Blocks           =           9602
    Max Points             =            256
    Max Functions          =            194
    Weights Tolerance      =       1.00E-15

   => Loading Basis Set <=

    Name: (ANONYMOUSA115BA29 AUX)
    Role: JKFIT
    Keyword: DF_BASIS_SCF
    atoms 1-5  entry C          line   198 file /opt/psi/4/master/share/psi4/basis/def2-universal-jkfit.gbs 
    atoms 6-13 entry H          line    18 file /opt/psi/4/master/share/psi4/basis/def2-universal-jkfit.gbs 

  ==> Integral Setup <==

  DFHelper Memory: AOs need 0.155 GiB; user supplied 3.340 GiB. Using in-core AOs.

  ==> MemDFJK: Density-Fitted J/K Matrices <==

    J tasked:                   Yes
    K tasked:                   Yes
    wK tasked:                   No
    OpenMP threads:               4
    Memory [MiB]:              3419
    Algorithm:                 Core
    Schwarz Cutoff:           1E-12
    Mask sparsity (%):       0.9778
    Fitting Condition:        1E-10

   => Auxiliary Basis Set <=

  Basis Set: (ANONYMOUSA115BA29 AUX)
    Blend: DEF2-UNIVERSAL-JKFIT
    Number of shells: 173
    Number of basis function: 519
    Number of Cartesian functions: 605
    Spherical Harmonics?: true
    Max angular momentum: 4

  Cached 100.0% of DFT collocation blocks in 6.439 [GiB].

  Minimum eigenvalue in the overlap matrix is 8.3109585851E-04.
  Reciprocal condition number of the overlap matrix is 1.6271773522E-04.
    Using symmetric orthogonalization.

  ==> Pre-Iterations <==

  SCF Guess: Superposition of Atomic Densities via on-the-fly atomic UHF (no occupation information).

   -------------------------
    Irrep   Nso     Nmo    
   -------------------------
     A1        61      61 
     A2        37      37 
     B1        48      48 
     B2        48      48 
   -------------------------
    Total     194     194
   -------------------------

  ==> Iterations <==

                           Total Energy        Delta E     RMS |[F,P]|

   @DF-RKS iter SAD:  -194.95249461989908   -1.94952e+02   0.00000e+00 
   @DF-RKS iter   1:  -194.92103209338748    3.14625e-02   8.21844e-03 DIIS
   @DF-RKS iter   2:  -194.74421619619972    1.76816e-01   1.00875e-02 DIIS
   @DF-RKS iter   3:  -195.28356576735328   -5.39350e-01   1.09879e-03 DIIS
   @DF-RKS iter   4:  -195.28811183149406   -4.54606e-03   4.47871e-04 DIIS
   @DF-RKS iter   5:  -195.28901238797602   -9.00556e-04   3.55433e-05 DIIS
   @DF-RKS iter   6:  -195.28901794894199   -5.56097e-06   4.34127e-06 DIIS
   @DF-RKS iter   7:  -195.28901804346694   -9.45249e-08   7.55008e-07 DIIS
   @DF-RKS iter   8:  -195.28901804655374   -3.08680e-09   8.43080e-08 DIIS
   @DF-RKS iter   9:  -195.28901804658850   -3.47598e-11   5.48934e-09 DIIS
   @DF-RKS iter  10:  -195.28901804658878   -2.84217e-13   2.50593e-10 DIIS
   @DF-RKS iter  11:  -195.28901804658858    1.98952e-13   1.98229e-11 DIIS
  Energy and wave function converged.


  ==> Post-Iterations <==

    Orbital Energies [Eh]
    ---------------------

    Doubly Occupied:                                                      

       1A1   -10.189357     2A1   -10.178028     3A1   -10.178005  
       1B1   -10.177899     1B2   -10.177899     4A1    -0.873221  
       5A1    -0.789513     2B2    -0.598805     2B1    -0.598805  
       6A1    -0.535911     7A1    -0.480294     3B1    -0.466081  
       3B2    -0.466081     1A2    -0.369978     2A2    -0.356955  
       8A1    -0.342121     4B2    -0.282821     4B1    -0.282821  
       9A1    -0.266041  

    Virtual:                                                              

       5B2     0.097904     5B1     0.097904    10A1     0.103931  
      11A1     0.107886     6B2     0.143012     6B1     0.143012  
      12A1     0.192097     7B2     0.192622     7B1     0.192622  
       3A2     0.202514     4A2     0.221736     8B2     0.265284  
       8B1     0.265284    13A1     0.302211    14A1     0.372494  
       9B2     0.430959     9B1     0.430959    15A1     0.432750  
      16A1     0.446079    10B2     0.465223    10B1     0.465223  
       5A2     0.468039    17A1     0.494104    11B2     0.521442  
      11B1     0.521442    18A1     0.529779    12B2     0.589657  
      12B1     0.589657    19A1     0.624766     6A2     0.626681  
      13B2     0.628089    13B1     0.628089     7A2     0.636083  
      20A1     0.646708    14B2     0.655235    14B1     0.655235  
      21A1     0.679628     8A2     0.687759     9A2     0.809406  
      22A1     0.825125    10A2     0.831464    15B2     0.847829  
      15B1     0.847829    23A1     0.924016    11A2     0.962090  
      24A1     1.016543    25A1     1.056414    16B2     1.068039  
      16B1     1.068039    17B2     1.107849    17B1     1.107849  
      18B2     1.154162    18B1     1.154162    19B2     1.173000  
      19B1     1.173000    20B2     1.200631    20B1     1.200631  
      26A1     1.205383    27A1     1.236402    28A1     1.268202  
      21B2     1.328624    21B1     1.328624    29A1     1.329713  
      12A2     1.342717    13A2     1.347522    30A1     1.388860  
      31A1     1.403321    22B1     1.407398    22B2     1.407398  
      23B1     1.438614    23B2     1.438614    14A2     1.491342  
      15A2     1.523713    16A2     1.537356    32A1     1.557189  
      33A1     1.654465    24B2     1.660026    24B1     1.660026  
      17A2     1.715463    34A1     1.751232    35A1     1.751438  
      25B1     1.785483    25B2     1.785483    26B2     1.996620  
      26B1     1.996620    27B2     2.111866    27B1     2.111866  
      36A1     2.145115    18A2     2.161125    37A1     2.266040  
      19A2     2.290940    38A1     2.572339    28B2     2.744088  
      28B1     2.744088    39A1     2.824349    29B2     2.833486  
      29B1     2.833486    20A2     2.894688    40A1     2.918877  
      30B2     2.944355    30B1     2.944355    41A1     2.950267  
      31B2     3.019931    31B1     3.019931    42A1     3.037631  
      21A2     3.101159    32B2     3.101629    32B1     3.101629  
      43A1     3.119618    22A2     3.148883    33B1     3.180375  
      33B2     3.180375    44A1     3.204212    23A2     3.212394  
      34B2     3.333035    34B1     3.333035    24A2     3.363735  
      45A1     3.393502    35B2     3.408842    35B1     3.408842  
      46A1     3.416049    47A1     3.423101    36B2     3.523675  
      36B1     3.523675    25A2     3.527512    26A2     3.626809  
      37B2     3.659117    37B1     3.659117    27A2     3.659275  
      48A1     3.712059    28A2     3.816466    38B2     3.843757  
      38B1     3.843757    49A1     3.897129    29A2     3.914046  
      39B2     4.016646    39B1     4.016646    50A1     4.048884  
      51A1     4.085843    52A1     4.133797    53A1     4.139063  
      40B1     4.162893    40B2     4.162893    30A2     4.196376  
      54A1     4.209192    41B2     4.241089    41B1     4.241089  
      31A2     4.261760    55A1     4.273759    42B2     4.315578  
      42B1     4.315578    56A1     4.394093    43B2     4.424530  
      43B1     4.424530    32A2     4.488399    44B2     4.509267  
      44B1     4.509267    57A1     4.526488    58A1     4.672026  
      45B2     4.688033    45B1     4.688033    33A2     4.707500  
      46B2     4.886522    46B1     4.886522    59A1     4.955981  
      34A2     5.007348    35A2     5.094009    47B2     5.164461  
      47B1     5.164461    60A1     5.174928    61A1     5.243311  
      36A2     5.293317    48B1     5.327985    48B2     5.327985  
      37A2     5.509723  

    Final Occupation by Irrep:
             A1    A2    B1    B2 
    DOCC [     9,    2,    4,    4 ]

  @DF-RKS Final Energy:  -195.28901804658858

   => Energetics <=

    Nuclear Repulsion Energy =            170.2553629484054056
    One-Electron Energy =                -598.3115558116751345
    Two-Electron Energy =                 257.1873147373052007
    DFT Exchange-Correlation Energy =     -24.4201399206239813
    Empirical Dispersion Energy =           0.0000000000000000
    VV10 Nonlocal Energy =                  0.0000000000000000
    Total Energy =                       -195.2890180465885237

Computation Completed


Properties will be evaluated at   0.000000,   0.000000,   0.000000 [a0]

Properties computed using the SCF density matrix

  Nuclear Dipole Moment: [e a0]
     X:     0.0000      Y:     0.0000      Z:    -0.0000

  Electronic Dipole Moment: [e a0]
     X:     0.0000      Y:     0.0000      Z:    -0.0000

  Dipole Moment: [e a0]
     X:     0.0000      Y:     0.0000      Z:    -0.0000     Total:     0.0000

  Dipole Moment: [D]
     X:     0.0000      Y:     0.0000      Z:    -0.0000     Total:     0.0000


*** tstop() called on n075 at Fri Oct 29 12:44:46 2021
Module time:
	user time   =     110.68 seconds =       1.84 minutes
	system time =       1.78 seconds =       0.03 minutes
	total time  =         29 seconds =       0.48 minutes
Total time:
	user time   =     110.68 seconds =       1.84 minutes
	system time =       1.78 seconds =       0.03 minutes
	total time  =         29 seconds =       0.48 minutes
Grab this energy -195.28901804658858
    Psi4 stopped on: Friday, 29 October 2021 12:44PM
    Psi4 wall time for execution: 0:00:29.00

*** Psi4 exiting successfully. Buy a developer a beer!
