
 Primary working directories    : /tmp/985636.317.gen4.q
 Secondary working directories  : /tmp/985636.317.gen4.q
 Wavefunction directory         : /home/vulcan/jj04645/wfu/
 Main file repository           : /tmp/985636.317.gen4.q/

 ARCHNAME  : Linux/x86_64
 FC        : /opt/intel/compilers_and_libraries_2016.1.150/linux/bin/intel64/ifort
 FCVERSION : 16.0.1
 BLASLIB   : -mkl
 id        : ccgc

 Nodes     nprocs
 n056         1
 ga_uses_ma=false, calling ma_init with nominal heap.
 GA-space will be limited to   8.0 MW (determined by -G option)

 Using customized tuning parameters: mindgm=10; mindgv=16; mindgc=4; mindgr=1; noblas=0; mincuda=1000; minvec=7
 default implementation of scratch files=df  

 ***,Optimization of tetrahydrothiopyran
 memory,1000,m
 gthresh,energy=1.0d-12,orbital=1.0d-10,oneint=1.0d-16,twoint=1.0d-16,optgrad=1.0d-6,compress=1.0d-13
 geomtyp=xyz
 
 bohr
 geometry = {
  S    0.3531914270    2.7015311682   -0.0028879753
  C   -0.3283349211   -3.3638667352   -0.0018710489
  C   -0.6614615777    0.6661196570   -2.5806949974
  C   -0.6656127164    0.6703810050    2.5833019782
  C    0.4696730951   -1.9804610046   -2.4112699439
  C    0.4738036435   -1.9835527542    2.4139248252
  H   -2.7277446616    0.5687070687   -2.5848453509
  H   -2.7318077010    0.5710635854    2.5858624944
  H   -0.0720128989    1.6186856935   -4.3124005402
  H   -0.0771831889    1.6260383301    4.3136503980
  H    2.5323227844   -1.8427967340   -2.4750550548
  H    2.5363619950   -1.8437553915    2.4760012031
  H   -0.1312486262   -3.0664913819   -4.0671127370
  H   -0.1258085391   -3.0717375420    4.0688276471
  H    0.4678012132   -5.2703561051   -0.0044896087
  H   -2.3906743436   -3.5793302762   -0.0009412888
 }
 
 basis=VDZ
 {rhf;maxit,200}
 {ccsd(t);maxit,200}

 Variables initialized (661), CPU time= 0.00 sec
 Commands  initialized (458), CPU time= 0.00 sec, 486 directives.
 Default parameters read. Elapsed time= 0.05 sec

 Checking input...
 Passed
1


                                         ***  PROGRAM SYSTEM MOLPRO  ***
                         Copyright, University College Cardiff Consultants Limited, 2008

                                    Version 2010.1 linked May 16 2016 07:17:05


 **********************************************************************************************************************************
 LABEL *   Optimization of tetrahydrothiopyran                                           
 Linux-4.4.3/n056(x86_64) 64 bit mpp version                                             DATE: 26-Jan-24          TIME: 12:12:45  
 **********************************************************************************************************************************

 SHA1:             9e8077add272b0f3cad6f7df79ec5211205f459d
 **********************************************************************************************************************************

 THRESHOLDS:

 ZERO    =  1.00D-12  ONEINT  =  1.00D-16  TWOINT  =  1.00D-16  PREFAC  =  1.00D-14  LOCALI  =  1.00D-09  EORDER  =  1.00D-04
 ENERGY  =  1.00D-12  ETEST   =  0.00D+00  EDENS   =  0.00D+00  THRDEDEF=  1.00D-06  GRADIENT=  1.00D-02  STEP    =  1.00D-03
 ORBITAL =  1.00D-10  CIVEC   =  1.00D-05  COEFF   =  1.00D-04  PRINTCI =  5.00D-02  PUNCHCI =  9.90D+01  OPTGRAD =  1.00D-06
 OPTENERG=  1.00D-06  OPTSTEP =  3.00D-04  THRGRAD =  1.00D-10  COMPRESS=  1.00D-13  VARMIN  =  1.00D-07  VARMAX  =  1.00D-03
 THRDOUB =  0.00D+00  THRDIV  =  1.00D-05  THRRED  =  1.00D-07  THRPSP  =  1.00D+00  THRDC   =  1.00D-10  THRCS   =  1.00D-10
 THRNRM  =  1.00D-08  THREQ   =  0.00D+00  THRDE   =  1.00D+00  THRREF  =  1.00D-05  SPARFAC =  1.00D+00  THRDLP  =  1.00D-07
 THRDIA  =  1.00D-10  THRDLS  =  1.00D-07  THRGPS  =  0.00D+00  THRKEX  =  0.00D+00  THRDIS  =  2.00D-01  THRVAR  =  1.00D-10
 THRLOC  =  1.00D-06  THRGAP  =  1.00D-06  THRLOCT = -1.00D+00  THRGAPT = -1.00D+00  THRORB  =  1.00D-06  THRMLTP =  0.00D+00
 THRCPQCI=  1.00D-10  KEXTA   =  0.00D+00  THRCOARS=  0.00D+00  SYMTOL  =  1.00D-06  GRADTOL =  1.00D-06  THROVL  =  1.00D-08
 THRORTH =  1.00D-08  GRID    =  1.00D-06  GRIDMAX =  1.00D-03  DTMAX   =  0.00D+00

 SETTING GEOMTYP        =    XYZ
 ZUNIT=BOHR
 

 Variable memory set to 1000000000 words,  buffer space   230000 words

 SETTING BASIS          =    VDZ


 Recomputing integrals since basis changed


 Using spherical harmonics

 Library entry S      S cc-pVDZ              selected for orbital group  1
 Library entry S      P cc-pVDZ              selected for orbital group  1
 Library entry S      D cc-pVDZ              selected for orbital group  1
 Library entry C      S cc-pVDZ              selected for orbital group  2
 Library entry C      P cc-pVDZ              selected for orbital group  2
 Library entry C      D cc-pVDZ              selected for orbital group  2
 Library entry H      S cc-pVDZ              selected for orbital group  3
 Library entry H      P cc-pVDZ              selected for orbital group  3

1PROGRAM * SEWARD (Integral evaluation for generally contracted gaussian basis sets)     Author: Roland Lindh, 1990

 Geometry written to block  1 of record 700


 Point group  C1  



 ATOMIC COORDINATES

 NR  ATOM    CHARGE       X              Y              Z

   1  S      16.00    0.353191427    2.701531168   -0.002887975
   2  C       6.00   -0.328334921   -3.363866735   -0.001871049
   3  C       6.00   -0.661461578    0.666119657   -2.580694997
   4  C       6.00   -0.665612716    0.670381005    2.583301978
   5  C       6.00    0.469673095   -1.980461005   -2.411269944
   6  C       6.00    0.473803643   -1.983552754    2.413924825
   7  H       1.00   -2.727744662    0.568707069   -2.584845351
   8  H       1.00   -2.731807701    0.571063585    2.585862494
   9  H       1.00   -0.072012899    1.618685694   -4.312400540
  10  H       1.00   -0.077183189    1.626038330    4.313650398
  11  H       1.00    2.532322784   -1.842796734   -2.475055055
  12  H       1.00    2.536361995   -1.843755392    2.476001203
  13  H       1.00   -0.131248626   -3.066491382   -4.067112737
  14  H       1.00   -0.125808539   -3.071737542    4.068827647
  15  H       1.00    0.467801213   -5.270356105   -0.004489609
  16  H       1.00   -2.390674344   -3.579330276   -0.000941289

 Bond lengths in Bohr (Angstrom)

  1- 3  3.437660510   1- 4  3.442660504   2- 5  2.890645472   2- 6  2.895645467   2-15  2.066044849
       ( 1.819131594)       ( 1.821777477)       ( 1.529663703)       ( 1.532309586)       ( 1.093303847)

  2-16  2.073564394   3- 5  2.883151001   3- 7  2.068582176   3- 9  2.062434456   4- 6  2.893150991
       ( 1.097283019)       ( 1.525697800)       ( 1.094646543)       ( 1.091393309)       ( 1.530989567)

  4- 8  2.068582176   4-10  2.062434456   5-11  2.068222361   5-13  2.069392242   6-12  2.068222361
       ( 1.094646543)       ( 1.091393309)       ( 1.094456136)       ( 1.095075211)       ( 1.094456136)

  6-14  2.069392242
       ( 1.095075211)

 Bond angles

  1-3-5  112.55969563   1-3-7  108.91814199   1-3-9  105.77144483   1-4-6  112.37599372

  1- 4- 8  108.95651559   1- 4-10  105.80981845   2- 5- 3  112.33271086   2- 5-11  109.44385645

  2- 5-13  109.61010658   2- 6- 4  112.14901498   2- 6-12  109.48244551   2- 6-14  109.64869562

  3- 1- 4   97.27544114   3- 5-11  109.16904436   3- 5-13  108.71121859   4- 6-12  109.20763339

  4- 6-14  108.74980763   5- 2- 6  113.00325670   5- 2-15  109.52293927   5- 2-16  108.94583293

  5- 3- 7  110.41272587   5- 3- 9  111.17271341   6- 2-15  109.52293928   6- 2-16  108.94583293

  6- 4- 8  110.45109943   6- 4-10  111.21108700   7- 3- 9  107.79125587   8- 4-10  107.82962950

 11- 5-13  107.44906364  12- 6-14  107.48765263  15- 2-16  106.70072351

 NUCLEAR CHARGE:                   56
 NUMBER OF PRIMITIVE AOS:         247
 NUMBER OF SYMMETRY AOS:          241
 NUMBER OF CONTRACTIONS:          138   ( 138A   )
 NUMBER OF CORE ORBITALS:          10   (  10A   )
 NUMBER OF VALENCE ORBITALS:       34   (  34A   )


 NUCLEAR REPULSION ENERGY  312.10638809


 Eigenvalues of metric

         1 0.285E-02 0.305E-02 0.426E-02 0.634E-02 0.704E-02 0.151E-01 0.157E-01 0.195E-01


 Contracted 2-electron integrals neglected if value below      1.0D-16
 AO integral compression algorithm  1   Integral accuracy      1.0D-16

     374.079 MB (compressed) written to integral file ( 94.2%)

     Node minimum: 374.079 MB, node maximum: 374.079 MB


 NUMBER OF SORTED TWO-ELECTRON INTEGRALS:   45998436.     BUFFER LENGTH:  32768
 NUMBER OF SEGMENTS:   3  SEGMENT LENGTH:   15998004      RECORD LENGTH: 524288

 Memory used in sort:      16.56 MW

 SORT1 READ    49670079. AND WROTE    45797025. INTEGRALS IN    132 RECORDS. CPU TIME:     0.50 SEC, REAL TIME:     0.75 SEC
 SORT2 READ    45797025. AND WROTE    45998436. INTEGRALS IN   1427 RECORDS. CPU TIME:     0.36 SEC, REAL TIME:     0.55 SEC

 FILE SIZES:   FILE 1:   349.5 MBYTE,  FILE 4:   553.7 MBYTE,   TOTAL:    903.2 MBYTE

 OPERATOR DM      FOR CENTER  0  COORDINATES:    0.000000    0.000000    0.000000


 **********************************************************************************************************************************
 DATASETS  * FILE   NREC   LENGTH (MB)   RECORD NAMES
              1      19      349.77       500      610      700      900      950      970     1000      129      960     1100   
                                          VAR    BASINP    GEOM    SYMINP    ZMAT    AOBASIS   BASIS     P2S    ABASIS      S 
                                         1400     1410     1200     1210     1080     1600     1650     1300     1700   
                                           T        V       H0       H01     AOSYM     SMH    MOLCAS    ERIS     OPER   

 PROGRAMS   *        TOTAL       INT
 CPU TIMES  *         5.20      5.16
 REAL TIME  *         6.02 SEC
 DISK USED  *         1.28 GB      
 GA USED    *         0.01 MB       (max)       0.00 MB       (current)
 **********************************************************************************************************************************

1PROGRAM * RHF-SCF (CLOSED SHELL)       Authors: W. Meyer, H.-J. Werner


 NUMBER OF ELECTRONS:      28+   28-    SPACE SYMMETRY=1    SPIN SYMMETRY: Singlet 
 CONVERGENCE THRESHOLDS:    1.00E-10 (Density)    1.00E-13 (Energy)
 MAX. NUMBER OF ITERATIONS:      200
 INTERPOLATION TYPE:            DIIS
 INTERPOLATION STEPS:              2 (START)      1 (STEP)
 LEVEL SHIFTS:                  0.00 (CLOSED)  0.00 (OPEN) 



 Orbital guess generated from atomic densities. Full valence occupancy:   44

 Molecular orbital dump at record        2100.2

 ITERATION    DDIFF          GRAD             ENERGY        2-EL.EN.            DIPOLE MOMENTS         DIIS
    1      0.000D+00      0.000D+00      -592.64382191   1056.787869   -0.40858   -0.80738    0.00005    0
    2      0.000D+00      0.396D-02      -592.70489479   1054.190881   -0.20775   -0.74081   -0.00132    1
    3      0.778D-02      0.133D-02      -592.71084323   1055.631123   -0.28066   -0.67841    0.00092    2
    4      0.269D-02      0.541D-03      -592.71185652   1055.012146   -0.25332   -0.71132    0.00012    3
    5      0.933D-03      0.774D-04      -592.71188225   1055.075078   -0.24941   -0.70283    0.00032    4
    6      0.181D-03      0.267D-04      -592.71188478   1055.044183   -0.25114   -0.70312    0.00029    5
    7      0.504D-04      0.620D-05      -592.71188499   1055.047353   -0.25047   -0.70301    0.00030    6
    8      0.164D-04      0.174D-05      -592.71188501   1055.046495   -0.25046   -0.70287    0.00030    7
    9      0.538D-05      0.453D-06      -592.71188501   1055.046376   -0.25044   -0.70283    0.00030    7
   10      0.127D-05      0.162D-06      -592.71188501   1055.046414   -0.25043   -0.70283    0.00030    7
   11      0.482D-06      0.344D-07      -592.71188501   1055.046399   -0.25043   -0.70282    0.00030    7
   12      0.114D-06      0.698D-08      -592.71188501   1055.046405   -0.25043   -0.70282    0.00030    7
   13      0.184D-07      0.293D-08      -592.71188501   1055.046402   -0.25043   -0.70282    0.00030    7
   14      0.645D-08      0.862D-09      -592.71188501   1055.046403   -0.25043   -0.70282    0.00030    7
   15      0.232D-08      0.287D-09      -592.71188501   1055.046403   -0.25043   -0.70282    0.00030    7
   16      0.692D-09      0.942D-10      -592.71188501   1055.046403   -0.25043   -0.70282    0.00030    8
   17      0.231D-09      0.262D-10      -592.71188501   1055.046403   -0.25043   -0.70282    0.00030    7
   18      0.730D-10      0.107D-10      -592.71188501   1055.046403   -0.25043   -0.70282    0.00030    8
   19      0.362D-10      0.389D-11      -592.71188501   1055.046403   -0.25043   -0.70282    0.00030    8
   20      0.134D-10      0.130D-11      -592.71188501   1055.046403   -0.25043   -0.70282    0.00030    8
   21      0.493D-11      0.391D-12      -592.71188501   1055.046403   -0.25043   -0.70282    0.00030    8
   22      0.122D-11      0.126D-12      -592.71188501   1055.046403   -0.25043   -0.70282    0.00030    8
   23      0.402D-12      0.644D-13      -592.71188501   1055.046403   -0.25043   -0.70282    0.00030    8
   24      0.249D-12      0.443D-13      -592.71188501   1055.046403   -0.25043   -0.70282    0.00030    9
   25      0.168D-12      0.330D-13      -592.71188501   1055.046403   -0.25043   -0.70282    0.00030    9
   26      0.973D-13      0.351D-13      -592.71188501   1055.046403   -0.25043   -0.70282    0.00030    0

 Final occupancy:  28

 !RHF STATE 1.1 Energy               -592.711885008180
 Nuclear energy                       312.10638809
 One-electron energy                -1432.34147442
 Two-electron energy                  527.52320132
 Virial quotient                       -1.00019479
 !RHF STATE 1.1 Dipole moment          -0.25043426    -0.70282269     0.00029867
 Dipole moment /Debye                  -0.63649870    -1.78628010     0.00075909

 Orbital energies:

         1.1          2.1          3.1          4.1          5.1          6.1          7.1          8.1          9.1         10.1
    -91.929778   -11.255385   -11.254808   -11.231275   -11.230654   -11.228926    -8.933618    -6.615508    -6.614081    -6.611879

        11.1         12.1         13.1         14.1         15.1         16.1         17.1         18.1         19.1         20.1
     -1.119636    -1.019982    -1.006475    -0.842423    -0.835842    -0.755725    -0.646767    -0.614267    -0.610034    -0.578486

        21.1         22.1         23.1         24.1         25.1         26.1         27.1         28.1         29.1         30.1
     -0.546867    -0.523975    -0.497904    -0.495536    -0.472703    -0.434861    -0.411472    -0.328669     0.176871     0.190194


 **********************************************************************************************************************************
 DATASETS  * FILE   NREC   LENGTH (MB)   RECORD NAMES
              1      19      349.77       500      610      700      900      950      970     1000      129      960     1100   
                                          VAR    BASINP    GEOM    SYMINP    ZMAT    AOBASIS   BASIS     P2S    ABASIS      S 
                                         1400     1410     1200     1210     1080     1600     1650     1300     1700   
                                           T        V       H0       H01     AOSYM     SMH    MOLCAS    ERIS     OPER   

              2       3        0.92       700     1000     2100   
                                         GEOM     BASIS     RHF  

 PROGRAMS   *        TOTAL       RHF       INT
 CPU TIMES  *        14.38      9.18      5.16
 REAL TIME  *        16.27 SEC
 DISK USED  *         1.28 GB      
 GA USED    *         0.01 MB       (max)       0.00 MB       (current)
 **********************************************************************************************************************************


1PROGRAM * CCSD (Closed-shell coupled cluster)     Authors: C. Hampel, H.-J. Werner, 1991, M. Deegan, P.J. Knowles, 1992


 Convergence thresholds:  THRVAR = 1.00D-08  THRDEN = 1.00D-12

 CCSD(T)     terms to be evaluated (factor= 1.000)


 Number of core orbitals:          10 (  10 )
 Number of closed-shell orbitals:  18 (  18 )
 Number of external orbitals:     110 ( 110 )

 Molecular orbitals read from record     2100.2  Type=RHF/CANONICAL (state 1.1)

 Number of N-1 electron functions:              18
 Number of N-2 electron functions:             171
 Number of singly external CSFs:              1980
 Number of doubly external CSFs:           1961190
 Total number of CSFs:                     1963171

 Length of J-op  integral file:               0.00 MB
 Length of K-op  integral file:               1.35 MB
 Length of 3-ext integral record:             0.00 MB

 Memory could be reduced to 32.58 Mwords without degradation in triples

 Integral transformation finished. Total CPU:   2.63 sec, npass=  1  Memory used:  30.89 MW

 Reference energy:                   -592.71188501

 MP2 singlet pair energy:              -0.53945721
 MP2 triplet pair energy:              -0.30435923
 MP2 correlation energy:               -0.84381644
 MP2 total energy:                   -593.55570145

 SCS-MP2 correlation energy:           -0.83672773   (PS=  1.200000  PT=  0.333333)
 SCS-MP2 total energy:               -593.54861274

 ITER.      SQ.NORM     CORR.ENERGY   TOTAL ENERGY   ENERGY CHANGE        DEN1      VAR(S)    VAR(P)  DIIS     TIME
   1      1.33970949    -0.91079541  -593.62268042    -0.06697897    -0.04301755  0.26D-02  0.55D-02  1  1    10.64
   2      1.36671100    -0.91614353  -593.62802854    -0.00534812    -0.02577886  0.69D-04  0.46D-03  2  2    18.75
   3      1.37204809    -0.91627154  -593.62815655    -0.00012801    -0.00303891  0.16D-04  0.28D-04  3  3    26.84
   4      1.37354311    -0.91632956  -593.62821457    -0.00005802    -0.00059440  0.77D-06  0.20D-05  4  4    34.95
   5      1.37378432    -0.91633617  -593.62822118    -0.00000661    -0.00007095  0.17D-06  0.16D-06  5  5    43.07
   6      1.37383015    -0.91633171  -593.62821672     0.00000446    -0.00001395  0.30D-07  0.14D-07  6  6    51.18
   7      1.37383778    -0.91633160  -593.62821661     0.00000011     0.00000064  0.53D-08  0.23D-08  6  2    59.29
   8      1.37384389    -0.91633129  -593.62821629     0.00000031    -0.00000125  0.73D-09  0.27D-09  6  1    67.40
   9      1.37384471    -0.91633122  -593.62821623     0.00000006     0.00000051  0.65D-10  0.44D-10  6  4    75.52
  10      1.37384560    -0.91633119  -593.62821619     0.00000003    -0.00000011  0.47D-11  0.35D-11  6  3    83.63
  11      1.37384561    -0.91633119  -593.62821620    -0.00000000     0.00000004  0.12D-11  0.54D-12  6  5    91.75
  12      1.37384557    -0.91633119  -593.62821620    -0.00000000     0.00000002  0.17D-12  0.77D-13  6  6    99.87
  13      1.37384552    -0.91633119  -593.62821620    -0.00000000     0.00000002  0.24D-13  0.11D-13  6  1   107.99
  14      1.37384551    -0.91633119  -593.62821620    -0.00000000     0.00000000  0.31D-14  0.12D-14  6  2   116.11
  15      1.37384551    -0.91633119  -593.62821620     0.00000000    -0.00000000  0.69D-15  0.31D-15  6  4   124.23
  16      1.37384551    -0.91633119  -593.62821620     0.00000000    -0.00000000  0.34D-16  0.24D-16  6  5   132.35
  17      1.37384551    -0.91633119  -593.62821620     0.00000000    -0.00000000  0.65D-17  0.26D-17  6  3   140.46
  18      1.37384551    -0.91633119  -593.62821620     0.00000000    -0.00000000  0.16D-17  0.45D-18  6  5   148.57
  19      1.37384551    -0.91633119  -593.62821620     0.00000000    -0.00000000  0.22D-18  0.72D-19  6  6   156.69
  20      1.37384551    -0.91633119  -593.62821620    -0.00000000     0.00000000  0.22D-19  0.78D-20  6  1   164.82
  21      1.37384551    -0.91633119  -593.62821620    -0.00000000     0.00000000  0.46D-20  0.14D-20  6  2   172.91

 Norm of t1 vector:      0.07018259      S-energy:    -0.00000000      T1 diagnostic:  0.00827110
                                                                       D1 diagnostic:  0.02112513


 Total CPU time for triples:    123.00 sec


 RESULTS
 =======

  Reference energy                   -592.711885008180
  CCSD singlet pair energy             -0.634213551492
  CCSD triplet pair energy             -0.282117642102
  CCSD correlation energy              -0.916331193594

  Triples (T) contribution             -0.029869156612
  Total correlation energy             -0.946200350207

  CCSD total energy                  -593.628216201775
  CCSD[T] energy                     -593.658705160023
  CCSD-T energy                      -593.657774095660
 !CCSD(T) total energy               -593.658085358387

 Timing summary (sec):

 STEP                 CPU(USER)    SYS     CPU(TOT)    WALL
 Transformation          2.75      0.24      2.99      2.99
 CCSD iterations       170.16      2.96    173.12    173.21
 Triples               123.00      2.34    125.34    125.36

 Program statistics:

 Available memory in ccsd:               999998604
 Min. memory needed in ccsd:               5123362
 Max. memory used in ccsd:                 6867976
 Max. memory used in cckext:               6836871 (21 integral passes)



 **********************************************************************************************************************************
 DATASETS  * FILE   NREC   LENGTH (MB)   RECORD NAMES
              1      20      486.15       500      610      700      900      950      970     1000      129      960     1100   
                                          VAR    BASINP    GEOM    SYMINP    ZMAT    AOBASIS   BASIS     P2S    ABASIS      S 
                                         1400     1410     1200     1210     1080     1600     1650     1300     1700     1380   
                                           T        V       H0       H01     AOSYM     SMH    MOLCAS    ERIS     OPER     JKOP   

              2       3        0.92       700     1000     2100   
                                         GEOM     BASIS     RHF  

 PROGRAMS   *        TOTAL   CCSD(T)       RHF       INT
 CPU TIMES  *       310.30    295.92      9.18      5.16
 REAL TIME  *       317.90 SEC
 DISK USED  *         1.28 GB      
 GA USED    *         0.01 MB       (max)       0.00 MB       (current)
 **********************************************************************************************************************************

        CCSD(T)         RHF-SCF 
   -593.65808536   -592.71188501
 **********************************************************************************************************************************
 Variable memory released
