
 Primary working directories    : /tmp/985636.348.gen4.q
 Secondary working directories  : /tmp/985636.348.gen4.q
 Wavefunction directory         : /home/vulcan/jj04645/wfu/
 Main file repository           : /tmp/985636.348.gen4.q/

 ARCHNAME  : Linux/x86_64
 FC        : /opt/intel/compilers_and_libraries_2016.1.150/linux/bin/intel64/ifort
 FCVERSION : 16.0.1
 BLASLIB   : -mkl
 id        : ccgc

 Nodes     nprocs
 n049         1
 ga_uses_ma=false, calling ma_init with nominal heap.
 GA-space will be limited to   8.0 MW (determined by -G option)

 Using customized tuning parameters: mindgm=10; mindgv=16; mindgc=4; mindgr=1; noblas=0; mincuda=1000; minvec=7
 default implementation of scratch files=df  

 ***,Optimization of tetrahydrothiopyran
 memory,1000,m
 gthresh,energy=1.0d-12,orbital=1.0d-10,oneint=1.0d-16,twoint=1.0d-16,optgrad=1.0d-6,compress=1.0d-13
 geomtyp=xyz
 
 bohr
 geometry = {
  S    0.3538028195    2.6991349823    0.0047835939
  C   -0.3318579912   -3.3647232643   -0.0036267236
  C   -0.6629946180    0.6659372702   -2.5816169394
  C   -0.6616668076    0.6695023618    2.5829774847
  C    0.4702256434   -1.9822145005   -2.4147227964
  C    0.4712824883   -1.9787291455    2.4155090279
  H   -2.7292561435    0.5680762561   -2.5859471207
  H   -2.7279387180    0.5718209709    2.5862879054
  H   -0.0732323252    1.6214337762   -4.3116003933
  H   -0.0727190524    1.6240420733    4.3137664281
  H    2.5323020541   -1.8373427501   -2.4810310550
  H    2.5333356634   -1.8340773556    2.4830093655
  H   -0.1294227644   -3.0747612027   -4.0667360357
  H   -0.1292967275   -3.0717995943    4.0668375391
  H    0.4660203154   -5.2781494613   -0.0036634950
  H   -2.3873188530   -3.5779718334   -0.0042267854
 }
 
 basis=VDZ
 {rhf;maxit,200}
 {ccsd(t);maxit,200}

 Variables initialized (661), CPU time= 0.01 sec
 Commands  initialized (458), CPU time= 0.00 sec, 486 directives.
 Default parameters read. Elapsed time= 0.05 sec

 Checking input...
 Passed
1


                                         ***  PROGRAM SYSTEM MOLPRO  ***
                         Copyright, University College Cardiff Consultants Limited, 2008

                                    Version 2010.1 linked May 16 2016 07:17:05


 **********************************************************************************************************************************
 LABEL *   Optimization of tetrahydrothiopyran                                           
 Linux-4.4.3/n049(x86_64) 64 bit mpp version                                             DATE: 26-Jan-24          TIME: 12:23:45  
 **********************************************************************************************************************************

 SHA1:             9e8077add272b0f3cad6f7df79ec5211205f459d
 **********************************************************************************************************************************

 THRESHOLDS:

 ZERO    =  1.00D-12  ONEINT  =  1.00D-16  TWOINT  =  1.00D-16  PREFAC  =  1.00D-14  LOCALI  =  1.00D-09  EORDER  =  1.00D-04
 ENERGY  =  1.00D-12  ETEST   =  0.00D+00  EDENS   =  0.00D+00  THRDEDEF=  1.00D-06  GRADIENT=  1.00D-02  STEP    =  1.00D-03
 ORBITAL =  1.00D-10  CIVEC   =  1.00D-05  COEFF   =  1.00D-04  PRINTCI =  5.00D-02  PUNCHCI =  9.90D+01  OPTGRAD =  1.00D-06
 OPTENERG=  1.00D-06  OPTSTEP =  3.00D-04  THRGRAD =  1.00D-10  COMPRESS=  1.00D-13  VARMIN  =  1.00D-07  VARMAX  =  1.00D-03
 THRDOUB =  0.00D+00  THRDIV  =  1.00D-05  THRRED  =  1.00D-07  THRPSP  =  1.00D+00  THRDC   =  1.00D-10  THRCS   =  1.00D-10
 THRNRM  =  1.00D-08  THREQ   =  0.00D+00  THRDE   =  1.00D+00  THRREF  =  1.00D-05  SPARFAC =  1.00D+00  THRDLP  =  1.00D-07
 THRDIA  =  1.00D-10  THRDLS  =  1.00D-07  THRGPS  =  0.00D+00  THRKEX  =  0.00D+00  THRDIS  =  2.00D-01  THRVAR  =  1.00D-10
 THRLOC  =  1.00D-06  THRGAP  =  1.00D-06  THRLOCT = -1.00D+00  THRGAPT = -1.00D+00  THRORB  =  1.00D-06  THRMLTP =  0.00D+00
 THRCPQCI=  1.00D-10  KEXTA   =  0.00D+00  THRCOARS=  0.00D+00  SYMTOL  =  1.00D-06  GRADTOL =  1.00D-06  THROVL  =  1.00D-08
 THRORTH =  1.00D-08  GRID    =  1.00D-06  GRIDMAX =  1.00D-03  DTMAX   =  0.00D+00

 SETTING GEOMTYP        =    XYZ
 ZUNIT=BOHR
 

 Variable memory set to 1000000000 words,  buffer space   230000 words

 SETTING BASIS          =    VDZ


 Recomputing integrals since basis changed


 Using spherical harmonics

 Library entry S      S cc-pVDZ              selected for orbital group  1
 Library entry S      P cc-pVDZ              selected for orbital group  1
 Library entry S      D cc-pVDZ              selected for orbital group  1
 Library entry C      S cc-pVDZ              selected for orbital group  2
 Library entry C      P cc-pVDZ              selected for orbital group  2
 Library entry C      D cc-pVDZ              selected for orbital group  2
 Library entry H      S cc-pVDZ              selected for orbital group  3
 Library entry H      P cc-pVDZ              selected for orbital group  3

1PROGRAM * SEWARD (Integral evaluation for generally contracted gaussian basis sets)     Author: Roland Lindh, 1990

 Geometry written to block  1 of record 700


 Point group  C1  



 ATOMIC COORDINATES

 NR  ATOM    CHARGE       X              Y              Z

   1  S      16.00    0.353802819    2.699134982    0.004783594
   2  C       6.00   -0.331857991   -3.364723264   -0.003626724
   3  C       6.00   -0.662994618    0.665937270   -2.581616939
   4  C       6.00   -0.661666808    0.669502362    2.582977485
   5  C       6.00    0.470225643   -1.982214501   -2.414722796
   6  C       6.00    0.471282488   -1.978729146    2.415509028
   7  H       1.00   -2.729256143    0.568076256   -2.585947121
   8  H       1.00   -2.727938718    0.571820971    2.586287905
   9  H       1.00   -0.073232325    1.621433776   -4.311600393
  10  H       1.00   -0.072719052    1.624042073    4.313766428
  11  H       1.00    2.532302054   -1.837342750   -2.481031055
  12  H       1.00    2.533335663   -1.834077356    2.483009366
  13  H       1.00   -0.129422764   -3.074761203   -4.066736036
  14  H       1.00   -0.129296728   -3.071799594    4.066837539
  15  H       1.00    0.466020315   -5.278149461   -0.003663495
  16  H       1.00   -2.387318853   -3.577971833   -0.004226785

 Bond lengths in Bohr (Angstrom)

  1- 3  3.443433996   1- 4  3.434773774   2- 5  2.892758703   2- 6  2.901418982   2-15  2.073115917
       ( 1.822186791)       ( 1.817603999)       ( 1.530781977)       ( 1.535364799)       ( 1.097045695)

  2-16  2.066493326   3- 5  2.885264220   3- 7  2.068582176   3- 9  2.062434456   4- 6  2.885264270
       ( 1.093541171)       ( 1.526816067)       ( 1.094646543)       ( 1.091393309)       ( 1.526816094)

  4- 8  2.068582176   4-10  2.062434456   5-11  2.068222361   5-13  2.069392242   6-12  2.068222361
       ( 1.094646543)       ( 1.091393309)       ( 1.094456136)       ( 1.095075211)       ( 1.094456136)

  6-14  2.069392242
       ( 1.095075211)

 Bond angles

  1-3-5  112.48915578   1-3-7  108.93288560   1-3-9  105.78618846   1-4-6  112.50134202

  1- 4- 8  108.93033930   1- 4-10  105.78364215   2- 5- 3  112.20706762   2- 5-11  109.67277467

  2- 5-13  109.43388244   2- 6- 4  112.21924583   2- 6-12  109.67021708   2- 6-14  109.43132485

  3- 1- 4   97.33040166   3- 5-11  108.99282021   3- 5-13  108.94013679   4- 6-12  108.99026263

  4- 6-14  108.93757922   5- 2- 6  112.94799715   5- 2-15  109.53473680   5- 2-16  108.95763046

  5- 3- 7  110.42746945   5- 3- 9  111.18745700   6- 2-15  109.53473682   6- 2-16  108.95763048

  6- 4- 8  110.42492314   6- 4-10  111.18491071   7- 3- 9  107.80599949   8- 4-10  107.80345319

 11- 5-13  107.47541060  12- 6-14  107.47285314  15- 2-16  106.71252101

 NUCLEAR CHARGE:                   56
 NUMBER OF PRIMITIVE AOS:         247
 NUMBER OF SYMMETRY AOS:          241
 NUMBER OF CONTRACTIONS:          138   ( 138A   )
 NUMBER OF CORE ORBITALS:          10   (  10A   )
 NUMBER OF VALENCE ORBITALS:       34   (  34A   )


 NUCLEAR REPULSION ENERGY  312.12077842


 Eigenvalues of metric

         1 0.285E-02 0.305E-02 0.426E-02 0.634E-02 0.705E-02 0.151E-01 0.157E-01 0.196E-01


 Contracted 2-electron integrals neglected if value below      1.0D-16
 AO integral compression algorithm  1   Integral accuracy      1.0D-16

     374.079 MB (compressed) written to integral file ( 94.2%)

     Node minimum: 374.079 MB, node maximum: 374.079 MB


 NUMBER OF SORTED TWO-ELECTRON INTEGRALS:   45998436.     BUFFER LENGTH:  32768
 NUMBER OF SEGMENTS:   3  SEGMENT LENGTH:   15998004      RECORD LENGTH: 524288

 Memory used in sort:      16.56 MW

 SORT1 READ    49669917. AND WROTE    45797818. INTEGRALS IN    132 RECORDS. CPU TIME:     0.50 SEC, REAL TIME:     0.75 SEC
 SORT2 READ    45797818. AND WROTE    45998436. INTEGRALS IN   1427 RECORDS. CPU TIME:     0.38 SEC, REAL TIME:     0.54 SEC

 FILE SIZES:   FILE 1:   349.6 MBYTE,  FILE 4:   553.7 MBYTE,   TOTAL:    903.3 MBYTE

 OPERATOR DM      FOR CENTER  0  COORDINATES:    0.000000    0.000000    0.000000


 **********************************************************************************************************************************
 DATASETS  * FILE   NREC   LENGTH (MB)   RECORD NAMES
              1      19      349.82       500      610      700      900      950      970     1000      129      960     1100   
                                          VAR    BASINP    GEOM    SYMINP    ZMAT    AOBASIS   BASIS     P2S    ABASIS      S 
                                         1400     1410     1200     1210     1080     1600     1650     1300     1700   
                                           T        V       H0       H01     AOSYM     SMH    MOLCAS    ERIS     OPER   

 PROGRAMS   *        TOTAL       INT
 CPU TIMES  *         5.22      5.17
 REAL TIME  *         6.00 SEC
 DISK USED  *         1.28 GB      
 GA USED    *         0.01 MB       (max)       0.00 MB       (current)
 **********************************************************************************************************************************

1PROGRAM * RHF-SCF (CLOSED SHELL)       Authors: W. Meyer, H.-J. Werner


 NUMBER OF ELECTRONS:      28+   28-    SPACE SYMMETRY=1    SPIN SYMMETRY: Singlet 
 CONVERGENCE THRESHOLDS:    1.00E-10 (Density)    1.00E-13 (Energy)
 MAX. NUMBER OF ITERATIONS:      200
 INTERPOLATION TYPE:            DIIS
 INTERPOLATION STEPS:              2 (START)      1 (STEP)
 LEVEL SHIFTS:                  0.00 (CLOSED)  0.00 (OPEN) 



 Orbital guess generated from atomic densities. Full valence occupancy:   44

 Molecular orbital dump at record        2100.2

 ITERATION    DDIFF          GRAD             ENERGY        2-EL.EN.            DIPOLE MOMENTS         DIIS
    1      0.000D+00      0.000D+00      -592.64387859   1056.812885   -0.40680   -0.80694   -0.00138    0
    2      0.000D+00      0.396D-02      -592.70490557   1054.220293   -0.21034   -0.73858   -0.00110    1
    3      0.778D-02      0.132D-02      -592.71083894   1055.660178   -0.28187   -0.67629   -0.00116    2
    4      0.269D-02      0.539D-03      -592.71184719   1055.039203   -0.25530   -0.70907   -0.00126    3
    5      0.930D-03      0.776D-04      -592.71187301   1055.102711   -0.25136   -0.70054   -0.00123    4
    6      0.181D-03      0.268D-04      -592.71187555   1055.071836   -0.25310   -0.70081   -0.00125    5
    7      0.506D-04      0.619D-05      -592.71187576   1055.074937   -0.25244   -0.70069   -0.00125    6
    8      0.165D-04      0.174D-05      -592.71187578   1055.074082   -0.25242   -0.70056   -0.00125    7
    9      0.539D-05      0.454D-06      -592.71187578   1055.073963   -0.25241   -0.70051   -0.00125    7
   10      0.127D-05      0.162D-06      -592.71187578   1055.074001   -0.25240   -0.70051   -0.00125    7
   11      0.483D-06      0.344D-07      -592.71187578   1055.073987   -0.25240   -0.70051   -0.00125    7
   12      0.114D-06      0.695D-08      -592.71187578   1055.073992   -0.25240   -0.70051   -0.00125    7
   13      0.183D-07      0.291D-08      -592.71187578   1055.073989   -0.25240   -0.70051   -0.00125    7
   14      0.639D-08      0.854D-09      -592.71187578   1055.073990   -0.25240   -0.70051   -0.00125    7
   15      0.228D-08      0.279D-09      -592.71187578   1055.073990   -0.25240   -0.70051   -0.00125    7
   16      0.668D-09      0.854D-10      -592.71187578   1055.073990   -0.25240   -0.70051   -0.00125    8
   17      0.206D-09      0.187D-10      -592.71187578   1055.073990   -0.25240   -0.70051   -0.00125    7
   18      0.493D-10      0.569D-11      -592.71187578   1055.073990   -0.25240   -0.70051   -0.00125    7
   19      0.176D-10      0.197D-11      -592.71187578   1055.073990   -0.25240   -0.70051   -0.00125    8
   20      0.558D-11      0.658D-12      -592.71187578   1055.073990   -0.25240   -0.70051   -0.00125    7
   21      0.206D-11      0.226D-12      -592.71187578   1055.073990   -0.25240   -0.70051   -0.00125    0

 Final occupancy:  28

 !RHF STATE 1.1 Energy               -592.711875783080
 Nuclear energy                       312.12077842
 One-electron energy                -1432.36964923
 Two-electron energy                  527.53699503
 Virial quotient                       -1.00019509
 !RHF STATE 1.1 Dipole moment          -0.25239965    -0.70050879    -0.00125453
 Dipole moment /Debye                  -0.64149391    -1.78039914    -0.00318848

 Orbital energies:

         1.1          2.1          3.1          4.1          5.1          6.1          7.1          8.1          9.1         10.1
    -91.929814   -11.255135   -11.254821   -11.231066   -11.230838   -11.229202    -8.933678    -6.615570    -6.614140    -6.611939

        11.1         12.1         13.1         14.1         15.1         16.1         17.1         18.1         19.1         20.1
     -1.119614    -1.020369    -1.006111    -0.842214    -0.836025    -0.755865    -0.646411    -0.614616    -0.609671    -0.578673

        21.1         22.1         23.1         24.1         25.1         26.1         27.1         28.1         29.1         30.1
     -0.547326    -0.523691    -0.497742    -0.495060    -0.473346    -0.434439    -0.411660    -0.328791     0.176827     0.190221


 **********************************************************************************************************************************
 DATASETS  * FILE   NREC   LENGTH (MB)   RECORD NAMES
              1      19      349.82       500      610      700      900      950      970     1000      129      960     1100   
                                          VAR    BASINP    GEOM    SYMINP    ZMAT    AOBASIS   BASIS     P2S    ABASIS      S 
                                         1400     1410     1200     1210     1080     1600     1650     1300     1700   
                                           T        V       H0       H01     AOSYM     SMH    MOLCAS    ERIS     OPER   

              2       3        0.92       700     1000     2100   
                                         GEOM     BASIS     RHF  

 PROGRAMS   *        TOTAL       RHF       INT
 CPU TIMES  *        12.78      7.56      5.17
 REAL TIME  *        14.37 SEC
 DISK USED  *         1.28 GB      
 GA USED    *         0.01 MB       (max)       0.00 MB       (current)
 **********************************************************************************************************************************


1PROGRAM * CCSD (Closed-shell coupled cluster)     Authors: C. Hampel, H.-J. Werner, 1991, M. Deegan, P.J. Knowles, 1992


 Convergence thresholds:  THRVAR = 1.00D-08  THRDEN = 1.00D-12

 CCSD(T)     terms to be evaluated (factor= 1.000)


 Number of core orbitals:          10 (  10 )
 Number of closed-shell orbitals:  18 (  18 )
 Number of external orbitals:     110 ( 110 )

 Molecular orbitals read from record     2100.2  Type=RHF/CANONICAL (state 1.1)

 Number of N-1 electron functions:              18
 Number of N-2 electron functions:             171
 Number of singly external CSFs:              1980
 Number of doubly external CSFs:           1961190
 Total number of CSFs:                     1963171

 Length of J-op  integral file:               0.00 MB
 Length of K-op  integral file:               1.35 MB
 Length of 3-ext integral record:             0.00 MB

 Memory could be reduced to 32.58 Mwords without degradation in triples

 Integral transformation finished. Total CPU:   2.63 sec, npass=  1  Memory used:  30.89 MW

 Reference energy:                   -592.71187578

 MP2 singlet pair energy:              -0.53945715
 MP2 triplet pair energy:              -0.30435940
 MP2 correlation energy:               -0.84381655
 MP2 total energy:                   -593.55569233

 SCS-MP2 correlation energy:           -0.83672776   (PS=  1.200000  PT=  0.333333)
 SCS-MP2 total energy:               -593.54860354

 ITER.      SQ.NORM     CORR.ENERGY   TOTAL ENERGY   ENERGY CHANGE        DEN1      VAR(S)    VAR(P)  DIIS     TIME
   1      1.33970617    -0.91079452  -593.62267030    -0.06697797    -0.04301770  0.26D-02  0.55D-02  1  1    10.64
   2      1.36670539    -0.91614262  -593.62801840    -0.00534810    -0.02577815  0.69D-04  0.46D-03  2  2    18.74
   3      1.37204108    -0.91627054  -593.62814632    -0.00012792    -0.00303866  0.16D-04  0.28D-04  3  3    26.86
   4      1.37353532    -0.91632859  -593.62820438    -0.00005805    -0.00059422  0.76D-06  0.20D-05  4  4    34.98
   5      1.37377625    -0.91633520  -593.62821098    -0.00000661    -0.00007090  0.17D-06  0.16D-06  5  5    43.09
   6      1.37382198    -0.91633075  -593.62820653     0.00000445    -0.00001393  0.30D-07  0.14D-07  6  6    51.21
   7      1.37382959    -0.91633064  -593.62820642     0.00000011     0.00000064  0.53D-08  0.23D-08  6  2    59.33
   8      1.37383568    -0.91633032  -593.62820611     0.00000031    -0.00000125  0.73D-09  0.27D-09  6  1    67.45
   9      1.37383651    -0.91633026  -593.62820604     0.00000006     0.00000051  0.66D-10  0.44D-10  6  4    75.59
  10      1.37383739    -0.91633023  -593.62820601     0.00000003    -0.00000011  0.47D-11  0.35D-11  6  3    83.71
  11      1.37383740    -0.91633023  -593.62820601    -0.00000000     0.00000004  0.12D-11  0.54D-12  6  5    91.83
  12      1.37383737    -0.91633023  -593.62820601    -0.00000000     0.00000002  0.17D-12  0.77D-13  6  6    99.95
  13      1.37383731    -0.91633023  -593.62820602    -0.00000000     0.00000002  0.24D-13  0.11D-13  6  1   108.06
  14      1.37383730    -0.91633023  -593.62820602    -0.00000000     0.00000000  0.31D-14  0.12D-14  6  2   116.19
  15      1.37383731    -0.91633023  -593.62820602     0.00000000    -0.00000000  0.68D-15  0.31D-15  6  4   124.33
  16      1.37383731    -0.91633023  -593.62820602     0.00000000    -0.00000000  0.33D-16  0.23D-16  6  5   132.46
  17      1.37383731    -0.91633023  -593.62820602     0.00000000    -0.00000000  0.59D-17  0.25D-17  6  3   140.59
  18      1.37383731    -0.91633023  -593.62820602     0.00000000    -0.00000000  0.15D-17  0.43D-18  6  5   148.70
  19      1.37383731    -0.91633023  -593.62820602     0.00000000    -0.00000000  0.19D-18  0.66D-19  6  6   156.81
  20      1.37383731    -0.91633023  -593.62820602    -0.00000000     0.00000000  0.16D-19  0.69D-20  6  1   164.91
  21      1.37383731    -0.91633023  -593.62820602    -0.00000000     0.00000000  0.28D-20  0.11D-20  6  2   173.02

 Norm of t1 vector:      0.07016276      S-energy:    -0.00000000      T1 diagnostic:  0.00826876
                                                                       D1 diagnostic:  0.02110729


 Total CPU time for triples:    122.76 sec


 RESULTS
 =======

  Reference energy                   -592.711875783080
  CCSD singlet pair energy             -0.634213673649
  CCSD triplet pair energy             -0.282116559252
  CCSD correlation energy              -0.916330232902

  Triples (T) contribution             -0.029867855494
  Total correlation energy             -0.946198088396

  CCSD total energy                  -593.628206015982
  CCSD[T] energy                     -593.658693405501
  CCSD-T energy                      -593.657762699645
 !CCSD(T) total energy               -593.658073871476

 Timing summary (sec):

 STEP                 CPU(USER)    SYS     CPU(TOT)    WALL
 Transformation          2.74      0.23      2.97      2.97
 CCSD iterations       170.29      2.88    173.17    173.25
 Triples               122.76      2.24    125.00    125.02

 Program statistics:

 Available memory in ccsd:               999998604
 Min. memory needed in ccsd:               5123362
 Max. memory used in ccsd:                 6867976
 Max. memory used in cckext:               6836871 (21 integral passes)



 **********************************************************************************************************************************
 DATASETS  * FILE   NREC   LENGTH (MB)   RECORD NAMES
              1      20      486.19       500      610      700      900      950      970     1000      129      960     1100   
                                          VAR    BASINP    GEOM    SYMINP    ZMAT    AOBASIS   BASIS     P2S    ABASIS      S 
                                         1400     1410     1200     1210     1080     1600     1650     1300     1700     1380   
                                           T        V       H0       H01     AOSYM     SMH    MOLCAS    ERIS     OPER     JKOP   

              2       3        0.92       700     1000     2100   
                                         GEOM     BASIS     RHF  

 PROGRAMS   *        TOTAL   CCSD(T)       RHF       INT
 CPU TIMES  *       308.58    295.80      7.56      5.17
 REAL TIME  *       315.66 SEC
 DISK USED  *         1.28 GB      
 GA USED    *         0.01 MB       (max)       0.00 MB       (current)
 **********************************************************************************************************************************

        CCSD(T)         RHF-SCF 
   -593.65807387   -592.71187578
 **********************************************************************************************************************************
 Variable memory released
