
 Primary working directories    : /tmp/1221498.34.gen6.q
 Secondary working directories  : /tmp/1221498.34.gen6.q
 Wavefunction directory         : /home/vulcan/mel64643/wfu/
 Main file repository           : /tmp/1221498.34.gen6.q/

 ARCHNAME  : Linux/x86_64
 FC        : /opt/intel/compilers_and_libraries_2016.1.150/linux/bin/intel64/ifort
 FCVERSION : 16.0.1
 BLASLIB   : -mkl
 id        : ccgc

 Nodes     nprocs
 n078         1
 ga_uses_ma=false, calling ma_init with nominal heap.
 GA-space will be limited to   8.0 MW (determined by -G option)

 Using customized tuning parameters: mindgm=10; mindgv=16; mindgc=4; mindgr=1; noblas=0; mincuda=1000; minvec=7
 default implementation of scratch files=df  

 ***,Optimization of min3
 memory,1000,m
 gthresh,energy=1.0d-12,orbital=1.0d-10,oneint=1.0d-16,twoint=1.0d-16,optgrad=1.0d-6,compress=1.0d-13
 geomtyp=xyz
 
 
 
  bohr
  geometry = {
  H    0.0528738533    2.8513185945    0.0000000000
  C    0.1880709215    0.7770634167    0.0000000000
  O    2.1347521656   -0.4004141719   -0.0000000000
  O   -2.1501445605   -0.2337338409    0.0000000000
  H   -1.9336175247   -2.0540333296   -0.0000000000
 }
 
 basis=aug-cc-pvtz
 {rhf;maxit,200}
 {ccsd(t);maxit,200}

 Variables initialized (661), CPU time= 0.00 sec
 Commands  initialized (458), CPU time= 0.00 sec, 486 directives.
 Default parameters read. Elapsed time= 0.04 sec

 Checking input...
 Passed
1


                                         ***  PROGRAM SYSTEM MOLPRO  ***
                         Copyright, University College Cardiff Consultants Limited, 2008

                                    Version 2010.1 linked May 16 2016 07:17:05


 **********************************************************************************************************************************
 LABEL *   Optimization of min3                                                          
 Linux-4.4.3/n078(x86_64) 64 bit mpp version                                             DATE: 08-Feb-25          TIME: 16:36:35  
 **********************************************************************************************************************************

 SHA1:             9e8077add272b0f3cad6f7df79ec5211205f459d
 **********************************************************************************************************************************

 THRESHOLDS:

 ZERO    =  1.00D-12  ONEINT  =  1.00D-16  TWOINT  =  1.00D-16  PREFAC  =  1.00D-14  LOCALI  =  1.00D-09  EORDER  =  1.00D-04
 ENERGY  =  1.00D-12  ETEST   =  0.00D+00  EDENS   =  0.00D+00  THRDEDEF=  1.00D-06  GRADIENT=  1.00D-02  STEP    =  1.00D-03
 ORBITAL =  1.00D-10  CIVEC   =  1.00D-05  COEFF   =  1.00D-04  PRINTCI =  5.00D-02  PUNCHCI =  9.90D+01  OPTGRAD =  1.00D-06
 OPTENERG=  1.00D-06  OPTSTEP =  3.00D-04  THRGRAD =  1.00D-10  COMPRESS=  1.00D-13  VARMIN  =  1.00D-07  VARMAX  =  1.00D-03
 THRDOUB =  0.00D+00  THRDIV  =  1.00D-05  THRRED  =  1.00D-07  THRPSP  =  1.00D+00  THRDC   =  1.00D-10  THRCS   =  1.00D-10
 THRNRM  =  1.00D-08  THREQ   =  0.00D+00  THRDE   =  1.00D+00  THRREF  =  1.00D-05  SPARFAC =  1.00D+00  THRDLP  =  1.00D-07
 THRDIA  =  1.00D-10  THRDLS  =  1.00D-07  THRGPS  =  0.00D+00  THRKEX  =  0.00D+00  THRDIS  =  2.00D-01  THRVAR  =  1.00D-10
 THRLOC  =  1.00D-06  THRGAP  =  1.00D-06  THRLOCT = -1.00D+00  THRGAPT = -1.00D+00  THRORB  =  1.00D-06  THRMLTP =  0.00D+00
 THRCPQCI=  1.00D-10  KEXTA   =  0.00D+00  THRCOARS=  0.00D+00  SYMTOL  =  1.00D-06  GRADTOL =  1.00D-06  THROVL  =  1.00D-08
 THRORTH =  1.00D-08  GRID    =  1.00D-06  GRIDMAX =  1.00D-03  DTMAX   =  0.00D+00

 SETTING GEOMTYP        =    XYZ
 ZUNIT=BOHR
 

 Variable memory set to 1000000000 words,  buffer space   230000 words

 SETTING BASIS          =    AUG-CC-PVTZ


 Recomputing integrals since basis changed


 Using spherical harmonics

 Library entry H      S aug-cc-pVTZ          selected for orbital group  1
 Library entry H      P aug-cc-pVTZ          selected for orbital group  1
 Library entry H      D aug-cc-pVTZ          selected for orbital group  1
 Library entry C      S aug-cc-pVTZ          selected for orbital group  2
 Library entry C      P aug-cc-pVTZ          selected for orbital group  2
 Library entry C      D aug-cc-pVTZ          selected for orbital group  2
 Library entry C      F aug-cc-pVTZ          selected for orbital group  2
 Library entry O      S aug-cc-pVTZ          selected for orbital group  3
 Library entry O      P aug-cc-pVTZ          selected for orbital group  3
 Library entry O      D aug-cc-pVTZ          selected for orbital group  3
 Library entry O      F aug-cc-pVTZ          selected for orbital group  3

1PROGRAM * SEWARD (Integral evaluation for generally contracted gaussian basis sets)     Author: Roland Lindh, 1990

 Geometry written to block  1 of record 700


 Point group  Cs  



 ATOMIC COORDINATES

 NR  ATOM    CHARGE       X              Y              Z

   1  H       1.00    0.052873853    2.851318594    0.000000000
   2  C       6.00    0.188070921    0.777063417    0.000000000
   3  O       8.00    2.134752166   -0.400414172    0.000000000
   4  O       8.00   -2.150144560   -0.233733841    0.000000000
   5  H       1.00   -1.933617525   -2.054033330    0.000000000

 Bond lengths in Bohr (Angstrom)

 1-2  2.078656487  2-3  2.275087106  2-4  2.547344252  4-5  1.833132343
     ( 1.099977638)     ( 1.203924245)     ( 1.347996521)     ( 0.970051857)

 Bond angles

  1-2-3  124.89742190   1-2-4  109.64936944   2-4-5  106.59501945   3-2-4  125.45320866

 NUCLEAR CHARGE:                   24
 NUMBER OF PRIMITIVE AOS:         255
 NUMBER OF SYMMETRY AOS:          224
 NUMBER OF CONTRACTIONS:          184   ( 122A'  +  62A"  )
 NUMBER OF CORE ORBITALS:           3   (   3A'  +   0A"  )
 NUMBER OF VALENCE ORBITALS:       14   (  11A'  +   3A"  )


 NUCLEAR REPULSION ENERGY   70.00555725


 Eigenvalues of metric

         1 0.701E-04 0.168E-03 0.306E-03 0.395E-03 0.482E-03 0.770E-03 0.939E-03 0.128E-02
         2 0.354E-02 0.437E-02 0.671E-02 0.105E-01 0.143E-01 0.208E-01 0.275E-01 0.312E-01


 Contracted 2-electron integrals neglected if value below      1.0D-16
 AO integral compression algorithm  1   Integral accuracy      1.0D-16

     705.692 MB (compressed) written to integral file (100.0%)

     Node minimum: 705.692 MB, node maximum: 705.692 MB


 NUMBER OF SORTED TWO-ELECTRON INTEGRALS:   74019414.     BUFFER LENGTH:  32768
 NUMBER OF SEGMENTS:   5  SEGMENT LENGTH:   15997996      RECORD LENGTH: 524288

 Memory used in sort:      16.56 MW

 SORT1 READ    87886196. AND WROTE    73256934. INTEGRALS IN    212 RECORDS. CPU TIME:     0.77 SEC, REAL TIME:     1.20 SEC
 SORT2 READ    73256934. AND WROTE    74019414. INTEGRALS IN   2692 RECORDS. CPU TIME:     0.52 SEC, REAL TIME:     0.83 SEC

 FILE SIZES:   FILE 1:   603.5 MBYTE,  FILE 4:   889.2 MBYTE,   TOTAL:   1492.8 MBYTE

 OPERATOR DM      FOR CENTER  0  COORDINATES:    0.000000    0.000000    0.000000


 **********************************************************************************************************************************
 DATASETS  * FILE   NREC   LENGTH (MB)   RECORD NAMES
              1      19      603.76       500      610      700      900      950      970     1000      129      960     1100   
                                          VAR    BASINP    GEOM    SYMINP    ZMAT    AOBASIS   BASIS     P2S    ABASIS      S 
                                         1400     1410     1200     1210     1080     1600     1650     1300     1700   
                                           T        V       H0       H01     AOSYM     SMH    MOLCAS    ERIS     OPER   

 PROGRAMS   *        TOTAL       INT
 CPU TIMES  *         4.98      4.95
 REAL TIME  *         6.45 SEC
 DISK USED  *         2.20 GB      
 GA USED    *         0.00 MB       (max)       0.00 MB       (current)
 **********************************************************************************************************************************

1PROGRAM * RHF-SCF (CLOSED SHELL)       Authors: W. Meyer, H.-J. Werner


 NUMBER OF ELECTRONS:      12+   12-
 CONVERGENCE THRESHOLDS:    1.00E-10 (Density)    1.00E-13 (Energy)
 MAX. NUMBER OF ITERATIONS:      200
 INTERPOLATION TYPE:            DIIS
 INTERPOLATION STEPS:              2 (START)      1 (STEP)
 LEVEL SHIFTS:                  0.00 (CLOSED)  0.00 (OPEN) 



 Orbital guess generated from atomic densities. Full valence occupancy:   14   3

 Molecular orbital dump at record        2100.2

 Initial alpha occupancy:  10   2
 Initial beta  occupancy:  10   2
 Wave function symmetry:    1

 ITERATION    DDIFF          GRAD             ENERGY        2-EL.EN.            DIPOLE MOMENTS         DIIS
    1      0.000D+00      0.000D+00      -188.76097159    278.603583   -1.12706    0.17176    0.00000    0
    2      0.000D+00      0.651D-02      -188.80743768    276.513659   -0.43176   -0.07269    0.00000    1
    3      0.108D-01      0.474D-02      -188.84229113    277.731332   -0.73085    0.15999    0.00000    2
    4      0.445D-02      0.570D-03      -188.84322921    277.663211   -0.66199    0.14465    0.00000    3
    5      0.793D-03      0.269D-03      -188.84343363    277.637364   -0.67270    0.15366    0.00000    4
    6      0.354D-03      0.806D-04      -188.84347159    277.667288   -0.66482    0.15479    0.00000    5
    7      0.143D-03      0.340D-04      -188.84348011    277.657121   -0.66292    0.15422    0.00000    6
    8      0.815D-04      0.121D-04      -188.84348107    277.661867   -0.66223    0.15363    0.00000    7
    9      0.302D-04      0.376D-05      -188.84348116    277.660848   -0.66202    0.15353    0.00000    8
   10      0.911D-05      0.978D-06      -188.84348116    277.660972   -0.66194    0.15345    0.00000    7
   11      0.257D-05      0.284D-06      -188.84348116    277.660971   -0.66191    0.15345    0.00000    8
   12      0.769D-06      0.591D-07      -188.84348116    277.660961   -0.66191    0.15345    0.00000    8
   13      0.113D-06      0.213D-07      -188.84348116    277.660965   -0.66191    0.15345    0.00000    8
   14      0.409D-07      0.499D-08      -188.84348116    277.660965   -0.66191    0.15345    0.00000    7
   15      0.109D-07      0.185D-08      -188.84348116    277.660965   -0.66191    0.15345    0.00000    7
   16      0.292D-08      0.665D-09      -188.84348116    277.660965   -0.66191    0.15345    0.00000    7
   17      0.108D-08      0.256D-09      -188.84348116    277.660965   -0.66191    0.15345    0.00000    7
   18      0.476D-09      0.845D-10      -188.84348116    277.660965   -0.66191    0.15345    0.00000    7
   19      0.204D-09      0.250D-10      -188.84348116    277.660965   -0.66191    0.15345    0.00000    8
   20      0.689D-10      0.663D-11      -188.84348116    277.660965   -0.66191    0.15345    0.00000    8
   21      0.150D-10      0.201D-11      -188.84348116    277.660965   -0.66191    0.15345    0.00000    8
   22      0.816D-11      0.598D-12      -188.84348116    277.660965   -0.66191    0.15345    0.00000    8
   23      0.523D-11      0.254D-12      -188.84348116    277.660965   -0.66191    0.15345    0.00000    8
   24      0.293D-11      0.155D-12      -188.84348116    277.660965   -0.66191    0.15345    0.00000    0

 Final occupancy:  10   2

 !RHF STATE 1.1 Energy               -188.843481163250
 Nuclear energy                        70.00555725
 One-electron energy                 -397.67952078
 Two-electron energy                  138.83048237
 Virial quotient                       -1.00196705
 !RHF STATE 1.1 Dipole moment          -0.66190989     0.15345444     0.00000000
 Dipole moment /Debye                  -1.68229693     0.39001673     0.00000000

 Orbital energies:

         1.1          2.1          3.1          4.1          5.1          6.1          7.1          8.1          9.1         10.1
    -20.630514   -20.569490   -11.399536    -1.476912    -1.378597    -0.896336    -0.724503    -0.714715    -0.606629    -0.475361

        11.1         12.1
      0.029415     0.037365

         1.2          2.2          3.2          4.2
     -0.638097    -0.498589     0.074204     0.143404


 **********************************************************************************************************************************
 DATASETS  * FILE   NREC   LENGTH (MB)   RECORD NAMES
              1      19      603.76       500      610      700      900      950      970     1000      129      960     1100   
                                          VAR    BASINP    GEOM    SYMINP    ZMAT    AOBASIS   BASIS     P2S    ABASIS      S 
                                         1400     1410     1200     1210     1080     1600     1650     1300     1700   
                                           T        V       H0       H01     AOSYM     SMH    MOLCAS    ERIS     OPER   

              2       3        0.73       700     1000     2100   
                                         GEOM     BASIS     RHF  

 PROGRAMS   *        TOTAL       RHF       INT
 CPU TIMES  *        11.93      6.95      4.95
 REAL TIME  *        15.28 SEC
 DISK USED  *         2.20 GB      
 GA USED    *         0.00 MB       (max)       0.00 MB       (current)
 **********************************************************************************************************************************


1PROGRAM * CCSD (Closed-shell coupled cluster)     Authors: C. Hampel, H.-J. Werner, 1991, M. Deegan, P.J. Knowles, 1992


 Convergence thresholds:  THRVAR = 1.00D-08  THRDEN = 1.00D-12

 CCSD(T)     terms to be evaluated (factor= 1.000)


 Number of core orbitals:           3 (   3   0 )
 Number of closed-shell orbitals:   9 (   7   2 )
 Number of external orbitals:     172 ( 112  60 )

 Molecular orbitals read from record     2100.2  Type=RHF/CANONICAL (state 1.1)

 Number of N-1 electron functions:               9
 Number of N-2 electron functions:              45
 Number of singly external CSFs:               904
 Number of doubly external CSFs:            616750
 Total number of CSFs:                      617655

 Length of J-op  integral file:               0.00 MB
 Length of K-op  integral file:               1.33 MB
 Length of 3-ext integral record:             0.00 MB

 Memory could be reduced to 31.84 Mwords without degradation in triples

 Integral transformation finished. Total CPU:   1.15 sec, npass=  1  Memory used:   9.53 MW

 Reference energy:                   -188.84348116

 MP2 singlet pair energy:              -0.39702231
 MP2 triplet pair energy:              -0.24621201
 MP2 correlation energy:               -0.64323432
 MP2 total energy:                   -189.48671548

 SCS-MP2 correlation energy:           -0.62962535   (PS=  1.200000  PT=  0.333333)
 SCS-MP2 total energy:               -189.47310651

 ITER.      SQ.NORM     CORR.ENERGY   TOTAL ENERGY   ENERGY CHANGE        DEN1      VAR(S)    VAR(P)  DIIS     TIME
   1      1.15874457    -0.64656111  -189.49004227    -0.00332679     0.01575440  0.51D-02  0.34D-02  1  1     2.41
   2      1.17064961    -0.64614857  -189.48962973     0.00041254    -0.01474275  0.11D-03  0.49D-03  2  2     3.79
   3      1.17647817    -0.64644773  -189.48992889    -0.00029916    -0.00275158  0.11D-03  0.27D-04  3  3     5.15
   4      1.17907533    -0.64631617  -189.48979734     0.00013156    -0.00097536  0.12D-04  0.50D-05  4  4     6.50
   5      1.18026927    -0.64629167  -189.48977283     0.00002450    -0.00028027  0.14D-05  0.46D-06  5  5     7.87
   6      1.18056243    -0.64626819  -189.48974936     0.00002348    -0.00003070  0.12D-06  0.55D-07  6  6     9.24
   7      1.18062208    -0.64626465  -189.48974581     0.00000355    -0.00000672  0.15D-07  0.10D-07  6  2    10.62
   8      1.18062727    -0.64626485  -189.48974601    -0.00000020     0.00000198  0.35D-08  0.12D-08  6  1    11.99
   9      1.18063101    -0.64626451  -189.48974567     0.00000035     0.00000034  0.60D-09  0.19D-09  6  3    13.37
  10      1.18063088    -0.64626464  -189.48974580    -0.00000014     0.00000016  0.13D-09  0.34D-10  6  5    14.73
  11      1.18063134    -0.64626467  -189.48974583    -0.00000003     0.00000008  0.16D-10  0.57D-11  6  4    16.10
  12      1.18063139    -0.64626467  -189.48974583     0.00000000    -0.00000002  0.27D-11  0.82D-12  6  6    17.47
  13      1.18063123    -0.64626469  -189.48974585    -0.00000002     0.00000003  0.32D-12  0.17D-12  6  1    18.83
  14      1.18063118    -0.64626469  -189.48974585     0.00000000     0.00000001  0.47D-13  0.24D-13  6  2    20.21
  15      1.18063115    -0.64626469  -189.48974586    -0.00000000     0.00000001  0.11D-13  0.34D-14  6  3    21.58
  16      1.18063114    -0.64626469  -189.48974586    -0.00000000     0.00000000  0.23D-14  0.71D-15  6  5    22.95
  17      1.18063114    -0.64626469  -189.48974586     0.00000000    -0.00000000  0.38D-15  0.16D-15  6  4    24.33
  18      1.18063114    -0.64626469  -189.48974586     0.00000000    -0.00000000  0.72D-16  0.24D-16  6  6    25.69
  19      1.18063115    -0.64626469  -189.48974586     0.00000000    -0.00000000  0.15D-16  0.38D-17  6  1    27.07
  20      1.18063115    -0.64626469  -189.48974586     0.00000000     0.00000000  0.39D-17  0.11D-17  6  2    28.44
  21      1.18063115    -0.64626469  -189.48974586    -0.00000000     0.00000000  0.32D-18  0.15D-18  6  4    29.80
  22      1.18063114    -0.64626469  -189.48974586     0.00000000     0.00000000  0.39D-19  0.26D-19  6  3    31.17
  23      1.18063114    -0.64626469  -189.48974586    -0.00000000     0.00000000  0.48D-20  0.39D-20  6  5    32.55
  24      1.18063114    -0.64626469  -189.48974586     0.00000000    -0.00000000  0.17D-20  0.35D-21  6  6    33.93
  25      1.18063114    -0.64626469  -189.48974586    -0.00000000     0.00000000  0.48D-21  0.11D-21  6  1    35.31

 Norm of t1 vector:      0.10035167      S-energy:     0.00000000      T1 diagnostic:  0.01672528
                                                                       D1 diagnostic:  0.05370844


 Total CPU time for triples:     22.23 sec


 RESULTS
 =======

  Reference energy                   -188.843481163250
  CCSD singlet pair energy             -0.429720758921
  CCSD triplet pair energy             -0.216543933504
  CCSD correlation energy              -0.646264692423

  Triples (T) contribution             -0.027992209031
  Total correlation energy             -0.674256901454

  CCSD total energy                  -189.489745855674
  CCSD[T] energy                     -189.519475697639
  CCSD-T energy                      -189.517030955442
 !CCSD(T) total energy               -189.517738064705

 Timing summary (sec):

 STEP                 CPU(USER)    SYS     CPU(TOT)    WALL
 Transformation          1.17      0.18      1.35      1.36
 CCSD iterations        34.14      2.15     36.29     36.89
 Triples                22.23      0.47     22.70     22.72

 Program statistics:

 Available memory in ccsd:               999999576
 Min. memory needed in ccsd:               1814795
 Max. memory used in ccsd:                 2349055
 Max. memory used in cckext:               2687966 (25 integral passes)



 **********************************************************************************************************************************
 DATASETS  * FILE   NREC   LENGTH (MB)   RECORD NAMES
              1      20      707.89       500      610      700      900      950      970     1000      129      960     1100   
                                          VAR    BASINP    GEOM    SYMINP    ZMAT    AOBASIS   BASIS     P2S    ABASIS      S 
                                         1400     1410     1200     1210     1080     1600     1650     1300     1700     1380   
                                           T        V       H0       H01     AOSYM     SMH    MOLCAS    ERIS     OPER     JKOP   

              2       3        0.73       700     1000     2100   
                                         GEOM     BASIS     RHF  

 PROGRAMS   *        TOTAL   CCSD(T)       RHF       INT
 CPU TIMES  *        69.49     57.56      6.95      4.95
 REAL TIME  *        76.40 SEC
 DISK USED  *         2.20 GB      
 GA USED    *         0.00 MB       (max)       0.00 MB       (current)
 **********************************************************************************************************************************

        CCSD(T)         RHF-SCF 
   -189.51773806   -188.84348116
 **********************************************************************************************************************************
 Variable memory released
