
    -----------------------------------------------------------------------
          Psi4: An Open-Source Ab Initio Electronic Structure Package
                               Psi4 1.4a2.dev629 

                         Git: Rev {master} 2938fc2 dirty


    D. G. A. Smith, L. A. Burns, A. C. Simmonett, R. M. Parrish,
    M. C. Schieber, R. Galvelis, P. Kraus, H. Kruse, R. Di Remigio,
    A. Alenaizan, A. M. James, S. Lehtola, J. P. Misiewicz, M. Scheurer,
    R. A. Shaw, J. B. Schriber, Y. Xie, Z. L. Glick, D. A. Sirianni,
    J. S. O'Brien, J. M. Waldrop, A. Kumar, E. G. Hohenstein,
    B. P. Pritchard, B. R. Brooks, H. F. Schaefer III, A. Yu. Sokolov,
    K. Patkowski, A. E. DePrince III, U. Bozkaya, R. A. King,
    F. A. Evangelista, J. M. Turney, T. D. Crawford, C. D. Sherrill,
    J. Chem. Phys. 152(18) 184108 (2020). https://doi.org/10.1063/5.0006002

                            Additional Code Authors
    E. T. Seidl, C. L. Janssen, E. F. Valeev, M. L. Leininger,
    J. F. Gonthier, R. M. Richard, H. R. McAlexander, M. Saitow, X. Wang,
    P. Verma, and M. H. Lechner

             Previous Authors, Complete List of Code Contributors,
                       and Citations for Specific Modules
    https://github.com/psi4/psi4/blob/master/codemeta.json
    https://github.com/psi4/psi4/graphs/contributors
    http://psicode.org/psi4manual/master/introduction.html#citing-psifour

    -----------------------------------------------------------------------


    Psi4 started on: Wednesday, 17 November 2021 12:18PM

    Process ID: 25941
    Host:       n083
    PSIDATADIR: /opt/psi/4/master/share/psi4
    Memory:     500.0 MiB
    Threads:    4
    
  ==> Input File <==

--------------------------------------------------------------------------
import os
memory 14 GB 
 
molecule {
 O    0.0021092132    0.0000000000    1.5171367807
 C   -0.0017804777   -1.3891732218   -0.8072060561
 C   -0.0017804777    1.3891732218   -0.8072060561
 H   -1.7381735668   -2.3898801838   -1.2201745631
 H    1.7388994379   -2.3900311654   -1.2189380011
 H   -1.7381735668    2.3898801838   -1.2201745631
 H    1.7388994379    2.3900311654   -1.2189380011
units bohr
}

basis {

assign 6-31g_2dfp_

[ 6-31g_2dfp_ ]

spherical

!----------------------------------------------------------------------
! Basis Set Exchange
! Version v0.8.13
! https://www.basissetexchange.org
!----------------------------------------------------------------------
!   Basis set: 6-31G(2df,p)
! Description: 6-31G(2df,p)
!        Role: orbital
!     Version: 0  (Data from the original Basis Set Exchange)
!----------------------------------------------------------------------


****
H     0
S    3   1.00
     18.7311370              0.03349460
      2.8253937              0.23472695
      0.6401217              0.81375733
S    1   1.00
      0.1612778              1.00000000
P    1   1.00
      1.5000000              1.0000000
P    1   1.00
      0.3750000              1.0000000
****
B     0
S    6   1.00
   2068.8823000              0.0018663
    310.6495700              0.0142515
     70.6830330              0.0695516
     19.8610800              0.2325729
      6.2993048              0.4670787
      2.1270270              0.3634314
SP   3   1.00
      4.7279710             -0.1303938              0.0745976
      1.1903377             -0.1307889              0.3078467
      0.3594117              1.1309444              0.7434568
SP   1   1.00
      0.1267512              1.0000000              1.0000000
D    1   1.00
      0.8020000              1.0000000
D    1   1.00
      0.2005000              1.0000000
F    1   1.00
      0.5000000              1.0000000
****
C     0
S    6   1.00
   3047.5249000              0.0018347
    457.3695100              0.0140373
    103.9486900              0.0688426
     29.2101550              0.2321844
      9.2866630              0.4679413
      3.1639270              0.3623120
SP   3   1.00
      7.8682724             -0.1193324              0.0689991
      1.8812885             -0.1608542              0.3164240
      0.5442493              1.1434564              0.7443083
SP   1   1.00
      0.1687144              1.0000000              1.0000000
D    1   1.00
      1.2520000              1.0000000
D    1   1.00
      0.3130000              1.0000000
F    1   1.00
      0.8000000              1.0000000
****
N     0
S    6   1.00
   4173.5110000              0.0018348
    627.4579000              0.0139950
    142.9021000              0.0685870
     40.2343300              0.2322410
     12.8202100              0.4690700
      4.3904370              0.3604550
SP   3   1.00
     11.6263580             -0.1149610              0.0675800
      2.7162800             -0.1691180              0.3239070
      0.7722180              1.1458520              0.7408950
SP   1   1.00
      0.2120313              1.0000000              1.0000000
D    1   1.00
      1.8260000              1.0000000
D    1   1.00
      0.4565000              1.0000000
F    1   1.00
      1.0000000              1.0000000
****
O     0
S    6   1.00
   5484.6717000              0.0018311
    825.2349500              0.0139501
    188.0469600              0.0684451
     52.9645000              0.2327143
     16.8975700              0.4701930
      5.7996353              0.3585209
SP   3   1.00
     15.5396160             -0.1107775              0.0708743
      3.5999336             -0.1480263              0.3397528
      1.0137618              1.1307670              0.7271586
SP   1   1.00
      0.2700058              1.0000000              1.0000000
D    1   1.00
      2.5840000              1.0000000
D    1   1.00
      0.6460000              1.0000000
F    1   1.00
      1.4000000              1.0000000
****
F     0
S    6   1.00
   7001.7130900              0.0018196169
   1051.3660900              0.0139160796
    239.2856900              0.0684053245
     67.3974453              0.233185760
     21.5199573              0.471267439
      7.40310130             0.356618546
SP   3   1.00
     20.8479528             -0.108506975            0.0716287243
      4.80830834            -0.146451658            0.3459121030
      1.34406986             1.128688580            0.7224699570
SP   1   1.00
      0.358151393            1.0000000              1.0000000
D    1   1.00
      3.5000000              1.0000000
D    1   1.00
      0.8750000              1.0000000
F    1   1.00
      1.8500000              1.0000000
****
Al     0
S    6   1.00
  13983.1000000              0.00194267
   2098.7500000              0.0148599
    477.7050000              0.0728494
    134.3600000              0.2468300
     42.8709000              0.4872580
     14.5189000              0.3234960
SP   6   1.00
    239.6680000             -0.00292619             0.00460285
     57.4419000             -0.0374080              0.0331990
     18.2859000             -0.1144870              0.1362820
      6.5991400              0.1156350              0.3304760
      2.4904900              0.6125950              0.4491460
      0.9445400              0.3937990              0.2657040
SP   3   1.00
      1.2779000             -0.2276060             -0.0175130
      0.3975900              0.00144583             0.2445330
      0.1600950              1.0927900              0.8049340
SP   1   1.00
      0.0556577              1.0000000              1.0000000
D    1   1.00
      0.6500000              1.0000000
D    1   1.00
      0.1625000              1.0000000
F    1   1.00
      0.2500000              1.0000000
****
Si     0
S    6   1.00
  16115.9000000              0.00195948
   2425.5800000              0.01492880
    553.8670000              0.07284780
    156.3400000              0.24613000
     50.0683000              0.48591400
     17.0178000              0.32500200
SP   6   1.00
    292.7180000             -0.00278094             0.00443826
     69.8731000             -0.03571460             0.03266790
     22.3363000             -0.11498500             0.13472100
      8.1503900              0.09356340             0.32867800
      3.1345800              0.60301700             0.44964000
      1.2254300              0.41895900             0.26137200
SP   3   1.00
      1.7273800             -0.24463000            -0.01779510
      0.5729220              0.00431572             0.25353900
      0.2221920              1.09818000             0.80066900
SP   1   1.00
      0.0778369              1.00000000             1.00000000
D    1   1.00
      0.9000000              1.0000000
D    1   1.00
      0.2250000              1.0000000
F    1   1.00
      0.3200000              1.0000000
****
P     0
S    6   1.00
  19413.3000000              0.0018516
   2909.4200000              0.0142062
    661.3640000              0.0699995
    185.7590000              0.2400790
     59.1943000              0.4847620
     20.0310000              0.3352000
SP   6   1.00
    339.4780000             -0.00278217             0.00456462
     81.0101000             -0.0360499              0.03369360
     25.8780000             -0.1166310              0.13975500
      9.4522100              0.0968328              0.33936200
      3.6656600              0.6144180              0.45092100
      1.4674600              0.4037980              0.23858600
SP   3   1.00
      2.1562300             -0.2529230             -0.01776530
      0.7489970              0.0328517              0.27405800
      0.2831450              1.0812500              0.78542100
SP   1   1.00
      0.0998317              1.0000000              1.00000000
D    1   1.00
      1.1000000              1.0000000
D    1   1.00
      0.2750000              1.0000000
F    1   1.00
      0.4500000              1.0000000
****
S     0
S    6   1.00
  21917.1000000              0.0018690
   3301.4900000              0.0142300
    754.1460000              0.0696960
    212.7110000              0.2384870
     67.9896000              0.4833070
     23.0515000              0.3380740
SP   6   1.00
    423.7350000             -0.0023767              0.0040610
    100.7100000             -0.0316930              0.0306810
     32.1599000             -0.1133170              0.1304520
     11.8079000              0.0560900              0.3272050
      4.6311000              0.5922550              0.4528510
      1.8702500              0.4550060              0.2560420
SP   3   1.00
      2.6158400             -0.2503740             -0.0145110
      0.9221670              0.0669570              0.3102630
      0.3412870              1.0545100              0.7544830
SP   1   1.00
      0.1171670              1.0000000              1.0000000
D    1   1.00
      1.3000000              1.0000000
D    1   1.00
      0.3250000              1.0000000
F    1   1.00
      0.5500000              1.0000000
****
Cl     0
S    6   1.00
  25180.1000000              0.0018330
   3780.3500000              0.0140340
    860.4740000              0.0690970
    242.1450000              0.2374520
     77.3349000              0.4830340
     26.2470000              0.3398560
SP   6   1.00
    491.7650000             -0.0022974              0.0039894
    116.9840000             -0.0307140              0.0303180
     37.4153000             -0.1125280              0.1298800
     13.7834000              0.0450160              0.3279510
      5.4521500              0.5893530              0.4535270
      2.2258800              0.4652060              0.2521540
SP   3   1.00
      3.1864900             -0.2518300             -0.0142990
      1.1442700              0.0615890              0.3235720
      0.4203770              1.0601800              0.7435070
SP   1   1.00
      0.1426570              1.0000000              1.0000000
D    1   1.00
      1.5000000              1.0000000
D    1   1.00
      0.3750000              1.0000000
F    1   1.00
      0.7000000              1.0000000
****
}


set {
reference rhf                          
freeze_core true
e_convergence 10                       
d_convergence 10                      
dft_spherical_points 1202
dft_radial_points 99
}

e = energy('b3lyp')

print_out('Grab this energy {0}'.format(e))
--------------------------------------------------------------------------

  Memory set to  13.039 GiB by Python driver.

Scratch directory: /tmp/

*** tstart() called on n083
*** at Wed Nov 17 12:18:17 2021

   => Loading Basis Set <=

    Name: ANONYMOUS8861ECF0
    Role: ORBITAL
    Keyword: BASIS
    atoms 1   entry O          line    90 inputblock 6-31g_2dfp_ 
    atoms 2-3 entry C          line    48 inputblock 6-31g_2dfp_ 
    atoms 4-7 entry H          line    15 inputblock 6-31g_2dfp_ 


         ---------------------------------------------------------
                                   SCF
               by Justin Turney, Rob Parrish, Andy Simmonett
                          and Daniel G. A. Smith
                              RKS Reference
                        4 Threads,  13351 MiB Core
         ---------------------------------------------------------

  ==> Geometry <==

    Molecular point group: cs
    Full point group: Cs

    Geometry (in Bohr), charge = 0, multiplicity = 1:

       Center              X                  Y                   Z               Mass       
    ------------   -----------------  -----------------  -----------------  -----------------
         O           -0.002280285768     1.517656231902     0.000000000000    15.994914619570
         C            0.001609405132    -0.806686604898    -1.389173221800    12.000000000000
         C            0.001609405132    -0.806686604898     1.389173221800    12.000000000000
         H            1.738002494232    -1.219655111898    -2.389880183800     1.007825032230
         H           -1.739070510468    -1.218418549898    -2.390031165400     1.007825032230
         H            1.738002494232    -1.219655111898     2.389880183800     1.007825032230
         H           -1.739070510468    -1.218418549898     2.390031165400     1.007825032230

  Running in cs symmetry.

  Rotational constants: A =      0.85227  B =      0.73841  C =      0.47108 [cm^-1]
  Rotational constants: A =  25550.55869  B =  22136.94499  C =  14122.59046 [MHz]
  Nuclear repulsion =   75.146906368634006

  Charge       = 0
  Multiplicity = 1
  Electrons    = 24
  Nalpha       = 12
  Nbeta        = 12

  ==> Algorithm <==

  SCF Algorithm Type is DF.
  DIIS enabled.
  MOM disabled.
  Fractional occupation disabled.
  Guess Type is SAD.
  Energy threshold   = 1.00e-10
  Density threshold  = 1.00e-10
  Integral threshold = 0.00e+00

  ==> Primary Basis <==

  Basis Set: ANONYMOUS8861ECF0
    Blend: 6-31G_2DFP_
    Number of shells: 40
    Number of basis function: 110
    Number of Cartesian functions: 125
    Spherical Harmonics?: true
    Max angular momentum: 3

  ==> DFT Potential <==

   => Composite Functional: B3LYP <= 

    B3LYP Hyb-GGA Exchange-Correlation Functional

    P. J. Stephens, F. J. Devlin, C. F. Chabalowski, and M. J. Frisch, J. Phys. Chem. 98, 11623 (1994)

    Deriv               =              1
    GGA                 =           TRUE
    Meta                =          FALSE

    Exchange Hybrid     =           TRUE
    MP2 Hybrid          =          FALSE

   => Exchange Functionals <=

    0.0800   Slater exchange
    0.7200         Becke 88

   => Exact (HF) Exchange <=

    0.2000               HF 

   => Correlation Functionals <=

    0.1900   Vosko, Wilk & Nusair (VWN5_RPA)
    0.8100   Lee, Yang & Parr

   => Molecular Quadrature <=

    Radial Scheme          =       TREUTLER
    Pruning Scheme         =           NONE
    Nuclear Scheme         =       TREUTLER

    BS radius alpha        =              1
    Pruning alpha          =              1
    Radial Points          =             99
    Spherical Points       =           1202
    Total Points           =         785546
    Total Blocks           =           5462
    Max Points             =            256
    Max Functions          =            110
    Weights Tolerance      =       1.00E-15

   => Loading Basis Set <=

    Name: (ANONYMOUS8861ECF0 AUX)
    Role: JKFIT
    Keyword: DF_BASIS_SCF
    atoms 1   entry O          line   318 file /opt/psi/4/master/share/psi4/basis/def2-universal-jkfit.gbs 
    atoms 2-3 entry C          line   198 file /opt/psi/4/master/share/psi4/basis/def2-universal-jkfit.gbs 
    atoms 4-7 entry H          line    18 file /opt/psi/4/master/share/psi4/basis/def2-universal-jkfit.gbs 

  ==> Integral Setup <==

  DFHelper Memory: AOs need 0.030 GiB; user supplied 7.569 GiB. Using in-core AOs.

  ==> MemDFJK: Density-Fitted J/K Matrices <==

    J tasked:                   Yes
    K tasked:                   Yes
    wK tasked:                   No
    OpenMP threads:               4
    Memory [MiB]:              7750
    Algorithm:                 Core
    Schwarz Cutoff:           1E-12
    Mask sparsity (%):       0.0000
    Fitting Condition:        1E-10

   => Auxiliary Basis Set <=

  Basis Set: (ANONYMOUS8861ECF0 AUX)
    Blend: DEF2-UNIVERSAL-JKFIT
    Number of shells: 99
    Number of basis function: 299
    Number of Cartesian functions: 351
    Spherical Harmonics?: true
    Max angular momentum: 4

  Cached 100.0% of DFT collocation blocks in 2.210 [GiB].

  Minimum eigenvalue in the overlap matrix is 2.9072137841E-03.
  Reciprocal condition number of the overlap matrix is 5.5239124278E-04.
    Using symmetric orthogonalization.

  ==> Pre-Iterations <==

  SCF Guess: Superposition of Atomic Densities via on-the-fly atomic UHF (no occupation information).

   -------------------------
    Irrep   Nso     Nmo    
   -------------------------
     A'        59      59 
     A"        51      51 
   -------------------------
    Total     110     110
   -------------------------

  ==> Iterations <==

                           Total Energy        Delta E     RMS |[F,P]|

   @DF-RKS iter SAD:  -153.42912104459981   -1.53429e+02   0.00000e+00 
   @DF-RKS iter   1:  -153.66166113580041   -2.32540e-01   6.57105e-03 DIIS
   @DF-RKS iter   2:  -153.61777172686081    4.38894e-02   7.99994e-03 DIIS
   @DF-RKS iter   3:  -153.79205664409682   -1.74285e-01   1.44087e-03 DIIS
   @DF-RKS iter   4:  -153.79663364716259   -4.57700e-03   4.31972e-04 DIIS
   @DF-RKS iter   5:  -153.79705976977539   -4.26123e-04   4.10462e-05 DIIS
   @DF-RKS iter   6:  -153.79706364336272   -3.87359e-06   2.87791e-06 DIIS
   @DF-RKS iter   7:  -153.79706366971055   -2.63478e-08   3.65394e-07 DIIS
   @DF-RKS iter   8:  -153.79706367012085   -4.10296e-10   8.23327e-08 DIIS
   @DF-RKS iter   9:  -153.79706367014305   -2.21974e-11   7.64886e-09 DIIS
   @DF-RKS iter  10:  -153.79706367014313   -8.52651e-14   4.65776e-10 DIIS
   @DF-RKS iter  11:  -153.79706367014302    1.13687e-13   1.99747e-10 DIIS
   @DF-RKS iter  12:  -153.79706367014330   -2.84217e-13   2.82554e-11 DIIS
  Energy and wave function converged.


  ==> Post-Iterations <==

    Orbital Energies [Eh]
    ---------------------

    Doubly Occupied:                                                      

       1Ap   -19.154736     2Ap   -10.232927     1App  -10.232692  
       3Ap    -1.065389     4Ap    -0.674358     2App   -0.632092  
       5Ap    -0.510230     6Ap    -0.477921     3App   -0.391275  
       4App   -0.386122     7Ap    -0.312171     8Ap    -0.268860  

    Virtual:                                                              

       9Ap     0.093879     5App    0.101341    10Ap     0.121840  
      11Ap     0.134577     6App    0.137728     7App    0.199521  
       8App    0.263070    12Ap     0.400912    13Ap     0.431575  
      14Ap     0.481849     9App    0.481887    15Ap     0.508976  
      10App    0.513944    16Ap     0.548363    11App    0.574633  
      17Ap     0.605701    12App    0.627102    13App    0.630911  
      18Ap     0.663135    19Ap     0.746211    14App    0.802238  
      15App    0.864392    20Ap     0.948515    21Ap     0.966595  
      22Ap     0.981524    16App    1.004860    17App    1.054717  
      23Ap     1.069386    18App    1.117931    24Ap     1.118323  
      19App    1.147808    25Ap     1.159769    26Ap     1.221360  
      20App    1.247663    27Ap     1.306435    21App    1.391474  
      22App    1.397180    23App    1.508993    28Ap     1.564880  
      24App    1.707991    29Ap     1.745947    30Ap     1.787938  
      31Ap     1.817332    32Ap     1.935865    25App    1.971953  
      26App    2.051680    33Ap     2.073438    27App    2.192496  
      28App    2.303446    34Ap     2.389554    35Ap     2.754210  
      36Ap     2.785316    37Ap     2.873918    38Ap     2.925965  
      39Ap     2.999296    29App    3.045682    30App    3.121279  
      40Ap     3.150124    31App    3.175358    32App    3.180660  
      41Ap     3.195494    33App    3.286902    42Ap     3.295286  
      34App    3.372988    43Ap     3.404954    44Ap     3.444866  
      35App    3.512240    36App    3.666696    45Ap     3.787238  
      37App    3.837731    38App    3.855227    39App    3.948689  
      46Ap     4.094879    47Ap     4.202134    40App    4.220071  
      48Ap     4.228613    41App    4.293372    49Ap     4.331847  
      42App    4.339566    43App    4.414591    50Ap     4.443299  
      44App    4.949085    51Ap     4.999731    52Ap     5.018512  
      45App    5.193087    46App    5.264350    53Ap     5.273339  
      47App    5.310484    54Ap     5.459897    55Ap     5.653849  
      56Ap     5.704787    48App    5.772986    49App    5.828368  
      57Ap     6.968708    50App    7.147979    58Ap     7.300314  
      59Ap     7.364473    51App    7.459050  

    Final Occupation by Irrep:
             Ap   App 
    DOCC [     8,    4 ]

  @DF-RKS Final Energy:  -153.79706367014330

   => Energetics <=

    Nuclear Repulsion Energy =             75.1469063686340064
    One-Electron Energy =                -357.0405510048890960
    Two-Electron Energy =                 145.0324438643330325
    DFT Exchange-Correlation Energy =     -16.9358628982212345
    Empirical Dispersion Energy =           0.0000000000000000
    VV10 Nonlocal Energy =                  0.0000000000000000
    Total Energy =                       -153.7970636701433023

Computation Completed


Properties will be evaluated at   0.000000,   0.000000,   0.000000 [a0]

Properties computed using the SCF density matrix

  Nuclear Dipole Moment: [e a0]
     X:    -0.0011      Y:    -2.4151      Z:     0.0000

  Electronic Dipole Moment: [e a0]
     X:     0.0030      Y:     1.7033      Z:     0.0000

  Dipole Moment: [e a0]
     X:     0.0020      Y:    -0.7119      Z:     0.0000     Total:     0.7119

  Dipole Moment: [D]
     X:     0.0050      Y:    -1.8094      Z:     0.0000     Total:     1.8094


*** tstop() called on n083 at Wed Nov 17 12:18:26 2021
Module time:
	user time   =      35.27 seconds =       0.59 minutes
	system time =       0.64 seconds =       0.01 minutes
	total time  =          9 seconds =       0.15 minutes
Total time:
	user time   =      35.27 seconds =       0.59 minutes
	system time =       0.64 seconds =       0.01 minutes
	total time  =          9 seconds =       0.15 minutes
Grab this energy -153.7970636701433
    Psi4 stopped on: Wednesday, 17 November 2021 12:18PM
    Psi4 wall time for execution: 0:00:09.34

*** Psi4 exiting successfully. Buy a developer a beer!
