
 Primary working directories    : /tmp/944438.539.gen4.q
 Secondary working directories  : /tmp/944438.539.gen4.q
 Wavefunction directory         : /home/vulcan/mel64643/wfu/
 Main file repository           : /tmp/944438.539.gen4.q/

 ARCHNAME  : Linux/x86_64
 FC        : /opt/intel/compilers_and_libraries_2016.1.150/linux/bin/intel64/ifort
 FCVERSION : 16.0.1
 BLASLIB   : -mkl
 id        : ccgc

 Nodes     nprocs
 n062         1
 ga_uses_ma=false, calling ma_init with nominal heap.
 GA-space will be limited to   8.0 MW (determined by -G option)

 Using customized tuning parameters: mindgm=10; mindgv=16; mindgc=4; mindgr=1; noblas=0; mincuda=1000; minvec=7
 default implementation of scratch files=df  

 ***,Optimization of min3
 memory,1000,m
 gthresh,energy=1.0d-12,orbital=1.0d-10,oneint=1.0d-16,twoint=1.0d-16,optgrad=1.0d-6,compress=1.0d-13
 geomtyp=xyz
 
 
 
  bohr
  geometry = {
  C   -0.2884802646    2.4001692407   -2.1349202496
  C    0.7651451728   -0.0005217924   -0.8954925992
  C    0.1919740865    0.0003334774    1.8323355823
  N   -0.2967243730    0.0010035455    3.9755786868
  H    2.8245598963   -0.0004743851   -1.0662756868
  C   -0.2882406786   -2.4021206337   -2.1333642214
  H   -2.3427812783   -2.4568652455   -1.9545777201
  H    0.4760052509   -4.0939496729   -1.2508000043
  H    0.2060852836   -2.4190815875   -4.1409566114
  H   -2.3430263224    2.4548247001   -1.9561691970
  H    0.2034532867    2.4158025458   -4.1328135191
  H    0.4793139700    4.1008798077   -1.2491643728
 }
 
 basis=cc-pvdz
 {rhf;maxit,200}
 {ccsd(t);maxit,200}

 Variables initialized (661), CPU time= 0.00 sec
 Commands  initialized (458), CPU time= 0.01 sec, 486 directives.
 Default parameters read. Elapsed time= 0.04 sec

 Checking input...
 Passed
1


                                         ***  PROGRAM SYSTEM MOLPRO  ***
                         Copyright, University College Cardiff Consultants Limited, 2008

                                    Version 2010.1 linked May 16 2016 07:17:05


 **********************************************************************************************************************************
 LABEL *   Optimization of min3                                                          
 Linux-4.4.3/n062(x86_64) 64 bit mpp version                                             DATE: 27-Oct-23          TIME: 11:16:48  
 **********************************************************************************************************************************

 SHA1:             9e8077add272b0f3cad6f7df79ec5211205f459d
 **********************************************************************************************************************************

 THRESHOLDS:

 ZERO    =  1.00D-12  ONEINT  =  1.00D-16  TWOINT  =  1.00D-16  PREFAC  =  1.00D-14  LOCALI  =  1.00D-09  EORDER  =  1.00D-04
 ENERGY  =  1.00D-12  ETEST   =  0.00D+00  EDENS   =  0.00D+00  THRDEDEF=  1.00D-06  GRADIENT=  1.00D-02  STEP    =  1.00D-03
 ORBITAL =  1.00D-10  CIVEC   =  1.00D-05  COEFF   =  1.00D-04  PRINTCI =  5.00D-02  PUNCHCI =  9.90D+01  OPTGRAD =  1.00D-06
 OPTENERG=  1.00D-06  OPTSTEP =  3.00D-04  THRGRAD =  1.00D-10  COMPRESS=  1.00D-13  VARMIN  =  1.00D-07  VARMAX  =  1.00D-03
 THRDOUB =  0.00D+00  THRDIV  =  1.00D-05  THRRED  =  1.00D-07  THRPSP  =  1.00D+00  THRDC   =  1.00D-10  THRCS   =  1.00D-10
 THRNRM  =  1.00D-08  THREQ   =  0.00D+00  THRDE   =  1.00D+00  THRREF  =  1.00D-05  SPARFAC =  1.00D+00  THRDLP  =  1.00D-07
 THRDIA  =  1.00D-10  THRDLS  =  1.00D-07  THRGPS  =  0.00D+00  THRKEX  =  0.00D+00  THRDIS  =  2.00D-01  THRVAR  =  1.00D-10
 THRLOC  =  1.00D-06  THRGAP  =  1.00D-06  THRLOCT = -1.00D+00  THRGAPT = -1.00D+00  THRORB  =  1.00D-06  THRMLTP =  0.00D+00
 THRCPQCI=  1.00D-10  KEXTA   =  0.00D+00  THRCOARS=  0.00D+00  SYMTOL  =  1.00D-06  GRADTOL =  1.00D-06  THROVL  =  1.00D-08
 THRORTH =  1.00D-08  GRID    =  1.00D-06  GRIDMAX =  1.00D-03  DTMAX   =  0.00D+00

 SETTING GEOMTYP        =    XYZ
 ZUNIT=BOHR
 

 Variable memory set to 1000000000 words,  buffer space   230000 words

 SETTING BASIS          =    CC-PVDZ


 Recomputing integrals since basis changed


 Using spherical harmonics

 Library entry C      S cc-pVDZ              selected for orbital group  1
 Library entry C      P cc-pVDZ              selected for orbital group  1
 Library entry C      D cc-pVDZ              selected for orbital group  1
 Library entry N      S cc-pVDZ              selected for orbital group  2
 Library entry N      P cc-pVDZ              selected for orbital group  2
 Library entry N      D cc-pVDZ              selected for orbital group  2
 Library entry H      S cc-pVDZ              selected for orbital group  3
 Library entry H      P cc-pVDZ              selected for orbital group  3

1PROGRAM * SEWARD (Integral evaluation for generally contracted gaussian basis sets)     Author: Roland Lindh, 1990

 Geometry written to block  1 of record 700


 Point group  C1  



 ATOMIC COORDINATES

 NR  ATOM    CHARGE       X              Y              Z

   1  C       6.00   -0.288480265    2.400169241   -2.134920250
   2  C       6.00    0.765145173   -0.000521792   -0.895492599
   3  C       6.00    0.191974087    0.000333477    1.832335582
   4  N       7.00   -0.296724373    0.001003545    3.975578687
   5  H       1.00    2.824559896   -0.000474385   -1.066275687
   6  C       6.00   -0.288240679   -2.402120634   -2.133364221
   7  H       1.00   -2.342781278   -2.456865245   -1.954577720
   8  H       1.00    0.476005251   -4.093949673   -1.250800004
   9  H       1.00    0.206085284   -2.419081588   -4.140956611
  10  H       1.00   -2.343026322    2.454824700   -1.956169197
  11  H       1.00    0.203453287    2.415802546   -4.132813519
  12  H       1.00    0.479313970    4.100879808   -1.249164373

 Bond lengths in Bohr (Angstrom)

  1- 2  2.899935327   1-10  2.063031425   1-11  2.057624974   1-12  2.065547843   2- 3  2.787395274
       ( 1.534579682)       ( 1.091709212)       ( 1.088848241)       ( 1.093040843)       ( 1.475026051)

 2-5  2.066483939  2-6  2.899935327  3-4  2.198253315  6-7  2.063031425  6-8  2.055547843
     ( 1.093536203)     ( 1.534579683)     ( 1.163265554)     ( 1.091709212)     ( 1.087749071)

 6-9  2.067624975
     ( 1.094140013)

 Bond angles

  1- 2- 3  110.07805272   1- 2- 5  109.07122528   1- 2- 6  111.78757136   2- 1-10  110.28761034

  2- 1-11  109.53710886   2- 1-12  111.30230143   2- 3- 4  179.02148592   2- 6- 7  110.28761030

  2-6-8  111.30230144   2-6-9  109.53710888   3-2-5  106.60693501   3-2-6  110.07805271

  5-2-6  109.07122528   7-6-8  108.13258471   7-6-9  108.78533005   8-6-9  108.73856891

 10- 1-11  108.78533008  10- 1-12  108.13258477  11- 1-12  108.73856881

 NUCLEAR CHARGE:                   38
 NUMBER OF PRIMITIVE AOS:         184
 NUMBER OF SYMMETRY AOS:          179
 NUMBER OF CONTRACTIONS:          105   ( 105A   )
 NUMBER OF CORE ORBITALS:           5   (   5A   )
 NUMBER OF VALENCE ORBITALS:       27   (  27A   )


 NUCLEAR REPULSION ENERGY  158.94656293


 Eigenvalues of metric

         1 0.197E-02 0.463E-02 0.573E-02 0.601E-02 0.167E-01 0.195E-01 0.210E-01 0.264E-01


 Contracted 2-electron integrals neglected if value below      1.0D-16
 AO integral compression algorithm  1   Integral accuracy      1.0D-16

     129.761 MB (compressed) written to integral file ( 94.9%)

     Node minimum: 129.761 MB, node maximum: 129.761 MB


 NUMBER OF SORTED TWO-ELECTRON INTEGRALS:   15487395.     BUFFER LENGTH:  32768
 NUMBER OF SEGMENTS:   1  SEGMENT LENGTH:   15487395      RECORD LENGTH: 524288

 Memory used in sort:      16.04 MW

 SORT1 READ    17101285. AND WROTE    15442483. INTEGRALS IN     45 RECORDS. CPU TIME:     0.14 SEC, REAL TIME:     0.23 SEC
 SORT2 READ    15442483. AND WROTE    15487395. INTEGRALS IN    495 RECORDS. CPU TIME:     0.13 SEC, REAL TIME:     0.22 SEC

 FILE SIZES:   FILE 1:   120.7 MBYTE,  FILE 4:   188.8 MBYTE,   TOTAL:    309.4 MBYTE

 OPERATOR DM      FOR CENTER  0  COORDINATES:    0.000000    0.000000    0.000000


 **********************************************************************************************************************************
 DATASETS  * FILE   NREC   LENGTH (MB)   RECORD NAMES
              1      19      120.80       500      610      700      900      950      970     1000      129      960     1100   
                                          VAR    BASINP    GEOM    SYMINP    ZMAT    AOBASIS   BASIS     P2S    ABASIS      S 
                                         1400     1410     1200     1210     1080     1600     1650     1300     1700   
                                           T        V       H0       H01     AOSYM     SMH    MOLCAS    ERIS     OPER   

 PROGRAMS   *        TOTAL       INT
 CPU TIMES  *         1.88      1.83
 REAL TIME  *         2.29 SEC
 DISK USED  *       440.05 MB      
 GA USED    *         0.00 MB       (max)       0.00 MB       (current)
 **********************************************************************************************************************************

1PROGRAM * RHF-SCF (CLOSED SHELL)       Authors: W. Meyer, H.-J. Werner


 NUMBER OF ELECTRONS:      19+   19-    SPACE SYMMETRY=1    SPIN SYMMETRY: Singlet 
 CONVERGENCE THRESHOLDS:    1.00E-10 (Density)    1.00E-13 (Energy)
 MAX. NUMBER OF ITERATIONS:      200
 INTERPOLATION TYPE:            DIIS
 INTERPOLATION STEPS:              2 (START)      1 (STEP)
 LEVEL SHIFTS:                  0.00 (CLOSED)  0.00 (OPEN) 



 Orbital guess generated from atomic densities. Full valence occupancy:   32

 Molecular orbital dump at record        2100.2

 ITERATION    DDIFF          GRAD             ENERGY        2-EL.EN.            DIPOLE MOMENTS         DIIS
    1      0.000D+00      0.000D+00      -209.94376571    457.117605    0.48633    0.00098   -2.24855    0
    2      0.000D+00      0.590D-02      -209.98971553    456.671955    0.15094   -0.00122   -1.29257    1
    3      0.124D-01      0.414D-02      -210.01004851    456.356812    0.30703   -0.00141   -1.70088    2
    4      0.554D-02      0.106D-02      -210.01229560    456.683869    0.29367   -0.00150   -1.61262    3
    5      0.196D-02      0.235D-03      -210.01241371    456.524310    0.28734   -0.00165   -1.62397    4
    6      0.425D-03      0.579D-04      -210.01242310    456.543311    0.28756   -0.00165   -1.62204    5
    7      0.169D-03      0.160D-04      -210.01242365    456.541314    0.28792   -0.00165   -1.62335    6
    8      0.307D-04      0.501D-05      -210.01242370    456.540984    0.28778   -0.00165   -1.62346    7
    9      0.110D-04      0.107D-05      -210.01242370    456.540919    0.28781   -0.00165   -1.62346    7
   10      0.263D-05      0.384D-06      -210.01242371    456.541016    0.28781   -0.00165   -1.62348    7
   11      0.967D-06      0.203D-06      -210.01242371    456.540983    0.28781   -0.00165   -1.62348    7
   12      0.691D-06      0.929D-07      -210.01242371    456.541000    0.28781   -0.00165   -1.62348    7
   13      0.437D-06      0.238D-07      -210.01242371    456.540994    0.28781   -0.00165   -1.62348    8
   14      0.113D-06      0.456D-08      -210.01242371    456.540993    0.28781   -0.00165   -1.62348    8
   15      0.144D-07      0.178D-08      -210.01242371    456.540993    0.28781   -0.00165   -1.62348    8
   16      0.344D-08      0.526D-09      -210.01242371    456.540993    0.28781   -0.00165   -1.62348    8
   17      0.112D-08      0.102D-09      -210.01242371    456.540993    0.28781   -0.00165   -1.62348    8
   18      0.230D-09      0.240D-10      -210.01242371    456.540993    0.28781   -0.00165   -1.62348    7
   19      0.571D-10      0.777D-11      -210.01242371    456.540993    0.28781   -0.00165   -1.62348    7
   20      0.182D-10      0.274D-11      -210.01242371    456.540993    0.28781   -0.00165   -1.62348    7
   21      0.716D-11      0.113D-11      -210.01242371    456.540993    0.28781   -0.00165   -1.62348    7
   22      0.295D-11      0.497D-12      -210.01242371    456.540993    0.28781   -0.00165   -1.62348    0

 Final occupancy:  19

 !RHF STATE 1.1 Energy               -210.012423705713
 Nuclear energy                       158.94656293
 One-electron energy                 -597.22948331
 Two-electron energy                  228.27049668
 Virial quotient                       -1.00163704
 !RHF STATE 1.1 Dipole moment           0.28780780    -0.00165162    -1.62347818
 Dipole moment /Debye                   0.73148655    -0.00419774    -4.12619968

 Orbital energies:

         1.1          2.1          3.1          4.1          5.1          6.1          7.1          8.1          9.1         10.1
    -15.572650   -11.290168   -11.274808   -11.250156   -11.250098    -1.212683    -1.107753    -0.960746    -0.876256    -0.704304

        11.1         12.1         13.1         14.1         15.1         16.1         17.1         18.1         19.1         20.1
     -0.642528    -0.596537    -0.572627    -0.564201    -0.530179    -0.523643    -0.520142    -0.447407    -0.447361     0.155223

        21.1
      0.190277


 **********************************************************************************************************************************
 DATASETS  * FILE   NREC   LENGTH (MB)   RECORD NAMES
              1      19      120.80       500      610      700      900      950      970     1000      129      960     1100   
                                          VAR    BASINP    GEOM    SYMINP    ZMAT    AOBASIS   BASIS     P2S    ABASIS      S 
                                         1400     1410     1200     1210     1080     1600     1650     1300     1700   
                                           T        V       H0       H01     AOSYM     SMH    MOLCAS    ERIS     OPER   

              2       3        0.68       700     1000     2100   
                                         GEOM     BASIS     RHF  

 PROGRAMS   *        TOTAL       RHF       INT
 CPU TIMES  *         4.38      2.50      1.83
 REAL TIME  *         5.14 SEC
 DISK USED  *       440.05 MB      
 GA USED    *         0.00 MB       (max)       0.00 MB       (current)
 **********************************************************************************************************************************


1PROGRAM * CCSD (Closed-shell coupled cluster)     Authors: C. Hampel, H.-J. Werner, 1991, M. Deegan, P.J. Knowles, 1992


 Convergence thresholds:  THRVAR = 1.00D-08  THRDEN = 1.00D-12

 CCSD(T)     terms to be evaluated (factor= 1.000)


 Number of core orbitals:           5 (   5 )
 Number of closed-shell orbitals:  14 (  14 )
 Number of external orbitals:      86 (  86 )

 Molecular orbitals read from record     2100.2  Type=RHF/CANONICAL (state 1.1)

 Number of N-1 electron functions:              14
 Number of N-2 electron functions:             105
 Number of singly external CSFs:              1204
 Number of doubly external CSFs:            725410
 Total number of CSFs:                      726615

 Length of J-op  integral file:               0.00 MB
 Length of K-op  integral file:               0.79 MB
 Length of 3-ext integral record:             0.00 MB

 Memory could be reduced to 12.72 Mwords without degradation in triples

 Integral transformation finished. Total CPU:   0.73 sec, npass=  1  Memory used:  10.92 MW

 Reference energy:                   -210.01242371

 MP2 singlet pair energy:              -0.45163379
 MP2 triplet pair energy:              -0.25975815
 MP2 correlation energy:               -0.71139194
 MP2 total energy:                   -210.72381565

 SCS-MP2 correlation energy:           -0.70358784   (PS=  1.200000  PT=  0.333333)
 SCS-MP2 total energy:               -210.71601155

 ITER.      SQ.NORM     CORR.ENERGY   TOTAL ENERGY   ENERGY CHANGE        DEN1      VAR(S)    VAR(P)  DIIS     TIME
   1      1.27015956    -0.75346736  -210.76589107    -0.04207542    -0.01887880  0.35D-02  0.56D-02  1  1     2.59
   2      1.29282202    -0.75712496  -210.76954866    -0.00365760    -0.02204710  0.58D-04  0.76D-03  2  2     4.49
   3      1.30020205    -0.75750156  -210.76992527    -0.00037660    -0.00407480  0.27D-04  0.55D-04  3  3     6.38
   4      1.30276677    -0.75759829  -210.77002200    -0.00009673    -0.00100781  0.13D-05  0.65D-05  4  4     8.28
   5      1.30333426    -0.75760686  -210.77003056    -0.00000856    -0.00016828  0.16D-06  0.78D-06  5  5    10.17
   6      1.30345698    -0.75760129  -210.77002500     0.00000557    -0.00003128  0.97D-08  0.53D-07  6  6    12.08
   7      1.30347513    -0.75760369  -210.77002739    -0.00000240    -0.00000404  0.15D-08  0.48D-08  6  2    13.99
   8      1.30347657    -0.75760361  -210.77002732     0.00000008    -0.00000004  0.14D-09  0.42D-09  6  1    15.88
   9      1.30347692    -0.75760359  -210.77002730     0.00000002     0.00000023  0.16D-10  0.36D-10  6  3    17.78
  10      1.30347718    -0.75760361  -210.77002731    -0.00000001    -0.00000006  0.17D-11  0.33D-11  6  4    19.68
  11      1.30347681    -0.75760363  -210.77002734    -0.00000002     0.00000023  0.35D-12  0.34D-12  6  6    21.58
  12      1.30347673    -0.75760364  -210.77002734    -0.00000001     0.00000004  0.44D-13  0.27D-13  6  5    23.47
  13      1.30347670    -0.75760364  -210.77002735    -0.00000000     0.00000002  0.51D-14  0.45D-14  6  2    25.37
  14      1.30347669    -0.75760364  -210.77002735     0.00000000     0.00000000  0.15D-14  0.65D-15  6  1    27.27
  15      1.30347669    -0.75760364  -210.77002735     0.00000000    -0.00000000  0.99D-16  0.10D-15  6  4    29.15
  16      1.30347669    -0.75760364  -210.77002735     0.00000000    -0.00000000  0.15D-16  0.70D-17  6  3    31.05
  17      1.30347669    -0.75760364  -210.77002735     0.00000000    -0.00000000  0.33D-17  0.15D-17  6  6    32.95
  18      1.30347669    -0.75760364  -210.77002735    -0.00000000    -0.00000000  0.53D-18  0.25D-18  6  5    34.86
  19      1.30347669    -0.75760364  -210.77002735     0.00000000     0.00000000  0.59D-19  0.41D-19  6  2    36.76
  20      1.30347669    -0.75760364  -210.77002735     0.00000000    -0.00000000  0.63D-20  0.39D-20  6  4    38.66

 Norm of t1 vector:      0.07770522      S-energy:    -0.00000000      T1 diagnostic:  0.01038380
                                                                       D1 diagnostic:  0.02936157


 Total CPU time for triples:     24.60 sec


 RESULTS
 =======

  Reference energy                   -210.012423705713
  CCSD singlet pair energy             -0.527324983521
  CCSD triplet pair energy             -0.230278656845
  CCSD correlation energy              -0.757603640367

  Triples (T) contribution             -0.026790910552
  Total correlation energy             -0.784394550919

  CCSD total energy                  -210.770027346080
  CCSD[T] energy                     -210.797827601513
  CCSD-T energy                      -210.796348425018
 !CCSD(T) total energy               -210.796818256632

 Timing summary (sec):

 STEP                 CPU(USER)    SYS     CPU(TOT)    WALL
 Transformation          0.77      0.09      0.86      0.86
 CCSD iterations        37.89      1.00     38.89     38.95
 Triples                24.60      0.53     25.13     25.14

 Program statistics:

 Available memory in ccsd:               999999116
 Min. memory needed in ccsd:               1995783
 Max. memory used in ccsd:                 2628247
 Max. memory used in cckext:               2458865 (20 integral passes)



 **********************************************************************************************************************************
 DATASETS  * FILE   NREC   LENGTH (MB)   RECORD NAMES
              1      20      170.94       500      610      700      900      950      970     1000      129      960     1100   
                                          VAR    BASINP    GEOM    SYMINP    ZMAT    AOBASIS   BASIS     P2S    ABASIS      S 
                                         1400     1410     1200     1210     1080     1600     1650     1300     1700     1380   
                                           T        V       H0       H01     AOSYM     SMH    MOLCAS    ERIS     OPER     JKOP   

              2       3        0.68       700     1000     2100   
                                         GEOM     BASIS     RHF  

 PROGRAMS   *        TOTAL   CCSD(T)       RHF       INT
 CPU TIMES  *        67.64     63.26      2.50      1.83
 REAL TIME  *        70.12 SEC
 DISK USED  *       440.05 MB      
 GA USED    *         0.00 MB       (max)       0.00 MB       (current)
 **********************************************************************************************************************************

        CCSD(T)         RHF-SCF 
   -210.79681826   -210.01242371
 **********************************************************************************************************************************
 Variable memory released
