
 Primary working directories    : /tmp/999602.233.gen5.q
 Secondary working directories  : /tmp/999602.233.gen5.q
 Wavefunction directory         : /home/vulcan/jj04645/wfu/
 Main file repository           : /tmp/999602.233.gen5.q/

 ARCHNAME  : Linux/x86_64
 FC        : /opt/intel/compilers_and_libraries_2016.1.150/linux/bin/intel64/ifort
 FCVERSION : 16.0.1
 BLASLIB   : -mkl
 id        : ccgc

 Nodes     nprocs
 n070         1
 ga_uses_ma=false, calling ma_init with nominal heap.
 GA-space will be limited to   8.0 MW (determined by -G option)

 Using customized tuning parameters: mindgm=10; mindgv=16; mindgc=4; mindgr=1; noblas=0; mincuda=1000; minvec=7
 default implementation of scratch files=df  

 ***,Optimization of 1,3-difluorobenzene
 memory,1000,m
 gthresh,energy=1.0d-12,orbital=1.0d-10,oneint=1.0d-16,twoint=1.0d-16,optgrad=1.0d-6,compress=1.0d-13
 geomtyp=xyz
 
 bohr
 geometry = {
  F   -0.0000000000    4.4344592492   -1.7631032007
  C   -0.0000000000    2.2427014597   -0.4839542053
  C    0.0000000000   -2.2990740424    2.1469803612
  C   -0.0000000000    0.0059214771   -1.8510445083
  C   -0.0000000000    2.2989683242    2.1401552165
  C    0.0000000000   -0.0059696914    3.4422311070
  C   -0.0000000000   -2.2426951225   -0.4771266037
  H   -0.0000000000    0.0060559190   -3.8924404968
  H   -0.0000000000    4.0925709775    3.1171090416
  H    0.0000000000   -0.0059222900    5.4872489955
  F   -0.0000000000   -4.4343413502   -1.7564667356
  H    0.0000000000   -4.0926749102    3.1239374643
 }
 
 basis=VDZ
 {rhf;maxit,200}
 {ccsd(t);maxit,200}

 Variables initialized (661), CPU time= 0.00 sec
 Commands  initialized (458), CPU time= 0.01 sec, 486 directives.
 Default parameters read. Elapsed time= 0.11 sec

 Checking input...
 Passed
1


                                         ***  PROGRAM SYSTEM MOLPRO  ***
                         Copyright, University College Cardiff Consultants Limited, 2008

                                    Version 2010.1 linked May 16 2016 07:17:05


 **********************************************************************************************************************************
 LABEL *   Optimization of 1,3-difluorobenzene                                           
 Linux-4.4.3/n070(x86_64) 64 bit mpp version                                             DATE: 07-Feb-24          TIME: 13:18:40  
 **********************************************************************************************************************************

 SHA1:             9e8077add272b0f3cad6f7df79ec5211205f459d
 **********************************************************************************************************************************

 THRESHOLDS:

 ZERO    =  1.00D-12  ONEINT  =  1.00D-16  TWOINT  =  1.00D-16  PREFAC  =  1.00D-14  LOCALI  =  1.00D-09  EORDER  =  1.00D-04
 ENERGY  =  1.00D-12  ETEST   =  0.00D+00  EDENS   =  0.00D+00  THRDEDEF=  1.00D-06  GRADIENT=  1.00D-02  STEP    =  1.00D-03
 ORBITAL =  1.00D-10  CIVEC   =  1.00D-05  COEFF   =  1.00D-04  PRINTCI =  5.00D-02  PUNCHCI =  9.90D+01  OPTGRAD =  1.00D-06
 OPTENERG=  1.00D-06  OPTSTEP =  3.00D-04  THRGRAD =  1.00D-10  COMPRESS=  1.00D-13  VARMIN  =  1.00D-07  VARMAX  =  1.00D-03
 THRDOUB =  0.00D+00  THRDIV  =  1.00D-05  THRRED  =  1.00D-07  THRPSP  =  1.00D+00  THRDC   =  1.00D-10  THRCS   =  1.00D-10
 THRNRM  =  1.00D-08  THREQ   =  0.00D+00  THRDE   =  1.00D+00  THRREF  =  1.00D-05  SPARFAC =  1.00D+00  THRDLP  =  1.00D-07
 THRDIA  =  1.00D-10  THRDLS  =  1.00D-07  THRGPS  =  0.00D+00  THRKEX  =  0.00D+00  THRDIS  =  2.00D-01  THRVAR  =  1.00D-10
 THRLOC  =  1.00D-06  THRGAP  =  1.00D-06  THRLOCT = -1.00D+00  THRGAPT = -1.00D+00  THRORB  =  1.00D-06  THRMLTP =  0.00D+00
 THRCPQCI=  1.00D-10  KEXTA   =  0.00D+00  THRCOARS=  0.00D+00  SYMTOL  =  1.00D-06  GRADTOL =  1.00D-06  THROVL  =  1.00D-08
 THRORTH =  1.00D-08  GRID    =  1.00D-06  GRIDMAX =  1.00D-03  DTMAX   =  0.00D+00

 SETTING GEOMTYP        =    XYZ
 ZUNIT=BOHR
 

 Variable memory set to 1000000000 words,  buffer space   230000 words

 SETTING BASIS          =    VDZ


 Recomputing integrals since basis changed


 Using spherical harmonics

 Library entry F      S cc-pVDZ              selected for orbital group  1
 Library entry F      P cc-pVDZ              selected for orbital group  1
 Library entry F      D cc-pVDZ              selected for orbital group  1
 Library entry C      S cc-pVDZ              selected for orbital group  2
 Library entry C      P cc-pVDZ              selected for orbital group  2
 Library entry C      D cc-pVDZ              selected for orbital group  2
 Library entry H      S cc-pVDZ              selected for orbital group  3
 Library entry H      P cc-pVDZ              selected for orbital group  3

1PROGRAM * SEWARD (Integral evaluation for generally contracted gaussian basis sets)     Author: Roland Lindh, 1990

 Geometry written to block  1 of record 700


 Point group  Cs  



 ATOMIC COORDINATES

 NR  ATOM    CHARGE       X              Y              Z

   1  F       9.00    0.000000000    4.434459249   -1.763103201
   2  C       6.00    0.000000000    2.242701460   -0.483954205
   3  C       6.00    0.000000000   -2.299074042    2.146980361
   4  C       6.00    0.000000000    0.005921477   -1.851044508
   5  C       6.00    0.000000000    2.298968324    2.140155217
   6  C       6.00    0.000000000   -0.005969691    3.442231107
   7  C       6.00    0.000000000   -2.242695122   -0.477126604
   8  H       1.00    0.000000000    0.006055919   -3.892440497
   9  H       1.00    0.000000000    4.092570978    3.117109042
  10  H       1.00    0.000000000   -0.005922290    5.487248995
  11  F       9.00    0.000000000   -4.434341350   -1.756466736
  12  H       1.00    0.000000000   -4.092674910    3.123937464

 Bond lengths in Bohr (Angstrom)

 1-2  2.537720308  2-4  2.621472980  2-5  2.624712597  3-6  2.633629066  3-7  2.624712545
     ( 1.342903750)     ( 1.387223755)     ( 1.388938087)     ( 1.393656479)     ( 1.388938059)

  3-12  2.042412606   4- 7  2.635133207   4- 8  2.041395993   5- 6  2.647289346   5- 9  2.042412606
       ( 1.080798203)       ( 1.394452436)       ( 1.080260234)       ( 1.400885187)       ( 1.080798203)

  6-10  2.045017889   7-11  2.537720308
       ( 1.082176859)       ( 1.342903750)

 Bond angles

  1-2-4  118.29867979   1-2-5  119.04023565   2-4-7  117.14210439   2-4-8  121.42894780

  2- 5- 6  118.23405072   2- 5- 9  119.80496269   3- 6- 5  121.07782791   3- 6-10  119.46108605

  3- 7- 4  122.65598450   3- 7-11  119.04278568   4- 2- 5  122.66108456   4- 7-11  118.30122982

  5- 6-10  119.46108604   6- 3- 7  118.22894792   6- 3-12  121.96353799   6- 5- 9  121.96098659

  7- 3-12  119.80751409   7- 4- 8  121.42894781

 NUCLEAR CHARGE:                   58
 NUMBER OF PRIMITIVE AOS:         244
 NUMBER OF SYMMETRY AOS:          236
 NUMBER OF CONTRACTIONS:          132   (  96A'  +  36A"  )
 NUMBER OF CORE ORBITALS:           8   (   8A'  +   0A"  )
 NUMBER OF VALENCE ORBITALS:       36   (  28A'  +   8A"  )


 NUCLEAR REPULSION ENERGY  342.36973466


 Eigenvalues of metric

         1 0.394E-03 0.120E-02 0.169E-02 0.263E-02 0.305E-02 0.316E-02 0.125E-01 0.130E-01
         2 0.413E-01 0.907E-01 0.101E+00 0.162E+00 0.166E+00 0.185E+00 0.190E+00 0.214E+00


 Contracted 2-electron integrals neglected if value below      1.0D-16
 AO integral compression algorithm  1   Integral accuracy      1.0D-16

     155.976 MB (compressed) written to integral file ( 89.6%)

     Node minimum: 155.976 MB, node maximum: 155.976 MB


 NUMBER OF SORTED TWO-ELECTRON INTEGRALS:   20366295.     BUFFER LENGTH:  32768
 NUMBER OF SEGMENTS:   2  SEGMENT LENGTH:   15994311      RECORD LENGTH: 524288

 Memory used in sort:      16.55 MW

 SORT1 READ    21748591. AND WROTE    19841396. INTEGRALS IN     57 RECORDS. CPU TIME:     0.30 SEC, REAL TIME:     0.55 SEC
 SORT2 READ    19841396. AND WROTE    20366295. INTEGRALS IN    595 RECORDS. CPU TIME:     0.23 SEC, REAL TIME:     0.33 SEC

 FILE SIZES:   FILE 1:   148.2 MBYTE,  FILE 4:   239.1 MBYTE,   TOTAL:    387.3 MBYTE

 OPERATOR DM      FOR CENTER  0  COORDINATES:    0.000000    0.000000    0.000000


 **********************************************************************************************************************************
 DATASETS  * FILE   NREC   LENGTH (MB)   RECORD NAMES
              1      19      148.34       500      610      700      900      950      970     1000      129      960     1100   
                                          VAR    BASINP    GEOM    SYMINP    ZMAT    AOBASIS   BASIS     P2S    ABASIS      S 
                                         1400     1410     1200     1210     1080     1600     1650     1300     1700   
                                           T        V       H0       H01     AOSYM     SMH    MOLCAS    ERIS     OPER   

 PROGRAMS   *        TOTAL       INT
 CPU TIMES  *         5.07      4.93
 REAL TIME  *         6.03 SEC
 DISK USED  *       544.17 MB      
 GA USED    *         0.00 MB       (max)       0.00 MB       (current)
 **********************************************************************************************************************************

1PROGRAM * RHF-SCF (CLOSED SHELL)       Authors: W. Meyer, H.-J. Werner


 NUMBER OF ELECTRONS:      29+   29-
 CONVERGENCE THRESHOLDS:    1.00E-10 (Density)    1.00E-13 (Energy)
 MAX. NUMBER OF ITERATIONS:      200
 INTERPOLATION TYPE:            DIIS
 INTERPOLATION STEPS:              2 (START)      1 (STEP)
 LEVEL SHIFTS:                  0.00 (CLOSED)  0.00 (OPEN) 



 Orbital guess generated from atomic densities. Full valence occupancy:   36   8

 Molecular orbital dump at record        2100.2

 Initial alpha occupancy:  24   5
 Initial beta  occupancy:  24   5
 Wave function symmetry:    1

 ITERATION    DDIFF          GRAD             ENERGY        2-EL.EN.            DIPOLE MOMENTS         DIIS
    1      0.000D+00      0.000D+00      -428.34397081    993.077050    0.00000   -0.01741    0.47948    0
    2      0.000D+00      0.778D-02      -428.41804737    992.609031    0.00000    0.00037    0.92402    1
    3      0.159D-01      0.353D-02      -428.43186174    992.945514    0.00000   -0.00737    0.62229    2
    4      0.506D-02      0.935D-03      -428.43341553    993.001297    0.00000   -0.00451    0.73524    3
    5      0.189D-02      0.283D-03      -428.43355040    992.966303    0.00000   -0.00516    0.70209    4
    6      0.478D-03      0.592D-04      -428.43355810    992.975520    0.00000   -0.00508    0.70644    5
    7      0.126D-03      0.179D-04      -428.43355915    992.978840    0.00000   -0.00506    0.70479    6
    8      0.427D-04      0.637D-05      -428.43355928    992.978181    0.00000   -0.00506    0.70521    7
    9      0.141D-04      0.289D-05      -428.43355931    992.978565    0.00000   -0.00505    0.70493    8
   10      0.766D-05      0.111D-05      -428.43355932    992.979124    0.00000   -0.00505    0.70500    8
   11      0.344D-05      0.622D-06      -428.43355932    992.979036    0.00000   -0.00505    0.70497    8
   12      0.212D-05      0.248D-06      -428.43355932    992.979132    0.00000   -0.00504    0.70498    8
   13      0.122D-05      0.418D-07      -428.43355932    992.979158    0.00000   -0.00504    0.70498    8
   14      0.137D-06      0.159D-07      -428.43355932    992.979153    0.00000   -0.00504    0.70498    9
   15      0.537D-07      0.371D-08      -428.43355932    992.979153    0.00000   -0.00504    0.70498    9
   16      0.111D-07      0.143D-08      -428.43355932    992.979153    0.00000   -0.00504    0.70498    9
   17      0.443D-08      0.537D-09      -428.43355932    992.979153    0.00000   -0.00504    0.70498    8
   18      0.158D-08      0.111D-09      -428.43355932    992.979153    0.00000   -0.00504    0.70498    7
   19      0.287D-09      0.389D-10      -428.43355932    992.979153    0.00000   -0.00504    0.70498    7
   20      0.100D-09      0.138D-10      -428.43355932    992.979153    0.00000   -0.00504    0.70498    8
   21      0.260D-10      0.333D-11      -428.43355932    992.979153    0.00000   -0.00504    0.70498    8
   22      0.720D-11      0.124D-11      -428.43355932    992.979153    0.00000   -0.00504    0.70498    8
   23      0.367D-11      0.585D-12      -428.43355932    992.979153    0.00000   -0.00504    0.70498    8
   24      0.239D-11      0.196D-12      -428.43355932    992.979153    0.00000   -0.00504    0.70498    8
   25      0.135D-11      0.900D-13      -428.43355932    992.979153    0.00000   -0.00504    0.70498    0

 Final occupancy:  24   5

 !RHF STATE 1.1 Energy               -428.433559324476
 Nuclear energy                       342.36973466
 One-electron energy                -1267.29287065
 Two-electron energy                  496.48957666
 Virial quotient                       -1.00060012
 !RHF STATE 1.1 Dipole moment           0.00000000    -0.00504431     0.70497745
 Dipole moment /Debye                   0.00000000    -0.01282051     1.79175660

 Orbital energies:

         1.1          2.1          3.1          4.1          5.1          6.1          7.1          8.1          9.1         10.1
    -26.321065   -26.320692   -11.349960   -11.348937   -11.273032   -11.258881   -11.256003   -11.255646    -1.639528    -1.638878

        11.1         12.1         13.1         14.1         15.1         16.1         17.1         18.1         19.1         20.1
     -1.178972    -1.046656    -1.037148    -0.875296    -0.864823    -0.774627    -0.740894    -0.702942    -0.685193    -0.668305

        21.1         22.1         23.1         24.1         25.1         26.1
     -0.622870    -0.586182    -0.555008    -0.533048     0.179897     0.221308

         1.2          2.2          3.2          4.2          5.2          6.2          7.2
     -0.703883    -0.695878    -0.513775    -0.360144    -0.348593     0.113511     0.132173


 **********************************************************************************************************************************
 DATASETS  * FILE   NREC   LENGTH (MB)   RECORD NAMES
              1      19      148.34       500      610      700      900      950      970     1000      129      960     1100   
                                          VAR    BASINP    GEOM    SYMINP    ZMAT    AOBASIS   BASIS     P2S    ABASIS      S 
                                         1400     1410     1200     1210     1080     1600     1650     1300     1700   
                                           T        V       H0       H01     AOSYM     SMH    MOLCAS    ERIS     OPER   

              2       3        0.68       700     1000     2100   
                                         GEOM     BASIS     RHF  

 PROGRAMS   *        TOTAL       RHF       INT
 CPU TIMES  *         8.27      3.19      4.93
 REAL TIME  *         9.79 SEC
 DISK USED  *       544.17 MB      
 GA USED    *         0.00 MB       (max)       0.00 MB       (current)
 **********************************************************************************************************************************


1PROGRAM * CCSD (Closed-shell coupled cluster)     Authors: C. Hampel, H.-J. Werner, 1991, M. Deegan, P.J. Knowles, 1992


 Convergence thresholds:  THRVAR = 1.00D-08  THRDEN = 1.00D-12

 CCSD(T)     terms to be evaluated (factor= 1.000)


 Number of core orbitals:           8 (   8   0 )
 Number of closed-shell orbitals:  21 (  16   5 )
 Number of external orbitals:     103 (  72  31 )

 Molecular orbitals read from record     2100.2  Type=RHF/CANONICAL (state 1.1)

 Number of N-1 electron functions:              21
 Number of N-2 electron functions:             231
 Number of singly external CSFs:              1307
 Number of doubly external CSFs:           1221574
 Total number of CSFs:                     1222882

 Length of J-op  integral file:               0.00 MB
 Length of K-op  integral file:               0.76 MB
 Length of 3-ext integral record:             0.00 MB

 Memory could be reduced to 16.61 Mwords without degradation in triples

 Integral transformation finished. Total CPU:   1.05 sec, npass=  1  Memory used:   9.88 MW

 Reference energy:                   -428.43355932

 MP2 singlet pair energy:              -0.67263740
 MP2 triplet pair energy:              -0.46572990
 MP2 correlation energy:               -1.13836729
 MP2 total energy:                   -429.57192662

 SCS-MP2 correlation energy:           -1.09695237   (PS=  1.200000  PT=  0.333333)
 SCS-MP2 total energy:               -429.53051169

 ITER.      SQ.NORM     CORR.ENERGY   TOTAL ENERGY   ENERGY CHANGE        DEN1      VAR(S)    VAR(P)  DIIS     TIME
   1      1.36210671    -1.16811233  -429.60167166    -0.02974504     0.00048968  0.67D-02  0.73D-02  1  1     4.07
   2      1.38857453    -1.17164503  -429.60520435    -0.00353270    -0.02699844  0.13D-03  0.11D-02  2  2     7.11
   3      1.39936750    -1.17224657  -429.60580589    -0.00060154    -0.00537893  0.86D-04  0.10D-03  3  3    10.18
   4      1.40340009    -1.17217219  -429.60573152     0.00007438    -0.00142466  0.48D-05  0.20D-04  4  4    13.25
   5      1.40524237    -1.17220267  -429.60576199    -0.00003047    -0.00045164  0.91D-06  0.22D-05  5  5    16.31
   6      1.40571888    -1.17220839  -429.60576772    -0.00000573    -0.00006809  0.12D-06  0.24D-06  6  6    19.38
   7      1.40580598    -1.17220338  -429.60576270     0.00000501     0.00000034  0.28D-07  0.22D-07  6  1    22.44
   8      1.40583099    -1.17220450  -429.60576382    -0.00000112    -0.00000756  0.62D-08  0.30D-08  6  2    25.52
   9      1.40583230    -1.17220516  -429.60576448    -0.00000066     0.00000230  0.18D-08  0.35D-09  6  3    28.59
  10      1.40583467    -1.17220493  -429.60576425     0.00000023    -0.00000121  0.38D-09  0.76D-10  6  4    31.69
  11      1.40583472    -1.17220517  -429.60576449    -0.00000024     0.00000033  0.46D-10  0.20D-10  6  5    34.76
  12      1.40583492    -1.17220515  -429.60576447     0.00000002    -0.00000007  0.11D-10  0.24D-11  6  6    37.84
  13      1.40583491    -1.17220517  -429.60576449    -0.00000002     0.00000005  0.57D-12  0.56D-12  6  1    40.92
  14      1.40583490    -1.17220517  -429.60576450    -0.00000001     0.00000002  0.15D-12  0.87D-13  6  2    44.00
  15      1.40583490    -1.17220517  -429.60576450     0.00000000     0.00000000  0.40D-13  0.14D-13  6  3    47.08
  16      1.40583490    -1.17220517  -429.60576450    -0.00000000     0.00000000  0.63D-14  0.42D-14  6  4    50.16
  17      1.40583490    -1.17220517  -429.60576450    -0.00000000    -0.00000000  0.16D-14  0.72D-15  6  5    53.22
  18      1.40583491    -1.17220517  -429.60576450    -0.00000000    -0.00000000  0.21D-15  0.11D-15  6  6    56.29
  19      1.40583491    -1.17220517  -429.60576450    -0.00000000    -0.00000000  0.32D-16  0.23D-16  6  1    59.37
  20      1.40583491    -1.17220517  -429.60576450     0.00000000    -0.00000000  0.13D-16  0.30D-17  6  2    62.43
  21      1.40583491    -1.17220517  -429.60576450    -0.00000000    -0.00000000  0.15D-17  0.69D-18  6  3    65.49
  22      1.40583491    -1.17220517  -429.60576450    -0.00000000    -0.00000000  0.48D-18  0.15D-18  6  4    68.57
  23      1.40583491    -1.17220517  -429.60576450     0.00000000    -0.00000000  0.10D-18  0.27D-19  6  5    71.65
  24      1.40583491    -1.17220517  -429.60576450    -0.00000000    -0.00000000  0.13D-19  0.62D-20  6  6    74.71
  25      1.40583491    -1.17220517  -429.60576450    -0.00000000     0.00000000  0.40D-20  0.17D-20  6  1    77.78

 Norm of t1 vector:      0.10829732      S-energy:     0.00000000      T1 diagnostic:  0.01181621
                                                                       D1 diagnostic:  0.03165949

 Doubles amplitudes (print threshold =  0.500E-01):

         I         J         SYM. A    SYM. B    A         B      T(IJ, AB)

        20        20         2         2         1         1     -0.08599051
        21        20         2         2         1         2      0.05025697
        21        21         2         2         2         2     -0.08285298


 Total CPU time for triples:     46.58 sec


 RESULTS
 =======

  Reference energy                   -428.433559324475
  CCSD singlet pair energy             -0.756718248598
  CCSD triplet pair energy             -0.415486926174
  CCSD correlation energy              -1.172205174771

  Triples (T) contribution             -0.043065778938
  Total correlation energy             -1.215270953710

  CCSD total energy                  -429.605764499247
  CCSD[T] energy                     -429.650830289935
  CCSD-T energy                      -429.648105905144
 !CCSD(T) total energy               -429.648830278185

 Timing summary (sec):

 STEP                 CPU(USER)    SYS     CPU(TOT)    WALL
 Transformation          1.09      0.16      1.25      1.25
 CCSD iterations        76.69      2.25     78.94     79.02
 Triples                46.58      1.30     47.88     47.89

 Program statistics:

 Available memory in ccsd:               999998136
 Min. memory needed in ccsd:               3240252
 Max. memory used in ccsd:                 4334402
 Max. memory used in cckext:               4782293 (25 integral passes)



 **********************************************************************************************************************************
 DATASETS  * FILE   NREC   LENGTH (MB)   RECORD NAMES
              1      20      222.58       500      610      700      900      950      970     1000      129      960     1100   
                                          VAR    BASINP    GEOM    SYMINP    ZMAT    AOBASIS   BASIS     P2S    ABASIS      S 
                                         1400     1410     1200     1210     1080     1600     1650     1300     1700     1380   
                                           T        V       H0       H01     AOSYM     SMH    MOLCAS    ERIS     OPER     JKOP   

              2       3        0.68       700     1000     2100   
                                         GEOM     BASIS     RHF  

 PROGRAMS   *        TOTAL   CCSD(T)       RHF       INT
 CPU TIMES  *       132.64    124.38      3.19      4.93
 REAL TIME  *       138.00 SEC
 DISK USED  *       591.57 MB      
 GA USED    *         0.00 MB       (max)       0.00 MB       (current)
 **********************************************************************************************************************************

        CCSD(T)         RHF-SCF 
   -429.64883028   -428.43355932
 **********************************************************************************************************************************
 Variable memory released
