
 Primary working directories    : /tmp/1003441.208.gen6.q
 Secondary working directories  : /tmp/1003441.208.gen6.q
 Wavefunction directory         : /home/vulcan/jj04645/wfu/
 Main file repository           : /tmp/1003441.208.gen6.q/

 ARCHNAME  : Linux/x86_64
 FC        : /opt/intel/compilers_and_libraries_2016.1.150/linux/bin/intel64/ifort
 FCVERSION : 16.0.1
 BLASLIB   : -mkl
 id        : ccgc

 Nodes     nprocs
 n074         1
 ga_uses_ma=false, calling ma_init with nominal heap.
 GA-space will be limited to   8.0 MW (determined by -G option)

 Using customized tuning parameters: mindgm=10; mindgv=16; mindgc=4; mindgr=1; noblas=0; mincuda=1000; minvec=7
 default implementation of scratch files=df  

 ***,Optimization of acetyl acetylene
 memory,1000,m
 gthresh,energy=1.0d-12,orbital=1.0d-10,oneint=1.0d-16,twoint=1.0d-16,optgrad=1.0d-6,compress=1.0d-13
 geomtyp=xyz
 
 bohr
 geometry = {
  H    3.3713470468   -1.7741235893   -1.6726492503
  C    2.2758658463   -2.3094429916    0.0000000000
  H    1.9286397335   -4.3418812696    0.0000000000
  C   -0.2119214446   -0.9139997899   -0.0000000000
  H    3.3713470468   -1.7741235893    1.6726492504
  O   -2.2575668431   -1.9573778017   -0.0000000001
  C   -0.0182662683    1.8527597939   -0.0000000000
  C    0.2067511058    4.1342660687   -0.0000000000
  H    0.3549289560    6.1394880058   -0.0000000000
 }
 
 basis=VDZ
 {rhf;maxit,200}
 {ccsd(t);maxit,200}

 Variables initialized (661), CPU time= 0.00 sec
 Commands  initialized (458), CPU time= 0.01 sec, 486 directives.
 Default parameters read. Elapsed time= 0.04 sec

 Checking input...
 Passed
1


                                         ***  PROGRAM SYSTEM MOLPRO  ***
                         Copyright, University College Cardiff Consultants Limited, 2008

                                    Version 2010.1 linked May 16 2016 07:17:05


 **********************************************************************************************************************************
 LABEL *   Optimization of acetyl acetylene                                              
 Linux-4.4.3/n074(x86_64) 64 bit mpp version                                             DATE: 15-Feb-24          TIME: 13:37:36  
 **********************************************************************************************************************************

 SHA1:             9e8077add272b0f3cad6f7df79ec5211205f459d
 **********************************************************************************************************************************

 THRESHOLDS:

 ZERO    =  1.00D-12  ONEINT  =  1.00D-16  TWOINT  =  1.00D-16  PREFAC  =  1.00D-14  LOCALI  =  1.00D-09  EORDER  =  1.00D-04
 ENERGY  =  1.00D-12  ETEST   =  0.00D+00  EDENS   =  0.00D+00  THRDEDEF=  1.00D-06  GRADIENT=  1.00D-02  STEP    =  1.00D-03
 ORBITAL =  1.00D-10  CIVEC   =  1.00D-05  COEFF   =  1.00D-04  PRINTCI =  5.00D-02  PUNCHCI =  9.90D+01  OPTGRAD =  1.00D-06
 OPTENERG=  1.00D-06  OPTSTEP =  3.00D-04  THRGRAD =  1.00D-10  COMPRESS=  1.00D-13  VARMIN  =  1.00D-07  VARMAX  =  1.00D-03
 THRDOUB =  0.00D+00  THRDIV  =  1.00D-05  THRRED  =  1.00D-07  THRPSP  =  1.00D+00  THRDC   =  1.00D-10  THRCS   =  1.00D-10
 THRNRM  =  1.00D-08  THREQ   =  0.00D+00  THRDE   =  1.00D+00  THRREF  =  1.00D-05  SPARFAC =  1.00D+00  THRDLP  =  1.00D-07
 THRDIA  =  1.00D-10  THRDLS  =  1.00D-07  THRGPS  =  0.00D+00  THRKEX  =  0.00D+00  THRDIS  =  2.00D-01  THRVAR  =  1.00D-10
 THRLOC  =  1.00D-06  THRGAP  =  1.00D-06  THRLOCT = -1.00D+00  THRGAPT = -1.00D+00  THRORB  =  1.00D-06  THRMLTP =  0.00D+00
 THRCPQCI=  1.00D-10  KEXTA   =  0.00D+00  THRCOARS=  0.00D+00  SYMTOL  =  1.00D-06  GRADTOL =  1.00D-06  THROVL  =  1.00D-08
 THRORTH =  1.00D-08  GRID    =  1.00D-06  GRIDMAX =  1.00D-03  DTMAX   =  0.00D+00

 SETTING GEOMTYP        =    XYZ
 ZUNIT=BOHR
 

 Variable memory set to 1000000000 words,  buffer space   230000 words

 SETTING BASIS          =    VDZ


 Recomputing integrals since basis changed


 Using spherical harmonics

 Library entry H      S cc-pVDZ              selected for orbital group  1
 Library entry H      P cc-pVDZ              selected for orbital group  1
 Library entry C      S cc-pVDZ              selected for orbital group  2
 Library entry C      P cc-pVDZ              selected for orbital group  2
 Library entry C      D cc-pVDZ              selected for orbital group  2
 Library entry O      S cc-pVDZ              selected for orbital group  5
 Library entry O      P cc-pVDZ              selected for orbital group  5
 Library entry O      D cc-pVDZ              selected for orbital group  5

1PROGRAM * SEWARD (Integral evaluation for generally contracted gaussian basis sets)     Author: Roland Lindh, 1990

 Geometry written to block  1 of record 700


 Point group  Cs  



 ATOMIC COORDINATES

 NR  ATOM    CHARGE       X              Y              Z

   1  H       1.00    3.371347047   -1.774123589   -1.672649250
   2  H       1.00    3.371347047   -1.774123589    1.672649250
   3  C       6.00    2.275865846   -2.309442992    0.000000000
   4  H       1.00    1.928639734   -4.341881270    0.000000000
   5  C       6.00   -0.211921445   -0.913999790    0.000000000
   6  O       8.00   -2.257566843   -1.957377802    0.000000000
   7  C       6.00   -0.018266268    1.852759794    0.000000000
   8  C       6.00    0.206751106    4.134266069    0.000000000
   9  H       1.00    0.354928956    6.139488006    0.000000000

 Bond lengths in Bohr (Angstrom)

 1-3  2.069879571  2-3  2.069879571  3-4  2.061885382  3-5  2.852428322  5-6  2.296367299
     ( 1.095333094)     ( 1.095333094)     ( 1.091102752)     ( 1.509440058)     ( 1.215185238)

 5-7  2.773528605  7-8  2.292575779  8-9  2.010689357
     ( 1.467688126)     ( 1.213178852)     ( 1.064010982)

 Bond angles

  1-3-2  107.81949882   1-3-4  110.12421546   1-3-5  109.57681271   2-3-4  110.12421546

  2-3-5  109.57681271   3-5-6  123.68739543   3-5-7  115.28502355   4-3-5  109.59389088

  5-7-8  178.37112628   6-5-7  121.02758102   7-8-9  178.59357076

 NUCLEAR CHARGE:                   36
 NUMBER OF PRIMITIVE AOS:         163
 NUMBER OF SYMMETRY AOS:          158
 NUMBER OF CONTRACTIONS:           90   (  63A'  +  27A"  )
 NUMBER OF CORE ORBITALS:           5   (   5A'  +   0A"  )
 NUMBER OF VALENCE ORBITALS:       24   (  18A'  +   6A"  )


 NUCLEAR REPULSION ENERGY  142.19026291


 Eigenvalues of metric

         1 0.304E-03 0.212E-02 0.377E-02 0.954E-02 0.161E-01 0.177E-01 0.220E-01 0.330E-01
         2 0.346E-01 0.378E-01 0.738E-01 0.110E+00 0.140E+00 0.174E+00 0.186E+00 0.208E+00


 Contracted 2-electron integrals neglected if value below      1.0D-16
 AO integral compression algorithm  1   Integral accuracy      1.0D-16

     37.749 MB (compressed) written to integral file ( 95.3%)

     Node minimum: 37.749 MB, node maximum: 37.749 MB


 NUMBER OF SORTED TWO-ELECTRON INTEGRALS:    4390911.     BUFFER LENGTH:  32768
 NUMBER OF SEGMENTS:   1  SEGMENT LENGTH:    4390911      RECORD LENGTH: 524288

 Memory used in sort:       4.95 MW

 SORT1 READ     4939406. AND WROTE     4342092. INTEGRALS IN     13 RECORDS. CPU TIME:     0.06 SEC, REAL TIME:     0.08 SEC
 SORT2 READ     4342092. AND WROTE     4390911. INTEGRALS IN    144 RECORDS. CPU TIME:     0.06 SEC, REAL TIME:     0.08 SEC

 FILE SIZES:   FILE 1:    36.1 MBYTE,  FILE 4:    54.6 MBYTE,   TOTAL:     90.7 MBYTE

 OPERATOR DM      FOR CENTER  0  COORDINATES:    0.000000    0.000000    0.000000


 **********************************************************************************************************************************
 DATASETS  * FILE   NREC   LENGTH (MB)   RECORD NAMES
              1      19       36.20       500      610      700      900      950      970     1000      129      960     1100   
                                          VAR    BASINP    GEOM    SYMINP    ZMAT    AOBASIS   BASIS     P2S    ABASIS      S 
                                         1400     1410     1200     1210     1080     1600     1650     1300     1700   
                                           T        V       H0       H01     AOSYM     SMH    MOLCAS    ERIS     OPER   

 PROGRAMS   *        TOTAL       INT
 CPU TIMES  *         0.89      0.85
 REAL TIME  *         1.13 SEC
 DISK USED  *       129.20 MB      
 GA USED    *         0.00 MB       (max)       0.00 MB       (current)
 **********************************************************************************************************************************

1PROGRAM * RHF-SCF (CLOSED SHELL)       Authors: W. Meyer, H.-J. Werner


 NUMBER OF ELECTRONS:      18+   18-
 CONVERGENCE THRESHOLDS:    1.00E-10 (Density)    1.00E-13 (Energy)
 MAX. NUMBER OF ITERATIONS:      200
 INTERPOLATION TYPE:            DIIS
 INTERPOLATION STEPS:              2 (START)      1 (STEP)
 LEVEL SHIFTS:                  0.00 (CLOSED)  0.00 (OPEN) 



 Orbital guess generated from atomic densities. Full valence occupancy:   23   6

 Molecular orbital dump at record        2100.2

 Initial alpha occupancy:  15   3
 Initial beta  occupancy:  15   3
 Wave function symmetry:    1

 ITERATION    DDIFF          GRAD             ENERGY        2-EL.EN.            DIPOLE MOMENTS         DIIS
    1      0.000D+00      0.000D+00      -228.51848565    442.395605    1.92191    1.01023    0.00000    0
    2      0.000D+00      0.116D-01      -228.57140488    440.552713    0.82500    0.44381    0.00000    1
    3      0.277D-01      0.854D-02      -228.60351688    441.106312    1.22339    0.61432    0.00000    2
    4      0.102D-01      0.138D-02      -228.60536708    441.238609    1.16563    0.62458    0.00000    3
    5      0.310D-02      0.524D-03      -228.60562924    441.131662    1.16145    0.58272    0.00000    4
    6      0.109D-02      0.193D-03      -228.60566616    441.164198    1.16251    0.59288    0.00000    5
    7      0.418D-03      0.815D-04      -228.60567505    441.154128    1.15901    0.58535    0.00000    6
    8      0.214D-03      0.337D-04      -228.60567664    441.157156    1.15875    0.58464    0.00000    7
    9      0.101D-03      0.927D-05      -228.60567680    441.155906    1.15821    0.58416    0.00000    8
   10      0.368D-04      0.211D-05      -228.60567682    441.156336    1.15812    0.58414    0.00000    7
   11      0.714D-05      0.976D-06      -228.60567682    441.156103    1.15808    0.58415    0.00000    8
   12      0.313D-05      0.526D-06      -228.60567682    441.156144    1.15806    0.58414    0.00000    8
   13      0.249D-05      0.248D-06      -228.60567682    441.156132    1.15806    0.58413    0.00000    9
   14      0.110D-05      0.850D-07      -228.60567682    441.156134    1.15806    0.58412    0.00000    9
   15      0.358D-06      0.172D-07      -228.60567682    441.156136    1.15806    0.58412    0.00000    8
   16      0.604D-07      0.550D-08      -228.60567682    441.156135    1.15807    0.58412    0.00000    8
   17      0.117D-07      0.255D-08      -228.60567682    441.156136    1.15807    0.58412    0.00000    9
   18      0.556D-08      0.781D-09      -228.60567682    441.156135    1.15807    0.58412    0.00000    9
   19      0.190D-08      0.261D-09      -228.60567682    441.156136    1.15807    0.58412    0.00000    9
   20      0.701D-09      0.494D-10      -228.60567682    441.156136    1.15807    0.58412    0.00000    7
   21      0.147D-09      0.108D-10      -228.60567682    441.156136    1.15807    0.58412    0.00000    7
   22      0.271D-10      0.416D-11      -228.60567682    441.156136    1.15807    0.58412    0.00000    7
   23      0.963D-11      0.206D-11      -228.60567682    441.156136    1.15807    0.58412    0.00000    7
   24      0.600D-11      0.971D-12      -228.60567682    441.156136    1.15807    0.58412    0.00000    0

 Final occupancy:  15   3

 !RHF STATE 1.1 Energy               -228.605676820748
 Nuclear energy                       142.19026291
 One-electron energy                 -591.37400749
 Two-electron energy                  220.57806776
 Virial quotient                       -1.00153140
 !RHF STATE 1.1 Dipole moment           1.15806513     0.58412292     0.00000000
 Dipole moment /Debye                   2.94331517     1.48459513     0.00000000

 Orbital energies:

         1.1          2.1          3.1          4.1          5.1          6.1          7.1          8.1          9.1         10.1
    -20.568389   -11.368690   -11.272686   -11.261574   -11.253503    -1.403951    -1.070530    -1.015240    -0.860133    -0.732979

        11.1         12.1         13.1         14.1         15.1         16.1         17.1
     -0.684558    -0.637158    -0.569942    -0.445535    -0.417671     0.180152     0.188233

         1.2          2.2          3.2          4.2          5.2
     -0.614266    -0.517781    -0.414351     0.094100     0.228870


 **********************************************************************************************************************************
 DATASETS  * FILE   NREC   LENGTH (MB)   RECORD NAMES
              1      19       36.20       500      610      700      900      950      970     1000      129      960     1100   
                                          VAR    BASINP    GEOM    SYMINP    ZMAT    AOBASIS   BASIS     P2S    ABASIS      S 
                                         1400     1410     1200     1210     1080     1600     1650     1300     1700   
                                           T        V       H0       H01     AOSYM     SMH    MOLCAS    ERIS     OPER   

              2       3        0.50       700     1000     2100   
                                         GEOM     BASIS     RHF  

 PROGRAMS   *        TOTAL       RHF       INT
 CPU TIMES  *         1.40      0.51      0.85
 REAL TIME  *         1.74 SEC
 DISK USED  *       129.20 MB      
 GA USED    *         0.00 MB       (max)       0.00 MB       (current)
 **********************************************************************************************************************************


1PROGRAM * CCSD (Closed-shell coupled cluster)     Authors: C. Hampel, H.-J. Werner, 1991, M. Deegan, P.J. Knowles, 1992


 Convergence thresholds:  THRVAR = 1.00D-08  THRDEN = 1.00D-12

 CCSD(T)     terms to be evaluated (factor= 1.000)


 Number of core orbitals:           5 (   5   0 )
 Number of closed-shell orbitals:  13 (  10   3 )
 Number of external orbitals:      72 (  48  24 )

 Molecular orbitals read from record     2100.2  Type=RHF/CANONICAL (state 1.1)

 Number of N-1 electron functions:              13
 Number of N-2 electron functions:              91
 Number of singly external CSFs:               552
 Number of doubly external CSFs:            226548
 Total number of CSFs:                      227101

 Length of J-op  integral file:               0.00 MB
 Length of K-op  integral file:               0.35 MB
 Length of 3-ext integral record:             0.00 MB

 Memory could be reduced to 3.88 Mwords without degradation in triples

 Integral transformation finished. Total CPU:   0.10 sec, npass=  1  Memory used:   1.89 MW

 Reference energy:                   -228.60567682

 MP2 singlet pair energy:              -0.43064449
 MP2 triplet pair energy:              -0.26904453
 MP2 correlation energy:               -0.69968902
 MP2 total energy:                   -229.30536584

 SCS-MP2 correlation energy:           -0.68417887   (PS=  1.200000  PT=  0.333333)
 SCS-MP2 total energy:               -229.28985569

 ITER.      SQ.NORM     CORR.ENERGY   TOTAL ENERGY   ENERGY CHANGE        DEN1      VAR(S)    VAR(P)  DIIS     TIME
   1      1.25744349    -0.72737416  -229.33305098    -0.02768514    -0.00370158  0.60D-02  0.55D-02  1  1     0.35
   2      1.28022373    -0.73015241  -229.33582923    -0.00277825    -0.02082489  0.12D-03  0.98D-03  2  2     0.61
   3      1.29089948    -0.73092928  -229.33660610    -0.00077687    -0.00476883  0.11D-03  0.92D-04  3  3     0.87
   4      1.29518477    -0.73089435  -229.33657118     0.00003493    -0.00140854  0.80D-05  0.18D-04  4  4     1.13
   5      1.29704463    -0.73091556  -229.33659238    -0.00002121    -0.00044469  0.16D-05  0.20D-05  5  5     1.39
   6      1.29747017    -0.73091146  -229.33658828     0.00000410    -0.00006273  0.28D-06  0.27D-06  6  6     1.65
   7      1.29755802    -0.73090725  -229.33658407     0.00000422    -0.00000188  0.56D-07  0.30D-07  6  1     1.91
   8      1.29759617    -0.73090821  -229.33658503    -0.00000096    -0.00000949  0.11D-07  0.48D-08  6  2     2.17
   9      1.29759836    -0.73090830  -229.33658512    -0.00000010     0.00000298  0.17D-08  0.83D-09  6  3     2.43
  10      1.29760111    -0.73090802  -229.33658485     0.00000028    -0.00000057  0.33D-09  0.16D-09  6  4     2.69
  11      1.29760093    -0.73090828  -229.33658510    -0.00000025     0.00000057  0.42D-10  0.32D-10  6  5     2.95
  12      1.29760064    -0.73090823  -229.33658506     0.00000004     0.00000015  0.82D-11  0.62D-11  6  6     3.21
  13      1.29760029    -0.73090826  -229.33658508    -0.00000003     0.00000015  0.94D-12  0.16D-11  6  1     3.47
  14      1.29760006    -0.73090827  -229.33658509    -0.00000000     0.00000006  0.28D-12  0.24D-12  6  2     3.74
  15      1.29759995    -0.73090827  -229.33658509    -0.00000000     0.00000003  0.43D-13  0.50D-13  6  3     4.00
  16      1.29759990    -0.73090827  -229.33658509    -0.00000000     0.00000001  0.82D-14  0.99D-14  6  4     4.25
  17      1.29759988    -0.73090827  -229.33658509    -0.00000000     0.00000000  0.25D-14  0.12D-14  6  5     4.51
  18      1.29759988    -0.73090827  -229.33658509    -0.00000000     0.00000000  0.34D-15  0.24D-15  6  6     4.77
  19      1.29759988    -0.73090827  -229.33658509    -0.00000000    -0.00000000  0.79D-16  0.45D-16  6  1     5.03
  20      1.29759988    -0.73090827  -229.33658509    -0.00000000    -0.00000000  0.20D-16  0.80D-17  6  4     5.28
  21      1.29759988    -0.73090827  -229.33658509    -0.00000000    -0.00000000  0.57D-17  0.18D-17  6  1     5.55
  22      1.29759988    -0.73090827  -229.33658509    -0.00000000     0.00000000  0.65D-18  0.32D-18  6  2     5.80
  23      1.29759988    -0.73090827  -229.33658509     0.00000000     0.00000000  0.15D-18  0.75D-19  6  3     6.06
  24      1.29759988    -0.73090827  -229.33658509    -0.00000000     0.00000000  0.25D-19  0.13D-19  6  5     6.32
  25      1.29759988    -0.73090827  -229.33658509     0.00000000    -0.00000000  0.53D-20  0.32D-20  6  6     6.58
  26      1.29759988    -0.73090827  -229.33658509     0.00000000    -0.00000000  0.11D-20  0.84D-21  6  1     6.84

 Norm of t1 vector:      0.10832025      S-energy:     0.00000000      T1 diagnostic:  0.01502132
                                                                       D1 diagnostic:  0.05035801

 Doubles amplitudes (print threshold =  0.500E-01):

         I         J         SYM. A    SYM. B    A         B      T(IJ, AB)

        10        10         1         1         1         1     -0.06434344
        12        12         2         2         1         1     -0.05806292
        13        13         2         2         1         1     -0.07375071


 Total CPU time for triples:      2.84 sec


 RESULTS
 =======

  Reference energy                   -228.605676820748
  CCSD singlet pair energy             -0.496816045355
  CCSD triplet pair energy             -0.234092223897
  CCSD correlation energy              -0.730908269252

  Triples (T) contribution             -0.028493385664
  Total correlation energy             -0.759401654916

  CCSD total energy                  -229.336585090000
  CCSD[T] energy                     -229.366935691046
  CCSD-T energy                      -229.364374910107
 !CCSD(T) total energy               -229.365078475664

 Timing summary (sec):

 STEP                 CPU(USER)    SYS     CPU(TOT)    WALL
 Transformation          0.11      0.02      0.13      0.12
 CCSD iterations         6.73      0.32      7.05      7.10
 Triples                 2.84      0.06      2.90      2.90

 Program statistics:

 Available memory in ccsd:               999999224
 Min. memory needed in ccsd:                665989
 Max. memory used in ccsd:                  860707
 Max. memory used in cckext:                949946 (26 integral passes)



 **********************************************************************************************************************************
 DATASETS  * FILE   NREC   LENGTH (MB)   RECORD NAMES
              1      20       51.17       500      610      700      900      950      970     1000      129      960     1100   
                                          VAR    BASINP    GEOM    SYMINP    ZMAT    AOBASIS   BASIS     P2S    ABASIS      S 
                                         1400     1410     1200     1210     1080     1600     1650     1300     1700     1380   
                                           T        V       H0       H01     AOSYM     SMH    MOLCAS    ERIS     OPER     JKOP   

              2       3        0.50       700     1000     2100   
                                         GEOM     BASIS     RHF  

 PROGRAMS   *        TOTAL   CCSD(T)       RHF       INT
 CPU TIMES  *        11.09      9.69      0.51      0.85
 REAL TIME  *        11.89 SEC
 DISK USED  *       130.77 MB      
 GA USED    *         0.00 MB       (max)       0.00 MB       (current)
 **********************************************************************************************************************************

        CCSD(T)         RHF-SCF 
   -229.36507848   -228.60567682
 **********************************************************************************************************************************
 Variable memory released
