
 Primary working directories    : /tmp/984874.601.gen6.q
 Secondary working directories  : /tmp/984874.601.gen6.q
 Wavefunction directory         : /home/vulcan/mel64643/wfu/
 Main file repository           : /tmp/984874.601.gen6.q/

 ARCHNAME  : Linux/x86_64
 FC        : /opt/intel/compilers_and_libraries_2016.1.150/linux/bin/intel64/ifort
 FCVERSION : 16.0.1
 BLASLIB   : -mkl
 id        : ccgc

 Nodes     nprocs
 n087         1
 ga_uses_ma=false, calling ma_init with nominal heap.
 GA-space will be limited to   8.0 MW (determined by -G option)

 Using customized tuning parameters: mindgm=10; mindgv=16; mindgc=4; mindgr=1; noblas=0; mincuda=1000; minvec=7
 default implementation of scratch files=df  

 ***,Optimization of formic acid
 memory,1000,m
 gthresh,energy=1.0d-12,orbital=1.0d-10,oneint=1.0d-16,twoint=1.0d-16,optgrad=1.0d-6,compress=1.0d-13
 geomtyp=xyz
 
 
 
 bohr
 geometry = {
  C   -3.5006037363   -0.8307718225   -0.0046843013
  O   -3.0943481964    1.6226833465   -0.0028767768
  O   -1.8853846352   -2.4812210294   -0.0008113208
  H   -5.5198260044   -1.2733723611    0.0043630778
  H   -1.2421899953    1.9540385225    0.0022104476
  C    3.5006037363    0.8307718225    0.0046843013
  O    3.0943481964   -1.6226833465    0.0028767768
  O    1.8853846352    2.4812210294    0.0008113208
  H    5.5198260044    1.2733723611   -0.0043630778
  H    1.2421899953   -1.9540385225   -0.0022104476
 }
 
 basis=VTZ
 {rhf;maxit,200}
 {ccsd(t);maxit,200}

 Variables initialized (661), CPU time= 0.00 sec
 Commands  initialized (458), CPU time= 0.01 sec, 486 directives.
 Default parameters read. Elapsed time= 0.05 sec

 Checking input...
 Passed
1


                                         ***  PROGRAM SYSTEM MOLPRO  ***
                         Copyright, University College Cardiff Consultants Limited, 2008

                                    Version 2010.1 linked May 16 2016 07:17:05


 **********************************************************************************************************************************
 LABEL *   Optimization of formic acid                                                   
 Linux-4.4.3/n087(x86_64) 64 bit mpp version                                             DATE: 24-Jan-24          TIME: 22:04:00  
 **********************************************************************************************************************************

 SHA1:             9e8077add272b0f3cad6f7df79ec5211205f459d
 **********************************************************************************************************************************

 THRESHOLDS:

 ZERO    =  1.00D-12  ONEINT  =  1.00D-16  TWOINT  =  1.00D-16  PREFAC  =  1.00D-14  LOCALI  =  1.00D-09  EORDER  =  1.00D-04
 ENERGY  =  1.00D-12  ETEST   =  0.00D+00  EDENS   =  0.00D+00  THRDEDEF=  1.00D-06  GRADIENT=  1.00D-02  STEP    =  1.00D-03
 ORBITAL =  1.00D-10  CIVEC   =  1.00D-05  COEFF   =  1.00D-04  PRINTCI =  5.00D-02  PUNCHCI =  9.90D+01  OPTGRAD =  1.00D-06
 OPTENERG=  1.00D-06  OPTSTEP =  3.00D-04  THRGRAD =  1.00D-10  COMPRESS=  1.00D-13  VARMIN  =  1.00D-07  VARMAX  =  1.00D-03
 THRDOUB =  0.00D+00  THRDIV  =  1.00D-05  THRRED  =  1.00D-07  THRPSP  =  1.00D+00  THRDC   =  1.00D-10  THRCS   =  1.00D-10
 THRNRM  =  1.00D-08  THREQ   =  0.00D+00  THRDE   =  1.00D+00  THRREF  =  1.00D-05  SPARFAC =  1.00D+00  THRDLP  =  1.00D-07
 THRDIA  =  1.00D-10  THRDLS  =  1.00D-07  THRGPS  =  0.00D+00  THRKEX  =  0.00D+00  THRDIS  =  2.00D-01  THRVAR  =  1.00D-10
 THRLOC  =  1.00D-06  THRGAP  =  1.00D-06  THRLOCT = -1.00D+00  THRGAPT = -1.00D+00  THRORB  =  1.00D-06  THRMLTP =  0.00D+00
 THRCPQCI=  1.00D-10  KEXTA   =  0.00D+00  THRCOARS=  0.00D+00  SYMTOL  =  1.00D-06  GRADTOL =  1.00D-06  THROVL  =  1.00D-08
 THRORTH =  1.00D-08  GRID    =  1.00D-06  GRIDMAX =  1.00D-03  DTMAX   =  0.00D+00

 SETTING GEOMTYP        =    XYZ
 ZUNIT=BOHR
 

 Variable memory set to 1000000000 words,  buffer space   230000 words

 SETTING BASIS          =    VTZ


 Recomputing integrals since basis changed


 Using spherical harmonics

 Library entry C      S cc-pVTZ              selected for orbital group  1
 Library entry C      P cc-pVTZ              selected for orbital group  1
 Library entry C      D cc-pVTZ              selected for orbital group  1
 Library entry C      F cc-pVTZ              selected for orbital group  1
 Library entry O      S cc-pVTZ              selected for orbital group  2
 Library entry O      P cc-pVTZ              selected for orbital group  2
 Library entry O      D cc-pVTZ              selected for orbital group  2
 Library entry O      F cc-pVTZ              selected for orbital group  2
 Library entry H      S cc-pVTZ              selected for orbital group  3
 Library entry H      P cc-pVTZ              selected for orbital group  3
 Library entry H      D cc-pVTZ              selected for orbital group  3

1PROGRAM * SEWARD (Integral evaluation for generally contracted gaussian basis sets)     Author: Roland Lindh, 1990

 Geometry written to block  1 of record 700


 Point group  Ci  



 ATOMIC COORDINATES

 NR  ATOM    CHARGE       X              Y              Z

   1  C       6.00   -3.500603736   -0.830771823   -0.004684301
   2  C       6.00    3.500603736    0.830771823    0.004684301
   3  O       8.00   -3.094348196    1.622683346   -0.002876777
   4  O       8.00    3.094348196   -1.622683346    0.002876777
   5  O       8.00   -1.885384635   -2.481221029   -0.000811321
   6  O       8.00    1.885384635    2.481221029    0.000811321
   7  H       1.00   -5.519826004   -1.273372361    0.004363078
   8  H       1.00    5.519826004    1.273372361   -0.004363078
   9  H       1.00   -1.242189995    1.954038523    0.002210448
  10  H       1.00    1.242189995   -1.954038523   -0.002210448

 Bond lengths in Bohr (Angstrom)

 1-3  2.486863305  1-5  2.309313822  1-7  2.067180606  2-4  2.486863305  2-6  2.309313822
     ( 1.315991383)     ( 1.222036243)     ( 1.093904864)     ( 1.315991383)     ( 1.222036243)

  2- 8  2.067180606   3- 9  1.881571719   4-10  1.881571719
       ( 1.093904864)       ( 0.995684871)       ( 0.995684871)

 Bond angles

  1- 3- 9  109.54509197   2- 4-10  109.54509197   3- 1- 5  126.21591209   3- 1- 7  111.76493323

  4-2-6  126.21591209   4-2-8  111.76493323   5-1-7  122.01768707   6-2-8  122.01768707

 NUCLEAR CHARGE:                   48
 NUMBER OF PRIMITIVE AOS:         350
 NUMBER OF SYMMETRY AOS:          316
 NUMBER OF CONTRACTIONS:          236   ( 118Ag  + 118Au  )
 NUMBER OF CORE ORBITALS:           6   (   3Ag  +   3Au  )
 NUMBER OF VALENCE ORBITALS:       28   (  14Ag  +  14Au  )


 NUCLEAR REPULSION ENERGY  235.53066739


 Eigenvalues of metric

         1 0.141E-02 0.159E-02 0.224E-02 0.353E-02 0.402E-02 0.539E-02 0.572E-02 0.897E-02
         2 0.132E-02 0.159E-02 0.268E-02 0.361E-02 0.393E-02 0.553E-02 0.642E-02 0.760E-02


 Contracted 2-electron integrals neglected if value below      1.0D-16
 AO integral compression algorithm  1   Integral accuracy      1.0D-16

     1705.509 MB (compressed) written to integral file ( 90.8%)

     Node minimum: 1705.509 MB, node maximum: 1705.509 MB


 NUMBER OF SORTED TWO-ELECTRON INTEGRALS:  197184785.     BUFFER LENGTH:  32768
 NUMBER OF SEGMENTS:  13  SEGMENT LENGTH:   15997996      RECORD LENGTH: 524288

 Memory used in sort:      16.56 MW

 SORT1 READ   234824792. AND WROTE   197165476. INTEGRALS IN    568 RECORDS. CPU TIME:     2.33 SEC, REAL TIME:     3.86 SEC
 SORT2 READ   197165476. AND WROTE   197184785. INTEGRALS IN   6506 RECORDS. CPU TIME:     1.66 SEC, REAL TIME:     2.40 SEC

 FILE SIZES:   FILE 1:  1482.3 MBYTE,  FILE 4:  2382.4 MBYTE,   TOTAL:   3864.7 MBYTE

 OPERATOR DM      FOR CENTER  0  COORDINATES:    0.000000    0.000000    0.000000


 **********************************************************************************************************************************
 DATASETS  * FILE   NREC   LENGTH (MB)   RECORD NAMES
              1      19     1482.61       500      610      700      900      950      970     1000      129      960     1100   
                                          VAR    BASINP    GEOM    SYMINP    ZMAT    AOBASIS   BASIS     P2S    ABASIS      S 
                                         1400     1410     1200     1210     1080     1600     1650     1300     1700   
                                           T        V       H0       H01     AOSYM     SMH    MOLCAS    ERIS     OPER   

 PROGRAMS   *        TOTAL       INT
 CPU TIMES  *        14.11     14.07
 REAL TIME  *        17.36 SEC
 DISK USED  *         5.57 GB      
 GA USED    *         0.00 MB       (max)       0.00 MB       (current)
 **********************************************************************************************************************************

1PROGRAM * RHF-SCF (CLOSED SHELL)       Authors: W. Meyer, H.-J. Werner


 NUMBER OF ELECTRONS:      24+   24-
 CONVERGENCE THRESHOLDS:    1.00E-10 (Density)    1.00E-13 (Energy)
 MAX. NUMBER OF ITERATIONS:      200
 INTERPOLATION TYPE:            DIIS
 INTERPOLATION STEPS:              2 (START)      1 (STEP)
 LEVEL SHIFTS:                  0.00 (CLOSED)  0.00 (OPEN) 



 Orbital guess generated from atomic densities. Full valence occupancy:   17  17

 Molecular orbital dump at record        2100.2

 Initial alpha occupancy:  12  12
 Initial beta  occupancy:  12  12
 Wave function symmetry:    1

 ITERATION    DDIFF          GRAD             ENERGY        2-EL.EN.            DIPOLE MOMENTS         DIIS
    1      0.000D+00      0.000D+00      -377.56180811    747.257482    0.00000    0.00000    0.00000    0
    2      0.000D+00      0.709D-02      -377.64941808    744.192281    0.00000    0.00000    0.00000    1
    3      0.114D-01      0.462D-02      -377.69896368    746.517691    0.00000    0.00000    0.00000    2
    4      0.450D-02      0.617D-03      -377.70050302    746.203064    0.00000    0.00000    0.00000    3
    5      0.850D-03      0.271D-03      -377.70078021    746.241176    0.00000    0.00000    0.00000    4
    6      0.353D-03      0.784D-04      -377.70082800    746.285550    0.00000    0.00000    0.00000    5
    7      0.135D-03      0.339D-04      -377.70083911    746.268027    0.00000    0.00000    0.00000    6
    8      0.747D-04      0.110D-04      -377.70084042    746.273843    0.00000    0.00000    0.00000    7
    9      0.286D-04      0.350D-05      -377.70084054    746.272355    0.00000    0.00000    0.00000    8
   10      0.851D-05      0.105D-05      -377.70084055    746.272555    0.00000    0.00000    0.00000    7
   11      0.285D-05      0.313D-06      -377.70084055    746.272503    0.00000    0.00000    0.00000    8
   12      0.868D-06      0.522D-07      -377.70084055    746.272506    0.00000    0.00000    0.00000    8
   13      0.137D-06      0.126D-07      -377.70084055    746.272505    0.00000    0.00000    0.00000    7
   14      0.306D-07      0.315D-08      -377.70084055    746.272506    0.00000    0.00000    0.00000    7
   15      0.801D-08      0.878D-09      -377.70084055    746.272505    0.00000    0.00000    0.00000    7
   16      0.159D-08      0.379D-09      -377.70084055    746.272505    0.00000    0.00000    0.00000    7
   17      0.677D-09      0.103D-09      -377.70084055    746.272505    0.00000    0.00000    0.00000    7
   18      0.169D-09      0.278D-10      -377.70084055    746.272505    0.00000    0.00000    0.00000    7
   19      0.492D-10      0.121D-10      -377.70084055    746.272505    0.00000    0.00000    0.00000    7
   20      0.213D-10      0.429D-11      -377.70084055    746.272505    0.00000    0.00000    0.00000    8
   21      0.866D-11      0.188D-11      -377.70084055    746.272505    0.00000    0.00000    0.00000    8
   22      0.438D-11      0.645D-12      -377.70084055    746.272505    0.00000    0.00000    0.00000    8
   23      0.177D-11      0.237D-12      -377.70084055    746.272505    0.00000    0.00000    0.00000    8
   24      0.603D-12      0.807D-13      -377.70084055    746.272505    0.00000    0.00000    0.00000    8
   25      0.282D-12      0.463D-13      -377.70084055    746.272505    0.00000    0.00000    0.00000    9
   26      0.155D-12      0.298D-13      -377.70084055    746.272505    0.00000    0.00000    0.00000    9
   27      0.124D-12      0.277D-13      -377.70084055    746.272505    0.00000    0.00000    0.00000    9
   28      0.658D-13      0.307D-13      -377.70084055    746.272505    0.00000    0.00000    0.00000    9
   29      0.378D-13      0.278D-13      -377.70084055    746.272505    0.00000    0.00000    0.00000    9
   30      0.273D-13      0.258D-13      -377.70084055    746.272505    0.00000    0.00000    0.00000    9
   31      0.316D-13      0.247D-13      -377.70084055    746.272505    0.00000    0.00000    0.00000    9
   32      0.325D-13      0.265D-13      -377.70084055    746.272505    0.00000    0.00000    0.00000    9
   33      0.344D-13      0.257D-13      -377.70084055    746.272505    0.00000    0.00000    0.00000    9
   34      0.139D-13      0.246D-13      -377.70084055    746.272505    0.00000    0.00000    0.00000    0

 Final occupancy:  12  12

 !RHF STATE 1.1 Energy               -377.700840551943
 Nuclear energy                       235.53066739
 One-electron energy                 -986.36776053
 Two-electron energy                  373.13625258
 Virial quotient                       -1.00167722
 !RHF STATE 1.1 Dipole moment           0.00000000     0.00000000     0.00000000
 Dipole moment /Debye                   0.00000000     0.00000000     0.00000000

 Orbital energies:

         1.1          2.1          3.1          4.1          5.1          6.1          7.1          8.1          9.1         10.1
    -20.613705   -20.573352   -11.406192    -1.482699    -1.370613    -0.917141    -0.731296    -0.692883    -0.632989    -0.619418

        11.1         12.1         13.1         14.1
     -0.504720    -0.495721     0.154183     0.163898

         1.2          2.2          3.2          4.2          5.2          6.2          7.2          8.2          9.2         10.2
    -20.613704   -20.573353   -11.406193    -1.469921    -1.384656    -0.881422    -0.766770    -0.722470    -0.643212    -0.578693

        11.2         12.2         13.2         14.2
     -0.493344    -0.473162     0.147011     0.164777


 **********************************************************************************************************************************
 DATASETS  * FILE   NREC   LENGTH (MB)   RECORD NAMES
              1      19     1482.61       500      610      700      900      950      970     1000      129      960     1100   
                                          VAR    BASINP    GEOM    SYMINP    ZMAT    AOBASIS   BASIS     P2S    ABASIS      S 
                                         1400     1410     1200     1210     1080     1600     1650     1300     1700   
                                           T        V       H0       H01     AOSYM     SMH    MOLCAS    ERIS     OPER   

              2       3        1.01       700     1000     2100   
                                         GEOM     BASIS     RHF  

 PROGRAMS   *        TOTAL       RHF       INT
 CPU TIMES  *        44.62     30.51     14.07
 REAL TIME  *        52.68 SEC
 DISK USED  *         5.57 GB      
 GA USED    *         0.00 MB       (max)       0.00 MB       (current)
 **********************************************************************************************************************************


1PROGRAM * CCSD (Closed-shell coupled cluster)     Authors: C. Hampel, H.-J. Werner, 1991, M. Deegan, P.J. Knowles, 1992


 Convergence thresholds:  THRVAR = 1.00D-08  THRDEN = 1.00D-12

 CCSD(T)     terms to be evaluated (factor= 1.000)


 Number of core orbitals:           6 (   3   3 )
 Number of closed-shell orbitals:  18 (   9   9 )
 Number of external orbitals:     212 ( 106 106 )

 Molecular orbitals read from record     2100.2  Type=RHF/CANONICAL (state 1.1)

 Number of N-1 electron functions:              18
 Number of N-2 electron functions:             171
 Number of singly external CSFs:              1908
 Number of doubly external CSFs:           3642372
 Total number of CSFs:                     3644281

 Length of J-op  integral file:               0.00 MB
 Length of K-op  integral file:               1.96 MB
 Length of 3-ext integral record:             0.00 MB

 Memory could be reduced to 106.93 Mwords without degradation in triples

 Integral transformation finished. Total CPU:  10.21 sec, npass=  1  Memory used:  52.09 MW

 Reference energy:                   -377.70084055

 MP2 singlet pair energy:              -0.77626613
 MP2 triplet pair energy:              -0.49231527
 MP2 correlation energy:               -1.26858139
 MP2 total energy:                   -378.96942195

 SCS-MP2 correlation energy:           -1.23784885   (PS=  1.200000  PT=  0.333333)
 SCS-MP2 total energy:               -378.93868940

 ITER.      SQ.NORM     CORR.ENERGY   TOTAL ENERGY   ENERGY CHANGE        DEN1      VAR(S)    VAR(P)  DIIS     TIME
   1      1.30949726    -1.27597190  -378.97681245    -0.00739050     0.02987142  0.10D-01  0.65D-02  1  1    19.84
   2      1.33260052    -1.27529230  -378.97613285     0.00067960    -0.02909195  0.23D-03  0.93D-03  2  2    30.01
   3      1.34379105    -1.27586955  -378.97671011    -0.00057726    -0.00514948  0.24D-03  0.46D-04  3  3    40.15
   4      1.34905882    -1.27561902  -378.97645957     0.00025054    -0.00196064  0.24D-04  0.88D-05  4  4    50.30
   5      1.35146347    -1.27556780  -378.97640835     0.00005121    -0.00054312  0.25D-05  0.83D-06  5  5    60.48
   6      1.35204777    -1.27551833  -378.97635888     0.00004948    -0.00005474  0.14D-06  0.80D-07  6  6    70.69
   7      1.35213935    -1.27551345  -378.97635400     0.00000488    -0.00000880  0.12D-07  0.12D-07  6  2    80.87
   8      1.35213535    -1.27551468  -378.97635523    -0.00000123     0.00000753  0.27D-08  0.13D-08  6  3    91.07
   9      1.35214463    -1.27551331  -378.97635386     0.00000138    -0.00000278  0.24D-09  0.13D-09  6  1   101.26
  10      1.35214399    -1.27551342  -378.97635397    -0.00000011     0.00000021  0.58D-10  0.25D-10  6  5   111.45
  11      1.35214418    -1.27551345  -378.97635400    -0.00000003     0.00000005  0.14D-10  0.44D-11  6  4   121.65
  12      1.35214391    -1.27551347  -378.97635402    -0.00000002     0.00000010  0.29D-11  0.74D-12  6  6   131.84
  13      1.35214371    -1.27551350  -378.97635405    -0.00000003     0.00000009  0.68D-12  0.17D-12  6  2   142.04
  14      1.35214362    -1.27551350  -378.97635405    -0.00000000     0.00000001  0.98D-13  0.43D-13  6  3   152.22
  15      1.35214359    -1.27551350  -378.97635405    -0.00000000     0.00000000  0.15D-13  0.52D-14  6  1   162.44
  16      1.35214358    -1.27551350  -378.97635406    -0.00000000     0.00000000  0.31D-14  0.11D-14  6  4   172.63
  17      1.35214358    -1.27551350  -378.97635406    -0.00000000    -0.00000000  0.83D-15  0.24D-15  6  5   182.82
  18      1.35214358    -1.27551350  -378.97635406    -0.00000000     0.00000000  0.21D-15  0.54D-16  6  6   193.00
  19      1.35214358    -1.27551350  -378.97635406     0.00000000    -0.00000000  0.68D-16  0.18D-16  6  2   203.20
  20      1.35214358    -1.27551350  -378.97635406     0.00000000    -0.00000000  0.16D-16  0.40D-17  6  3   213.39
  21      1.35214358    -1.27551350  -378.97635406    -0.00000000     0.00000000  0.29D-17  0.11D-17  6  1   223.58
  22      1.35214358    -1.27551350  -378.97635406     0.00000000    -0.00000000  0.65D-18  0.16D-18  6  4   233.79
  23      1.35214358    -1.27551350  -378.97635406    -0.00000000     0.00000000  0.10D-18  0.33D-19  6  5   243.95
  24      1.35214358    -1.27551350  -378.97635406    -0.00000000     0.00000000  0.22D-19  0.87D-20  6  6   254.12
  25      1.35214358    -1.27551350  -378.97635406    -0.00000000    -0.00000000  0.60D-20  0.16D-20  6  3   264.30
  26      1.35214358    -1.27551350  -378.97635406     0.00000000     0.00000000  0.14D-20  0.50D-21  6  2   274.52

 Norm of t1 vector:      0.14433721      S-energy:     0.00000000      T1 diagnostic:  0.01701030
                                                                       D1 diagnostic:  0.06089966

 Singles amplitudes (print threshold =  0.500E-01):

         I         SYM. A    A   T(IA)

         6         1         1      0.05560008
        15         2         1      0.05361944


 Total CPU time for triples:    330.21 sec


 RESULTS
 =======

  Reference energy                   -377.700840551944
  CCSD singlet pair energy             -0.840634019036
  CCSD triplet pair energy             -0.434879484527
  CCSD correlation energy              -1.275513503562

  Triples (T) contribution             -0.054448067772
  Total correlation energy             -1.329961571334

  CCSD total energy                  -378.976354055506
  CCSD[T] energy                     -379.034215477912
  CCSD-T energy                      -379.029429689922
 !CCSD(T) total energy               -379.030802123278

 Timing summary (sec):

 STEP                 CPU(USER)    SYS     CPU(TOT)    WALL
 Transformation         10.32      0.60     10.92     10.93
 CCSD iterations       264.21      8.19    272.40    273.02
 Triples               330.21      7.30    337.51    337.58

 Program statistics:

 Available memory in ccsd:               999998604
 Min. memory needed in ccsd:               8941308
 Max. memory used in ccsd:                12316668
 Max. memory used in cckext:              11504117 (26 integral passes)



 **********************************************************************************************************************************
 DATASETS  * FILE   NREC   LENGTH (MB)   RECORD NAMES
              1      20     1886.94       500      610      700      900      950      970     1000      129      960     1100   
                                          VAR    BASINP    GEOM    SYMINP    ZMAT    AOBASIS   BASIS     P2S    ABASIS      S 
                                         1400     1410     1200     1210     1080     1600     1650     1300     1700     1380   
                                           T        V       H0       H01     AOSYM     SMH    MOLCAS    ERIS     OPER     JKOP   

              2       3        1.01       700     1000     2100   
                                         GEOM     BASIS     RHF  

 PROGRAMS   *        TOTAL   CCSD(T)       RHF       INT
 CPU TIMES  *       649.38    604.76     30.51     14.07
 REAL TIME  *       674.30 SEC
 DISK USED  *         5.57 GB      
 GA USED    *         0.00 MB       (max)       0.00 MB       (current)
 **********************************************************************************************************************************

        CCSD(T)         RHF-SCF 
   -379.03080212   -377.70084055
 **********************************************************************************************************************************
 Variable memory released
