
 Primary working directories    : /tmp/878919.3.gen5.q
 Secondary working directories  : /tmp/878919.3.gen5.q
 Wavefunction directory         : /home/vulcan/lo21740/wfu/
 Main file repository           : /tmp/878919.3.gen5.q/

 ARCHNAME  : Linux/x86_64
 FC        : /opt/intel/compilers_and_libraries_2016.1.150/linux/bin/intel64/ifort
 FCVERSION : 16.0.1
 BLASLIB   : -mkl
 id        : ccgc

 Nodes     nprocs
 n072         1
 ga_uses_ma=false, calling ma_init with nominal heap.
 GA-space will be limited to   8.0 MW (determined by -G option)

 Using customized tuning parameters: mindgm=10; mindgv=16; mindgc=4; mindgr=1; noblas=0; mincuda=1000; minvec=7
 default implementation of scratch files=df  

 ***,Optimization of formamide
 memory,1000,m
 gthresh,energy=1.0d-12,orbital=1.0d-10,oneint=1.0d-16,twoint=1.0d-16,optgrad=1.0d-6,compress=1.0d-13
 geomtyp=xyz
 
 bohr
 geometry = {
  C   -3.8258022625    0.0863419464   -0.0000254637
  O   -2.7302160211    2.1389561021    0.0001379221
  N   -2.6813630521   -2.1794384067    0.0002363793
  H   -3.7390872216   -3.7560496871    0.0000048201
  H   -0.7506830172   -2.3050713258   -0.0003541592
  H   -5.9023155194   -0.0184386164    0.0000005013
  C    3.8258022625   -0.0863419464   -0.0000254637
  O    2.7302160211   -2.1389561021    0.0001379221
  N    2.6813630521    2.1794384067    0.0002363793
  H    3.7390872216    3.7560496871    0.0000048201
  H    0.7506830172    2.3050713258   -0.0003541592
  H    5.9023155194    0.0184386164    0.0000005013
 }
 
 basis=VDZ
 {rhf;maxit,200}
 {ccsd(t);maxit,200}

 Variables initialized (661), CPU time= 0.01 sec
 Commands  initialized (458), CPU time= 0.00 sec, 486 directives.
 Default parameters read. Elapsed time= 0.04 sec

 Checking input...
 Passed
1


                                         ***  PROGRAM SYSTEM MOLPRO  ***
                         Copyright, University College Cardiff Consultants Limited, 2008

                                    Version 2010.1 linked May 16 2016 07:17:05


 **********************************************************************************************************************************
 LABEL *   Optimization of formamide                                                     
 Linux-4.4.3/n072(x86_64) 64 bit mpp version                                             DATE: 22-May-23          TIME: 16:31:38  
 **********************************************************************************************************************************

 SHA1:             9e8077add272b0f3cad6f7df79ec5211205f459d
 **********************************************************************************************************************************

 THRESHOLDS:

 ZERO    =  1.00D-12  ONEINT  =  1.00D-16  TWOINT  =  1.00D-16  PREFAC  =  1.00D-14  LOCALI  =  1.00D-09  EORDER  =  1.00D-04
 ENERGY  =  1.00D-12  ETEST   =  0.00D+00  EDENS   =  0.00D+00  THRDEDEF=  1.00D-06  GRADIENT=  1.00D-02  STEP    =  1.00D-03
 ORBITAL =  1.00D-10  CIVEC   =  1.00D-05  COEFF   =  1.00D-04  PRINTCI =  5.00D-02  PUNCHCI =  9.90D+01  OPTGRAD =  1.00D-06
 OPTENERG=  1.00D-06  OPTSTEP =  3.00D-04  THRGRAD =  1.00D-10  COMPRESS=  1.00D-13  VARMIN  =  1.00D-07  VARMAX  =  1.00D-03
 THRDOUB =  0.00D+00  THRDIV  =  1.00D-05  THRRED  =  1.00D-07  THRPSP  =  1.00D+00  THRDC   =  1.00D-10  THRCS   =  1.00D-10
 THRNRM  =  1.00D-08  THREQ   =  0.00D+00  THRDE   =  1.00D+00  THRREF  =  1.00D-05  SPARFAC =  1.00D+00  THRDLP  =  1.00D-07
 THRDIA  =  1.00D-10  THRDLS  =  1.00D-07  THRGPS  =  0.00D+00  THRKEX  =  0.00D+00  THRDIS  =  2.00D-01  THRVAR  =  1.00D-10
 THRLOC  =  1.00D-06  THRGAP  =  1.00D-06  THRLOCT = -1.00D+00  THRGAPT = -1.00D+00  THRORB  =  1.00D-06  THRMLTP =  0.00D+00
 THRCPQCI=  1.00D-10  KEXTA   =  0.00D+00  THRCOARS=  0.00D+00  SYMTOL  =  1.00D-06  GRADTOL =  1.00D-06  THROVL  =  1.00D-08
 THRORTH =  1.00D-08  GRID    =  1.00D-06  GRIDMAX =  1.00D-03  DTMAX   =  0.00D+00

 SETTING GEOMTYP        =    XYZ
 ZUNIT=BOHR
 

 Variable memory set to 1000000000 words,  buffer space   230000 words

 SETTING BASIS          =    VDZ


 Recomputing integrals since basis changed


 Using spherical harmonics

 Library entry C      S cc-pVDZ              selected for orbital group  1
 Library entry C      P cc-pVDZ              selected for orbital group  1
 Library entry C      D cc-pVDZ              selected for orbital group  1
 Library entry O      S cc-pVDZ              selected for orbital group  2
 Library entry O      P cc-pVDZ              selected for orbital group  2
 Library entry O      D cc-pVDZ              selected for orbital group  2
 Library entry N      S cc-pVDZ              selected for orbital group  3
 Library entry N      P cc-pVDZ              selected for orbital group  3
 Library entry N      D cc-pVDZ              selected for orbital group  3
 Library entry H      S cc-pVDZ              selected for orbital group  4
 Library entry H      P cc-pVDZ              selected for orbital group  4

1PROGRAM * SEWARD (Integral evaluation for generally contracted gaussian basis sets)     Author: Roland Lindh, 1990

 Geometry written to block  1 of record 700


 Point group  C2  



 ATOMIC COORDINATES

 NR  ATOM    CHARGE       X              Y              Z

   1  C       6.00   -3.825802262    0.086341946   -0.000025464
   2  C       6.00    3.825802262   -0.086341946   -0.000025464
   3  O       8.00   -2.730216021    2.138956102    0.000137922
   4  O       8.00    2.730216021   -2.138956102    0.000137922
   5  N       7.00   -2.681363052   -2.179438407    0.000236379
   6  N       7.00    2.681363052    2.179438407    0.000236379
   7  H       1.00   -3.739087222   -3.756049687    0.000004820
   8  H       1.00    3.739087222    3.756049687    0.000004820
   9  H       1.00   -0.750683017   -2.305071326   -0.000354159
  10  H       1.00    0.750683017    2.305071326   -0.000354159
  11  H       1.00   -5.902315519   -0.018438616    0.000000501
  12  H       1.00    5.902315519    0.018438616    0.000000501

 Bond lengths in Bohr (Angstrom)

  1- 3  2.326700262   1- 5  2.538405362   1-11  2.079155183   2- 4  2.326700262   2- 6  2.538405362
       ( 1.231236751)       ( 1.343266265)       ( 1.100241537)       ( 1.231236751)       ( 1.343266265)

  2-12  2.079155183   5- 7  1.898547761   5- 9  1.934763390   6- 8  1.898547761   6-10  1.934763390
       ( 1.100241537)       ( 1.004668205)       ( 1.023832691)       ( 1.004668205)       ( 1.023832691)

 Bond angles

  1- 5- 7  119.34473752   1- 5- 9  120.52130030   2- 6- 8  119.34473752   2- 6-10  120.52130030

  3- 1- 5  125.11064350   3- 1-11  120.97983145   4- 2- 6  125.11064350   4- 2-12  120.97983145

  5- 1-11  113.90952386   6- 2-12  113.90952386   7- 5- 9  120.13395283   8- 6-10  120.13395283

 NUCLEAR CHARGE:                   48
 NUMBER OF PRIMITIVE AOS:         204
 NUMBER OF SYMMETRY AOS:          198
 NUMBER OF CONTRACTIONS:          114   (  57A   +  57B   )
 NUMBER OF CORE ORBITALS:           6   (   3A   +   3B   )
 NUMBER OF VALENCE ORBITALS:       30   (  15A   +  15B   )


 NUCLEAR REPULSION ENERGY  230.50396462


 Eigenvalues of metric

         1 0.555E-02 0.108E-01 0.153E-01 0.238E-01 0.305E-01 0.405E-01 0.418E-01 0.487E-01
         2 0.571E-02 0.113E-01 0.154E-01 0.242E-01 0.280E-01 0.399E-01 0.411E-01 0.433E-01


 Contracted 2-electron integrals neglected if value below      1.0D-16
 AO integral compression algorithm  1   Integral accuracy      1.0D-16

     89.915 MB (compressed) written to integral file ( 85.0%)

     Node minimum: 89.915 MB, node maximum: 89.915 MB


 NUMBER OF SORTED TWO-ELECTRON INTEGRALS:   10931289.     BUFFER LENGTH:  32768
 NUMBER OF SEGMENTS:   1  SEGMENT LENGTH:   10931289      RECORD LENGTH: 524288

 Memory used in sort:      11.49 MW

 SORT1 READ    13250584. AND WROTE    10866700. INTEGRALS IN     32 RECORDS. CPU TIME:     0.15 SEC, REAL TIME:     0.21 SEC
 SORT2 READ    10866700. AND WROTE    10931289. INTEGRALS IN    343 RECORDS. CPU TIME:     0.16 SEC, REAL TIME:     0.23 SEC

 FILE SIZES:   FILE 1:    78.9 MBYTE,  FILE 4:   134.3 MBYTE,   TOTAL:    213.2 MBYTE

 OPERATOR DM      FOR CENTER  0  COORDINATES:    0.000000    0.000000    0.000000


 **********************************************************************************************************************************
 DATASETS  * FILE   NREC   LENGTH (MB)   RECORD NAMES
              1      19       79.03       500      610      700      900      950      970     1000      129      960     1100   
                                          VAR    BASINP    GEOM    SYMINP    ZMAT    AOBASIS   BASIS     P2S    ABASIS      S 
                                         1400     1410     1200     1210     1080     1600     1650     1300     1700   
                                           T        V       H0       H01     AOSYM     SMH    MOLCAS    ERIS     OPER   

 PROGRAMS   *        TOTAL       INT
 CPU TIMES  *         1.89      1.85
 REAL TIME  *         2.43 SEC
 DISK USED  *       303.97 MB      
 GA USED    *         0.00 MB       (max)       0.00 MB       (current)
 **********************************************************************************************************************************

1PROGRAM * RHF-SCF (CLOSED SHELL)       Authors: W. Meyer, H.-J. Werner


 NUMBER OF ELECTRONS:      24+   24-
 CONVERGENCE THRESHOLDS:    1.00E-10 (Density)    1.00E-13 (Energy)
 MAX. NUMBER OF ITERATIONS:      200
 INTERPOLATION TYPE:            DIIS
 INTERPOLATION STEPS:              2 (START)      1 (STEP)
 LEVEL SHIFTS:                  0.00 (CLOSED)  0.00 (OPEN) 



 Orbital guess generated from atomic densities. Full valence occupancy:   18  18

 Molecular orbital dump at record        2100.2

 Initial alpha occupancy:  12  12
 Initial beta  occupancy:  12  12
 Wave function symmetry:    1

 ITERATION    DDIFF          GRAD             ENERGY        2-EL.EN.            DIPOLE MOMENTS         DIIS
    1      0.000D+00      0.000D+00      -337.77925346    705.412900    0.00000    0.00000   -0.00093    0
    2      0.000D+00      0.134D-01      -337.85782749    700.214230    0.00000    0.00000   -0.00055    1
    3      0.267D-01      0.953D-02      -337.91348966    702.691886    0.00000    0.00000   -0.00067    2
    4      0.103D-01      0.126D-02      -337.91559095    702.677176    0.00000    0.00000   -0.00069    3
    5      0.226D-02      0.442D-03      -337.91585800    702.605737    0.00000    0.00000   -0.00068    4
    6      0.813D-03      0.147D-03      -337.91592574    702.624805    0.00000    0.00000   -0.00068    5
    7      0.377D-03      0.659D-04      -337.91593709    702.620313    0.00000    0.00000   -0.00068    6
    8      0.191D-03      0.173D-04      -337.91593779    702.620815    0.00000    0.00000   -0.00068    7
    9      0.490D-04      0.442D-05      -337.91593784    702.620417    0.00000    0.00000   -0.00068    7
   10      0.137D-04      0.979D-06      -337.91593784    702.620659    0.00000    0.00000   -0.00068    7
   11      0.270D-05      0.248D-06      -337.91593784    702.620569    0.00000    0.00000   -0.00068    7
   12      0.656D-06      0.867D-07      -337.91593784    702.620576    0.00000    0.00000   -0.00068    7
   13      0.189D-06      0.288D-07      -337.91593784    702.620581    0.00000    0.00000   -0.00068    7
   14      0.729D-07      0.658D-08      -337.91593784    702.620580    0.00000    0.00000   -0.00068    7
   15      0.157D-07      0.143D-08      -337.91593784    702.620580    0.00000    0.00000   -0.00068    7
   16      0.329D-08      0.348D-09      -337.91593784    702.620580    0.00000    0.00000   -0.00068    7
   17      0.690D-09      0.132D-09      -337.91593784    702.620580    0.00000    0.00000   -0.00068    7
   18      0.315D-09      0.288D-10      -337.91593784    702.620580    0.00000    0.00000   -0.00068    7
   19      0.751D-10      0.853D-11      -337.91593784    702.620580    0.00000    0.00000   -0.00068    7
   20      0.190D-10      0.148D-11      -337.91593784    702.620580    0.00000    0.00000   -0.00068    7
   21      0.310D-11      0.478D-12      -337.91593784    702.620580    0.00000    0.00000   -0.00068    7
   22      0.113D-11      0.130D-12      -337.91593784    702.620580    0.00000    0.00000   -0.00068    7
   23      0.325D-12      0.678D-13      -337.91593784    702.620580    0.00000    0.00000   -0.00068    7
   24      0.156D-12      0.262D-13      -337.91593784    702.620580    0.00000    0.00000   -0.00068    7
   25      0.779D-13      0.168D-13      -337.91593784    702.620580    0.00000    0.00000   -0.00068    8
   26      0.424D-13      0.148D-13      -337.91593784    702.620580    0.00000    0.00000   -0.00068    9
   27      0.264D-13      0.122D-13      -337.91593784    702.620580    0.00000    0.00000   -0.00068    9
   28      0.165D-13      0.155D-13      -337.91593784    702.620580    0.00000    0.00000   -0.00068    9
   29      0.138D-13      0.126D-13      -337.91593784    702.620580    0.00000    0.00000   -0.00068    0

 Final occupancy:  12  12

 !RHF STATE 1.1 Energy               -337.915937841848
 Nuclear energy                       230.50396462
 One-electron energy                 -919.73019263
 Two-electron energy                  351.31029016
 Virial quotient                       -1.00144668
 !RHF STATE 1.1 Dipole moment           0.00000000     0.00000000    -0.00068414
 Dipole moment /Debye                   0.00000000     0.00000000    -0.00173880

 Orbital energies:

         1.1          2.1          3.1          4.1          5.1          6.1          7.1          8.1          9.1         10.1
    -20.525293   -15.577306   -11.359223    -1.378022    -1.202123    -0.851821    -0.740319    -0.634097    -0.610060    -0.564979

        11.1         12.1         13.1         14.1
     -0.443445    -0.400977     0.186233     0.194437

         1.2          2.2          3.2          4.2          5.2          6.2          7.2          8.2          9.2         10.2
    -20.525293   -15.577304   -11.359223    -1.373267    -1.208297    -0.826739    -0.731406    -0.695497    -0.583561    -0.557509

        11.2         12.2         13.2         14.2
     -0.418503    -0.410542     0.188115     0.201330


 **********************************************************************************************************************************
 DATASETS  * FILE   NREC   LENGTH (MB)   RECORD NAMES
              1      19       79.03       500      610      700      900      950      970     1000      129      960     1100   
                                          VAR    BASINP    GEOM    SYMINP    ZMAT    AOBASIS   BASIS     P2S    ABASIS      S 
                                         1400     1410     1200     1210     1080     1600     1650     1300     1700   
                                           T        V       H0       H01     AOSYM     SMH    MOLCAS    ERIS     OPER   

              2       3        0.59       700     1000     2100   
                                         GEOM     BASIS     RHF  

 PROGRAMS   *        TOTAL       RHF       INT
 CPU TIMES  *         3.76      1.87      1.85
 REAL TIME  *         4.60 SEC
 DISK USED  *       303.97 MB      
 GA USED    *         0.00 MB       (max)       0.00 MB       (current)
 **********************************************************************************************************************************


1PROGRAM * CCSD (Closed-shell coupled cluster)     Authors: C. Hampel, H.-J. Werner, 1991, M. Deegan, P.J. Knowles, 1992


 Convergence thresholds:  THRVAR = 1.00D-08  THRDEN = 1.00D-12

 CCSD(T)     terms to be evaluated (factor= 1.000)


 Number of core orbitals:           6 (   3   3 )
 Number of closed-shell orbitals:  18 (   9   9 )
 Number of external orbitals:      90 (  45  45 )

 Molecular orbitals read from record     2100.2  Type=RHF/CANONICAL (state 1.1)

 Number of N-1 electron functions:              18
 Number of N-2 electron functions:             171
 Number of singly external CSFs:               810
 Number of doubly external CSFs:            656910
 Total number of CSFs:                      657721

 Length of J-op  integral file:               0.00 MB
 Length of K-op  integral file:               0.48 MB
 Length of 3-ext integral record:             0.00 MB

 Memory could be reduced to 9.36 Mwords without degradation in triples

 Integral transformation finished. Total CPU:   0.55 sec, npass=  1  Memory used:   6.56 MW

 Reference energy:                   -337.91593784

 MP2 singlet pair energy:              -0.58961268
 MP2 triplet pair energy:              -0.38312367
 MP2 correlation energy:               -0.97273635
 MP2 total energy:                   -338.88867419

 SCS-MP2 correlation energy:           -0.94592328   (PS=  1.200000  PT=  0.333333)
 SCS-MP2 total energy:               -338.86186112

 ITER.      SQ.NORM     CORR.ENERGY   TOTAL ENERGY   ENERGY CHANGE        DEN1      VAR(S)    VAR(P)  DIIS     TIME
   1      1.29766652    -1.00470501  -338.92064285    -0.03196866    -0.00230926  0.97D-02  0.55D-02  1  1     1.57
   2      1.32257214    -1.00734437  -338.92328221    -0.00263936    -0.02515240  0.22D-03  0.11D-02  2  2     2.64
   3      1.33523724    -1.00832030  -338.92425814    -0.00097593    -0.00560898  0.22D-03  0.47D-04  3  3     3.73
   4      1.34060980    -1.00809101  -338.92402885     0.00022929    -0.00169811  0.20D-04  0.81D-05  4  4     4.81
   5      1.34272613    -1.00802711  -338.92396495     0.00006390    -0.00043597  0.19D-05  0.10D-05  5  5     5.90
   6      1.34319510    -1.00799626  -338.92393411     0.00003085    -0.00004152  0.15D-06  0.13D-06  6  6     6.99
   7      1.34330053    -1.00798655  -338.92392439     0.00000971    -0.00000530  0.14D-07  0.15D-07  6  2     8.08
   8      1.34331844    -1.00798664  -338.92392448    -0.00000009     0.00000002  0.18D-08  0.17D-08  6  1     9.15
   9      1.34331991    -1.00798633  -338.92392417     0.00000031     0.00000150  0.28D-09  0.21D-09  6  4    10.24
  10      1.34332289    -1.00798629  -338.92392413     0.00000004    -0.00000041  0.73D-10  0.19D-10  6  3    11.33
  11      1.34332278    -1.00798636  -338.92392420    -0.00000007     0.00000017  0.14D-10  0.46D-11  6  5    12.42
  12      1.34332258    -1.00798637  -338.92392422    -0.00000002     0.00000008  0.30D-11  0.12D-11  6  6    13.50
  13      1.34332234    -1.00798641  -338.92392425    -0.00000003     0.00000010  0.41D-12  0.17D-12  6  2    14.58
  14      1.34332225    -1.00798641  -338.92392425    -0.00000001     0.00000003  0.72D-13  0.29D-13  6  1    15.67
  15      1.34332223    -1.00798641  -338.92392426    -0.00000000     0.00000000  0.12D-13  0.67D-14  6  4    16.75
  16      1.34332222    -1.00798641  -338.92392426    -0.00000000    -0.00000000  0.30D-14  0.12D-14  6  3    17.83
  17      1.34332222    -1.00798641  -338.92392426    -0.00000000    -0.00000000  0.80D-15  0.17D-15  6  5    18.92
  18      1.34332221    -1.00798641  -338.92392426    -0.00000000     0.00000000  0.62D-16  0.53D-16  6  6    20.02
  19      1.34332221    -1.00798641  -338.92392426    -0.00000000     0.00000000  0.17D-16  0.67D-17  6  2    21.10
  20      1.34332221    -1.00798641  -338.92392426    -0.00000000     0.00000000  0.23D-17  0.11D-17  6  1    22.19
  21      1.34332221    -1.00798641  -338.92392426    -0.00000000     0.00000000  0.27D-18  0.23D-18  6  4    23.28
  22      1.34332221    -1.00798641  -338.92392426     0.00000000     0.00000000  0.83D-19  0.34D-19  6  3    24.37
  23      1.34332221    -1.00798641  -338.92392426    -0.00000000     0.00000000  0.14D-19  0.50D-20  6  5    25.46
  24      1.34332221    -1.00798641  -338.92392426     0.00000000    -0.00000000  0.29D-20  0.13D-20  6  6    26.55
  25      1.34332221    -1.00798641  -338.92392426     0.00000000    -0.00000000  0.82D-21  0.26D-21  6  4    27.63

 Norm of t1 vector:      0.14912745      S-energy:    -0.00000000      T1 diagnostic:  0.01757484
                                                                       D1 diagnostic:  0.06230668

 Singles amplitudes (print threshold =  0.500E-01):

         I         SYM. A    A   T(IA)

         7         1         2      0.05778435
        16         2         2      0.05872610


 Total CPU time for triples:     18.04 sec


 RESULTS
 =======

  Reference energy                   -337.915937841848
  CCSD singlet pair energy             -0.667885973195
  CCSD triplet pair energy             -0.340100441743
  CCSD correlation energy              -1.007986414938

  Triples (T) contribution             -0.032247420482
  Total correlation energy             -1.040233835420

  CCSD total energy                  -338.923924256786
  CCSD[T] energy                     -338.959170856100
  CCSD-T energy                      -338.955192569646
 !CCSD(T) total energy               -338.956171677268

 Timing summary (sec):

 STEP                 CPU(USER)    SYS     CPU(TOT)    WALL
 Transformation          0.56      0.08      0.64      0.64
 CCSD iterations        27.08      1.05     28.13     28.17
 Triples                18.04      0.40     18.44     18.46

 Program statistics:

 Available memory in ccsd:               999998604
 Min. memory needed in ccsd:               1741948
 Max. memory used in ccsd:                 2318344
 Max. memory used in cckext:               2485613 (25 integral passes)



 **********************************************************************************************************************************
 DATASETS  * FILE   NREC   LENGTH (MB)   RECORD NAMES
              1      20      119.05       500      610      700      900      950      970     1000      129      960     1100   
                                          VAR    BASINP    GEOM    SYMINP    ZMAT    AOBASIS   BASIS     P2S    ABASIS      S 
                                         1400     1410     1200     1210     1080     1600     1650     1300     1700     1380   
                                           T        V       H0       H01     AOSYM     SMH    MOLCAS    ERIS     OPER     JKOP   

              2       3        0.59       700     1000     2100   
                                         GEOM     BASIS     RHF  

 PROGRAMS   *        TOTAL   CCSD(T)       RHF       INT
 CPU TIMES  *        49.46     45.70      1.87      1.85
 REAL TIME  *        51.90 SEC
 DISK USED  *       322.80 MB      
 GA USED    *         0.00 MB       (max)       0.00 MB       (current)
 **********************************************************************************************************************************

        CCSD(T)         RHF-SCF 
   -338.95617168   -337.91593784
 **********************************************************************************************************************************
 Variable memory released
