
 Primary working directories    : /tmp/985636.524.gen6.q
 Secondary working directories  : /tmp/985636.524.gen6.q
 Wavefunction directory         : /home/vulcan/jj04645/wfu/
 Main file repository           : /tmp/985636.524.gen6.q/

 ARCHNAME  : Linux/x86_64
 FC        : /opt/intel/compilers_and_libraries_2016.1.150/linux/bin/intel64/ifort
 FCVERSION : 16.0.1
 BLASLIB   : -mkl
 id        : ccgc

 Nodes     nprocs
 n078         1
 ga_uses_ma=false, calling ma_init with nominal heap.
 GA-space will be limited to   8.0 MW (determined by -G option)

 Using customized tuning parameters: mindgm=10; mindgv=16; mindgc=4; mindgr=1; noblas=0; mincuda=1000; minvec=7
 default implementation of scratch files=df  

 ***,Optimization of tetrahydrothiopyran
 memory,1000,m
 gthresh,energy=1.0d-12,orbital=1.0d-10,oneint=1.0d-16,twoint=1.0d-16,optgrad=1.0d-6,compress=1.0d-13
 geomtyp=xyz
 
 bohr
 geometry = {
  S    0.3535918127    2.6990864129   -0.0007509700
  C   -0.3298781768   -3.3659080419    0.0003680866
  C   -0.6622872318    0.6680476850   -2.5815224148
  C   -0.6617639999    0.6689413710    2.5809293888
  C    0.4720488794   -1.9827230564   -2.4138553799
  C    0.4725381930   -1.9818872850    2.4139498987
  H   -2.7331664263    0.5624464269   -2.5886482730
  H   -2.7333673012    0.5783737761    2.5814904864
  H   -0.0724844889    1.6324897967   -4.3124959464
  H   -0.0700992382    1.6192264286    4.3190825319
  H    2.5341017715   -1.8378960862   -2.4809877244
  H    2.5346046454   -1.8370371143    2.4806140353
  H   -0.1281904947   -3.0758269934   -4.0652852842
  H   -0.1273662510   -3.0744194634    4.0658797850
  H    0.4653484324   -5.2727787496    0.0006175982
  H   -2.3923651422   -3.5799565237    0.0006141817
 }
 
 basis=VDZ
 {rhf;maxit,200}
 {ccsd(t);maxit,200}

 Variables initialized (661), CPU time= 0.00 sec
 Commands  initialized (458), CPU time= 0.01 sec, 486 directives.
 Default parameters read. Elapsed time= 0.05 sec

 Checking input...
 Passed
1


                                         ***  PROGRAM SYSTEM MOLPRO  ***
                         Copyright, University College Cardiff Consultants Limited, 2008

                                    Version 2010.1 linked May 16 2016 07:17:05


 **********************************************************************************************************************************
 LABEL *   Optimization of tetrahydrothiopyran                                           
 Linux-4.4.3/n078(x86_64) 64 bit mpp version                                             DATE: 26-Jan-24          TIME: 13:24:15  
 **********************************************************************************************************************************

 SHA1:             9e8077add272b0f3cad6f7df79ec5211205f459d
 **********************************************************************************************************************************

 THRESHOLDS:

 ZERO    =  1.00D-12  ONEINT  =  1.00D-16  TWOINT  =  1.00D-16  PREFAC  =  1.00D-14  LOCALI  =  1.00D-09  EORDER  =  1.00D-04
 ENERGY  =  1.00D-12  ETEST   =  0.00D+00  EDENS   =  0.00D+00  THRDEDEF=  1.00D-06  GRADIENT=  1.00D-02  STEP    =  1.00D-03
 ORBITAL =  1.00D-10  CIVEC   =  1.00D-05  COEFF   =  1.00D-04  PRINTCI =  5.00D-02  PUNCHCI =  9.90D+01  OPTGRAD =  1.00D-06
 OPTENERG=  1.00D-06  OPTSTEP =  3.00D-04  THRGRAD =  1.00D-10  COMPRESS=  1.00D-13  VARMIN  =  1.00D-07  VARMAX  =  1.00D-03
 THRDOUB =  0.00D+00  THRDIV  =  1.00D-05  THRRED  =  1.00D-07  THRPSP  =  1.00D+00  THRDC   =  1.00D-10  THRCS   =  1.00D-10
 THRNRM  =  1.00D-08  THREQ   =  0.00D+00  THRDE   =  1.00D+00  THRREF  =  1.00D-05  SPARFAC =  1.00D+00  THRDLP  =  1.00D-07
 THRDIA  =  1.00D-10  THRDLS  =  1.00D-07  THRGPS  =  0.00D+00  THRKEX  =  0.00D+00  THRDIS  =  2.00D-01  THRVAR  =  1.00D-10
 THRLOC  =  1.00D-06  THRGAP  =  1.00D-06  THRLOCT = -1.00D+00  THRGAPT = -1.00D+00  THRORB  =  1.00D-06  THRMLTP =  0.00D+00
 THRCPQCI=  1.00D-10  KEXTA   =  0.00D+00  THRCOARS=  0.00D+00  SYMTOL  =  1.00D-06  GRADTOL =  1.00D-06  THROVL  =  1.00D-08
 THRORTH =  1.00D-08  GRID    =  1.00D-06  GRIDMAX =  1.00D-03  DTMAX   =  0.00D+00

 SETTING GEOMTYP        =    XYZ
 ZUNIT=BOHR
 

 Variable memory set to 1000000000 words,  buffer space   230000 words

 SETTING BASIS          =    VDZ


 Recomputing integrals since basis changed


 Using spherical harmonics

 Library entry S      S cc-pVDZ              selected for orbital group  1
 Library entry S      P cc-pVDZ              selected for orbital group  1
 Library entry S      D cc-pVDZ              selected for orbital group  1
 Library entry C      S cc-pVDZ              selected for orbital group  2
 Library entry C      P cc-pVDZ              selected for orbital group  2
 Library entry C      D cc-pVDZ              selected for orbital group  2
 Library entry H      S cc-pVDZ              selected for orbital group  3
 Library entry H      P cc-pVDZ              selected for orbital group  3

1PROGRAM * SEWARD (Integral evaluation for generally contracted gaussian basis sets)     Author: Roland Lindh, 1990

 Geometry written to block  1 of record 700


 Point group  C1  



 ATOMIC COORDINATES

 NR  ATOM    CHARGE       X              Y              Z

   1  S      16.00    0.353591813    2.699086413   -0.000750970
   2  C       6.00   -0.329878177   -3.365908042    0.000368087
   3  C       6.00   -0.662287232    0.668047685   -2.581522415
   4  C       6.00   -0.661764000    0.668941371    2.580929389
   5  C       6.00    0.472048879   -1.982723056   -2.413855380
   6  C       6.00    0.472538193   -1.981887285    2.413949899
   7  H       1.00   -2.733166426    0.562446427   -2.588648273
   8  H       1.00   -2.733367301    0.578373776    2.581490486
   9  H       1.00   -0.072484489    1.632489797   -4.312495946
  10  H       1.00   -0.070099238    1.619226429    4.319082532
  11  H       1.00    2.534101772   -1.837896086   -2.480987724
  12  H       1.00    2.534604645   -1.837037114    2.480614035
  13  H       1.00   -0.128190495   -3.075826993   -4.065285284
  14  H       1.00   -0.127366251   -3.074419463    4.065879785
  15  H       1.00    0.465348432   -5.272778750    0.000617598
  16  H       1.00   -2.392365142   -3.579956524    0.000614182

 Bond lengths in Bohr (Angstrom)

  1- 3  3.437660512   1- 4  3.437660512   2- 5  2.895645464   2- 6  2.895645463   2-15  2.066044849
       ( 1.819131595)       ( 1.819131595)       ( 1.532309585)       ( 1.532309585)       ( 1.093303847)

  2-16  2.073564394   3- 5  2.888150995   3- 7  2.073582176   3- 9  2.067434456   4- 6  2.888150996
       ( 1.097283019)       ( 1.528343683)       ( 1.097292429)       ( 1.094039195)       ( 1.528343683)

  4- 8  2.073582176   4-10  2.067434456   5-11  2.068222361   5-13  2.069392242   6-12  2.068222361
       ( 1.097292429)       ( 1.094039195)       ( 1.094456136)       ( 1.095075211)       ( 1.094456136)

  6-14  2.069392242
       ( 1.095075211)

 Bond angles

  1-3-5  112.49558794   1-3-7  109.13517803   1-3-9  105.58333854   1-4-6  112.49558296

  1- 4- 8  108.72810655   1- 4-10  105.98655177   2- 5- 3  112.21281287   2- 5-11  109.67156810

  2- 5-13  109.43267588   2- 6- 4  112.21281830   2- 6-12  109.67156699   2- 6-14  109.43267476

  3- 1- 4   97.33107799   3- 5-11  108.99161367   3- 5-13  108.93893025   4- 6-12  108.99161254

  4- 6-14  108.93892912   5- 2- 6  112.94731824   5- 2-15  109.53488172   5- 2-16  108.95777537

  5- 3- 7  110.22461958   5- 3- 9  111.38974946   6- 2-15  109.53488172   6- 2-16  108.95777537

  6- 4- 8  110.62783268   6- 4-10  110.98267792   7- 3- 9  107.80572073   8- 4-10  107.80379164

 11- 5-13  107.47420416  12- 6-14  107.47420295  15- 2-16  106.71266590

 NUCLEAR CHARGE:                   56
 NUMBER OF PRIMITIVE AOS:         247
 NUMBER OF SYMMETRY AOS:          241
 NUMBER OF CONTRACTIONS:          138   ( 138A   )
 NUMBER OF CORE ORBITALS:          10   (  10A   )
 NUMBER OF VALENCE ORBITALS:       34   (  34A   )


 NUCLEAR REPULSION ENERGY  312.07336932


 Eigenvalues of metric

         1 0.286E-02 0.305E-02 0.426E-02 0.634E-02 0.704E-02 0.152E-01 0.157E-01 0.196E-01


 Contracted 2-electron integrals neglected if value below      1.0D-16
 AO integral compression algorithm  1   Integral accuracy      1.0D-16

     373.817 MB (compressed) written to integral file ( 94.1%)

     Node minimum: 373.817 MB, node maximum: 373.817 MB


 NUMBER OF SORTED TWO-ELECTRON INTEGRALS:   45998436.     BUFFER LENGTH:  32768
 NUMBER OF SEGMENTS:   3  SEGMENT LENGTH:   15998004      RECORD LENGTH: 524288

 Memory used in sort:      16.56 MW

 SORT1 READ    49669755. AND WROTE    45793821. INTEGRALS IN    132 RECORDS. CPU TIME:     0.45 SEC, REAL TIME:     0.70 SEC
 SORT2 READ    45793821. AND WROTE    45998436. INTEGRALS IN   1426 RECORDS. CPU TIME:     0.32 SEC, REAL TIME:     0.49 SEC

 FILE SIZES:   FILE 1:   349.4 MBYTE,  FILE 4:   553.7 MBYTE,   TOTAL:    903.0 MBYTE

 OPERATOR DM      FOR CENTER  0  COORDINATES:    0.000000    0.000000    0.000000


 **********************************************************************************************************************************
 DATASETS  * FILE   NREC   LENGTH (MB)   RECORD NAMES
              1      19      349.59       500      610      700      900      950      970     1000      129      960     1100   
                                          VAR    BASINP    GEOM    SYMINP    ZMAT    AOBASIS   BASIS     P2S    ABASIS      S 
                                         1400     1410     1200     1210     1080     1600     1650     1300     1700   
                                           T        V       H0       H01     AOSYM     SMH    MOLCAS    ERIS     OPER   

 PROGRAMS   *        TOTAL       INT
 CPU TIMES  *         4.27      4.22
 REAL TIME  *         5.06 SEC
 DISK USED  *         1.28 GB      
 GA USED    *         0.01 MB       (max)       0.00 MB       (current)
 **********************************************************************************************************************************

1PROGRAM * RHF-SCF (CLOSED SHELL)       Authors: W. Meyer, H.-J. Werner


 NUMBER OF ELECTRONS:      28+   28-    SPACE SYMMETRY=1    SPIN SYMMETRY: Singlet 
 CONVERGENCE THRESHOLDS:    1.00E-10 (Density)    1.00E-13 (Energy)
 MAX. NUMBER OF ITERATIONS:      200
 INTERPOLATION TYPE:            DIIS
 INTERPOLATION STEPS:              2 (START)      1 (STEP)
 LEVEL SHIFTS:                  0.00 (CLOSED)  0.00 (OPEN) 



 Orbital guess generated from atomic densities. Full valence occupancy:   44

 Molecular orbital dump at record        2100.2

 ITERATION    DDIFF          GRAD             ENERGY        2-EL.EN.            DIPOLE MOMENTS         DIIS
    1      0.000D+00      0.000D+00      -592.64379638   1056.720532   -0.40931   -0.80438    0.00123    0
    2      0.000D+00      0.396D-02      -592.70486055   1054.135381   -0.20612   -0.73936    0.00108    1
    3      0.778D-02      0.132D-02      -592.71080979   1055.566589   -0.27938   -0.67740    0.00093    2
    4      0.269D-02      0.540D-03      -592.71182099   1054.950888   -0.25160   -0.71039    0.00100    3
    5      0.932D-03      0.773D-04      -592.71184673   1055.013739   -0.24770   -0.70191    0.00099    4
    6      0.181D-03      0.268D-04      -592.71184927   1054.982604   -0.24941   -0.70223    0.00099    5
    7      0.504D-04      0.624D-05      -592.71184948   1054.985841   -0.24874   -0.70211    0.00099    6
    8      0.166D-04      0.176D-05      -592.71184950   1054.984960   -0.24872   -0.70198    0.00100    7
    9      0.545D-05      0.458D-06      -592.71184950   1054.984847   -0.24871   -0.70193    0.00100    7
   10      0.129D-05      0.163D-06      -592.71184950   1054.984884   -0.24870   -0.70193    0.00100    7
   11      0.483D-06      0.345D-07      -592.71184950   1054.984870   -0.24870   -0.70193    0.00100    7
   12      0.114D-06      0.694D-08      -592.71184950   1054.984875   -0.24870   -0.70193    0.00100    7
   13      0.184D-07      0.290D-08      -592.71184950   1054.984872   -0.24870   -0.70193    0.00100    7
   14      0.637D-08      0.862D-09      -592.71184950   1054.984873   -0.24870   -0.70193    0.00100    7
   15      0.231D-08      0.284D-09      -592.71184950   1054.984873   -0.24870   -0.70193    0.00100    7
   16      0.688D-09      0.940D-10      -592.71184950   1054.984873   -0.24870   -0.70193    0.00100    8
   17      0.231D-09      0.264D-10      -592.71184950   1054.984873   -0.24870   -0.70193    0.00100    7
   18      0.742D-10      0.108D-10      -592.71184950   1054.984873   -0.24870   -0.70193    0.00100    8
   19      0.373D-10      0.345D-11      -592.71184950   1054.984873   -0.24870   -0.70193    0.00100    0

 Final occupancy:  28

 !RHF STATE 1.1 Energy               -592.711849503191
 Nuclear energy                       312.07336932
 One-electron energy                -1432.27765538
 Two-electron energy                  527.49243656
 Virial quotient                       -1.00022125
 !RHF STATE 1.1 Dipole moment          -0.24869695    -0.70193185     0.00099553
 Dipole moment /Debye                  -0.63208320    -1.78401596     0.00253022

 Orbital energies:

         1.1          2.1          3.1          4.1          5.1          6.1          7.1          8.1          9.1         10.1
    -91.929878   -11.255594   -11.255538   -11.231113   -11.231018   -11.229165    -8.933759    -6.615653    -6.614221    -6.612019

        11.1         12.1         13.1         14.1         15.1         16.1         17.1         18.1         19.1         20.1
     -1.119477    -1.019702    -1.006427    -0.841994    -0.835756    -0.755284    -0.646432    -0.614052    -0.609639    -0.578095

        21.1         22.1         23.1         24.1         25.1         26.1         27.1         28.1         29.1         30.1
     -0.546830    -0.523666    -0.497582    -0.495531    -0.473003    -0.434551    -0.411696    -0.328715     0.176807     0.190221


 **********************************************************************************************************************************
 DATASETS  * FILE   NREC   LENGTH (MB)   RECORD NAMES
              1      19      349.59       500      610      700      900      950      970     1000      129      960     1100   
                                          VAR    BASINP    GEOM    SYMINP    ZMAT    AOBASIS   BASIS     P2S    ABASIS      S 
                                         1400     1410     1200     1210     1080     1600     1650     1300     1700   
                                           T        V       H0       H01     AOSYM     SMH    MOLCAS    ERIS     OPER   

              2       3        0.92       700     1000     2100   
                                         GEOM     BASIS     RHF  

 PROGRAMS   *        TOTAL       RHF       INT
 CPU TIMES  *         9.50      5.24      4.22
 REAL TIME  *        11.00 SEC
 DISK USED  *         1.28 GB      
 GA USED    *         0.01 MB       (max)       0.00 MB       (current)
 **********************************************************************************************************************************


1PROGRAM * CCSD (Closed-shell coupled cluster)     Authors: C. Hampel, H.-J. Werner, 1991, M. Deegan, P.J. Knowles, 1992


 Convergence thresholds:  THRVAR = 1.00D-08  THRDEN = 1.00D-12

 CCSD(T)     terms to be evaluated (factor= 1.000)


 Number of core orbitals:          10 (  10 )
 Number of closed-shell orbitals:  18 (  18 )
 Number of external orbitals:     110 ( 110 )

 Molecular orbitals read from record     2100.2  Type=RHF/CANONICAL (state 1.1)

 Number of N-1 electron functions:              18
 Number of N-2 electron functions:             171
 Number of singly external CSFs:              1980
 Number of doubly external CSFs:           1961190
 Total number of CSFs:                     1963171

 Length of J-op  integral file:               0.00 MB
 Length of K-op  integral file:               1.35 MB
 Length of 3-ext integral record:             0.00 MB

 Memory could be reduced to 32.58 Mwords without degradation in triples

 Integral transformation finished. Total CPU:   2.01 sec, npass=  1  Memory used:  30.89 MW

 Reference energy:                   -592.71184950

 MP2 singlet pair energy:              -0.53960261
 MP2 triplet pair energy:              -0.30439944
 MP2 correlation energy:               -0.84400204
 MP2 total energy:                   -593.55585155

 SCS-MP2 correlation energy:           -0.83692722   (PS=  1.200000  PT=  0.333333)
 SCS-MP2 total energy:               -593.54877673

 ITER.      SQ.NORM     CORR.ENERGY   TOTAL ENERGY   ENERGY CHANGE        DEN1      VAR(S)    VAR(P)  DIIS     TIME
   1      1.33991808    -0.91098506  -593.62283457    -0.06698302    -0.04299991  0.26D-02  0.55D-02  1  1     8.97
   2      1.36695646    -0.91634042  -593.62818992    -0.00535535    -0.02580103  0.69D-04  0.46D-03  2  2    16.01
   3      1.37230587    -0.91646954  -593.62831904    -0.00012913    -0.00304579  0.16D-04  0.28D-04  3  3    23.03
   4      1.37380315    -0.91652780  -593.62837730    -0.00005826    -0.00059555  0.76D-06  0.20D-05  4  4    30.07
   5      1.37404442    -0.91653444  -593.62838395    -0.00000665    -0.00007105  0.17D-06  0.17D-06  5  5    37.10
   6      1.37409018    -0.91652999  -593.62837950     0.00000445    -0.00001397  0.30D-07  0.14D-07  6  6    44.16
   7      1.37409776    -0.91652988  -593.62837938     0.00000011     0.00000064  0.53D-08  0.23D-08  6  2    51.21
   8      1.37410385    -0.91652957  -593.62837907     0.00000031    -0.00000125  0.74D-09  0.27D-09  6  1    58.26
   9      1.37410468    -0.91652950  -593.62837901     0.00000006     0.00000051  0.66D-10  0.44D-10  6  4    65.30
  10      1.37410557    -0.91652947  -593.62837897     0.00000003    -0.00000011  0.48D-11  0.35D-11  6  3    72.35
  11      1.37410558    -0.91652947  -593.62837897    -0.00000000     0.00000004  0.12D-11  0.54D-12  6  5    79.38
  12      1.37410554    -0.91652947  -593.62837898    -0.00000000     0.00000002  0.17D-12  0.78D-13  6  6    86.43
  13      1.37410549    -0.91652947  -593.62837898    -0.00000000     0.00000002  0.24D-13  0.11D-13  6  1    93.48
  14      1.37410548    -0.91652947  -593.62837898    -0.00000000     0.00000000  0.31D-14  0.12D-14  6  2   100.52
  15      1.37410548    -0.91652947  -593.62837898     0.00000000    -0.00000000  0.68D-15  0.31D-15  6  4   107.55
  16      1.37410549    -0.91652947  -593.62837898     0.00000000    -0.00000000  0.32D-16  0.23D-16  6  5   114.60
  17      1.37410549    -0.91652947  -593.62837898     0.00000000    -0.00000000  0.57D-17  0.24D-17  6  3   121.61
  18      1.37410549    -0.91652947  -593.62837898     0.00000000    -0.00000000  0.18D-17  0.50D-18  6  6   128.65
  19      1.37410549    -0.91652947  -593.62837898     0.00000000    -0.00000000  0.38D-18  0.12D-18  6  1   135.68
  20      1.37410549    -0.91652947  -593.62837898     0.00000000     0.00000000  0.47D-19  0.18D-19  6  2   142.72
  21      1.37410549    -0.91652947  -593.62837898    -0.00000000     0.00000000  0.84D-20  0.35D-20  6  4   149.75

 Norm of t1 vector:      0.07017367      S-energy:    -0.00000000      T1 diagnostic:  0.00827005
                                                                       D1 diagnostic:  0.02107615


 Total CPU time for triples:    100.45 sec


 RESULTS
 =======

  Reference energy                   -592.711849503192
  CCSD singlet pair energy             -0.634416693087
  CCSD triplet pair energy             -0.282112781284
  CCSD correlation energy              -0.916529474371

  Triples (T) contribution             -0.029892088594
  Total correlation energy             -0.946421562965

  CCSD total energy                  -593.628378977564
  CCSD[T] energy                     -593.658891794132
  CCSD-T energy                      -593.657959142754
 !CCSD(T) total energy               -593.658271066158

 Timing summary (sec):

 STEP                 CPU(USER)    SYS     CPU(TOT)    WALL
 Transformation          2.10      0.20      2.30      2.31
 CCSD iterations       147.66      2.67    150.33    150.39
 Triples               100.45      1.93    102.38    102.39

 Program statistics:

 Available memory in ccsd:               999998604
 Min. memory needed in ccsd:               5123362
 Max. memory used in ccsd:                 6867976
 Max. memory used in cckext:               6836871 (21 integral passes)



 **********************************************************************************************************************************
 DATASETS  * FILE   NREC   LENGTH (MB)   RECORD NAMES
              1      20      485.97       500      610      700      900      950      970     1000      129      960     1100   
                                          VAR    BASINP    GEOM    SYMINP    ZMAT    AOBASIS   BASIS     P2S    ABASIS      S 
                                         1400     1410     1200     1210     1080     1600     1650     1300     1700     1380   
                                           T        V       H0       H01     AOSYM     SMH    MOLCAS    ERIS     OPER     JKOP   

              2       3        0.92       700     1000     2100   
                                         GEOM     BASIS     RHF  

 PROGRAMS   *        TOTAL   CCSD(T)       RHF       INT
 CPU TIMES  *       259.72    250.20      5.24      4.22
 REAL TIME  *       266.14 SEC
 DISK USED  *         1.28 GB      
 GA USED    *         0.01 MB       (max)       0.00 MB       (current)
 **********************************************************************************************************************************

        CCSD(T)         RHF-SCF 
   -593.65827107   -592.71184950
 **********************************************************************************************************************************
 Variable memory released
