
 Primary working directories    : /tmp/944438.110.gen6.q
 Secondary working directories  : /tmp/944438.110.gen6.q
 Wavefunction directory         : /home/vulcan/mel64643/wfu/
 Main file repository           : /tmp/944438.110.gen6.q/

 ARCHNAME  : Linux/x86_64
 FC        : /opt/intel/compilers_and_libraries_2016.1.150/linux/bin/intel64/ifort
 FCVERSION : 16.0.1
 BLASLIB   : -mkl
 id        : ccgc

 Nodes     nprocs
 n075         1
 ga_uses_ma=false, calling ma_init with nominal heap.
 GA-space will be limited to   8.0 MW (determined by -G option)

 Using customized tuning parameters: mindgm=10; mindgv=16; mindgc=4; mindgr=1; noblas=0; mincuda=1000; minvec=7
 default implementation of scratch files=df  

 ***,Optimization of min3
 memory,1000,m
 gthresh,energy=1.0d-12,orbital=1.0d-10,oneint=1.0d-16,twoint=1.0d-16,optgrad=1.0d-6,compress=1.0d-13
 geomtyp=xyz
 
 
 
  bohr
  geometry = {
  C   -0.2898590651    2.4060529833   -2.1334918121
  C    0.7669493074    0.0002593772   -0.8931462998
  C    0.1928984064   -0.0007353010    1.8403965275
  N   -0.2955590345   -0.0015321961    3.9836945311
  H    2.8263446169    0.0012180411   -1.0641606520
  C   -0.2877273371   -2.4057974170   -2.1347950748
  H   -2.3435802191   -2.4536841110   -1.9696452874
  H    0.4762655955   -4.1019585464   -1.2486745204
  H    0.2085518134   -2.4232063586   -4.1367505483
  H   -2.3444168214    2.4597027305   -1.9545706267
  H    0.1929115704    2.4173299409   -4.1387915723
  H    0.4845051971    4.1023508572   -1.2566845773
 }
 
 basis=cc-pvdz
 {rhf;maxit,200}
 {ccsd(t);maxit,200}

 Variables initialized (661), CPU time= 0.01 sec
 Commands  initialized (458), CPU time= 0.00 sec, 486 directives.
 Default parameters read. Elapsed time= 0.05 sec

 Checking input...
 Passed
1


                                         ***  PROGRAM SYSTEM MOLPRO  ***
                         Copyright, University College Cardiff Consultants Limited, 2008

                                    Version 2010.1 linked May 16 2016 07:17:05


 **********************************************************************************************************************************
 LABEL *   Optimization of min3                                                          
 Linux-4.4.3/n075(x86_64) 64 bit mpp version                                             DATE: 27-Oct-23          TIME: 10:26:49  
 **********************************************************************************************************************************

 SHA1:             9e8077add272b0f3cad6f7df79ec5211205f459d
 **********************************************************************************************************************************

 THRESHOLDS:

 ZERO    =  1.00D-12  ONEINT  =  1.00D-16  TWOINT  =  1.00D-16  PREFAC  =  1.00D-14  LOCALI  =  1.00D-09  EORDER  =  1.00D-04
 ENERGY  =  1.00D-12  ETEST   =  0.00D+00  EDENS   =  0.00D+00  THRDEDEF=  1.00D-06  GRADIENT=  1.00D-02  STEP    =  1.00D-03
 ORBITAL =  1.00D-10  CIVEC   =  1.00D-05  COEFF   =  1.00D-04  PRINTCI =  5.00D-02  PUNCHCI =  9.90D+01  OPTGRAD =  1.00D-06
 OPTENERG=  1.00D-06  OPTSTEP =  3.00D-04  THRGRAD =  1.00D-10  COMPRESS=  1.00D-13  VARMIN  =  1.00D-07  VARMAX  =  1.00D-03
 THRDOUB =  0.00D+00  THRDIV  =  1.00D-05  THRRED  =  1.00D-07  THRPSP  =  1.00D+00  THRDC   =  1.00D-10  THRCS   =  1.00D-10
 THRNRM  =  1.00D-08  THREQ   =  0.00D+00  THRDE   =  1.00D+00  THRREF  =  1.00D-05  SPARFAC =  1.00D+00  THRDLP  =  1.00D-07
 THRDIA  =  1.00D-10  THRDLS  =  1.00D-07  THRGPS  =  0.00D+00  THRKEX  =  0.00D+00  THRDIS  =  2.00D-01  THRVAR  =  1.00D-10
 THRLOC  =  1.00D-06  THRGAP  =  1.00D-06  THRLOCT = -1.00D+00  THRGAPT = -1.00D+00  THRORB  =  1.00D-06  THRMLTP =  0.00D+00
 THRCPQCI=  1.00D-10  KEXTA   =  0.00D+00  THRCOARS=  0.00D+00  SYMTOL  =  1.00D-06  GRADTOL =  1.00D-06  THROVL  =  1.00D-08
 THRORTH =  1.00D-08  GRID    =  1.00D-06  GRIDMAX =  1.00D-03  DTMAX   =  0.00D+00

 SETTING GEOMTYP        =    XYZ
 ZUNIT=BOHR
 

 Variable memory set to 1000000000 words,  buffer space   230000 words

 SETTING BASIS          =    CC-PVDZ


 Recomputing integrals since basis changed


 Using spherical harmonics

 Library entry C      S cc-pVDZ              selected for orbital group  1
 Library entry C      P cc-pVDZ              selected for orbital group  1
 Library entry C      D cc-pVDZ              selected for orbital group  1
 Library entry N      S cc-pVDZ              selected for orbital group  2
 Library entry N      P cc-pVDZ              selected for orbital group  2
 Library entry N      D cc-pVDZ              selected for orbital group  2
 Library entry H      S cc-pVDZ              selected for orbital group  3
 Library entry H      P cc-pVDZ              selected for orbital group  3

1PROGRAM * SEWARD (Integral evaluation for generally contracted gaussian basis sets)     Author: Roland Lindh, 1990

 Geometry written to block  1 of record 700


 Point group  C1  



 ATOMIC COORDINATES

 NR  ATOM    CHARGE       X              Y              Z

   1  C       6.00   -0.289859065    2.406052983   -2.133491812
   2  C       6.00    0.766949307    0.000259377   -0.893146300
   3  C       6.00    0.192898406   -0.000735301    1.840396528
   4  N       7.00   -0.295559034   -0.001532196    3.983694531
   5  H       1.00    2.826344617    0.001218041   -1.064160652
   6  C       6.00   -0.287727337   -2.405797417   -2.134795075
   7  H       1.00   -2.343580219   -2.453684111   -1.969645287
   8  H       1.00    0.476265596   -4.101958546   -1.248674520
   9  H       1.00    0.208551813   -2.423206359   -4.136750548
  10  H       1.00   -2.344416821    2.459702731   -1.954570627
  11  H       1.00    0.192911570    2.417329941   -4.138791572
  12  H       1.00    0.484505197    4.102350857   -1.256684577

 Bond lengths in Bohr (Angstrom)

  1- 2  2.905708829   1-10  2.063031425   1-11  2.062624974   1-12  2.060547843   2- 3  2.793168777
       ( 1.537634889)       ( 1.091709211)       ( 1.091494127)       ( 1.090394957)       ( 1.478081258)

 2-5  2.066483939  2-6  2.905708829  3-4  2.198253315  6-7  2.063031425  6-8  2.060547843
     ( 1.093536203)     ( 1.537634889)     ( 1.163265554)     ( 1.091709212)     ( 1.090394957)

 6-9  2.062624974
     ( 1.091494127)

 Bond angles

  1- 2- 3  110.07805267   1- 2- 5  109.07122529   1- 2- 6  111.78757141   2- 1-10  110.28665451

  2- 1-11  109.53615507   2- 1-12  111.30134573   2- 3- 4  179.02148592   2- 6- 7  110.28665578

  2-6-8  111.30134554   2-6-9  109.53615399   3-2-5  106.60693501   3-2-6  110.07805268

  5-2-6  109.07122529   7-6-8  108.41810811   7-6-9  108.49789765   8-6-9  108.73761266

 10- 1-11  108.49789725  10- 1-12  108.41810608  11- 1-12  108.73761509

 NUCLEAR CHARGE:                   38
 NUMBER OF PRIMITIVE AOS:         184
 NUMBER OF SYMMETRY AOS:          179
 NUMBER OF CONTRACTIONS:          105   ( 105A   )
 NUMBER OF CORE ORBITALS:           5   (   5A   )
 NUMBER OF VALENCE ORBITALS:       27   (  27A   )


 NUCLEAR REPULSION ENERGY  158.74629982


 Eigenvalues of metric

         1 0.199E-02 0.465E-02 0.577E-02 0.605E-02 0.167E-01 0.196E-01 0.211E-01 0.266E-01


 Contracted 2-electron integrals neglected if value below      1.0D-16
 AO integral compression algorithm  1   Integral accuracy      1.0D-16

     129.761 MB (compressed) written to integral file ( 95.0%)

     Node minimum: 129.761 MB, node maximum: 129.761 MB


 NUMBER OF SORTED TWO-ELECTRON INTEGRALS:   15487395.     BUFFER LENGTH:  32768
 NUMBER OF SEGMENTS:   1  SEGMENT LENGTH:   15487395      RECORD LENGTH: 524288

 Memory used in sort:      16.04 MW

 SORT1 READ    17100835. AND WROTE    15441905. INTEGRALS IN     45 RECORDS. CPU TIME:     0.14 SEC, REAL TIME:     0.22 SEC
 SORT2 READ    15441905. AND WROTE    15487395. INTEGRALS IN    495 RECORDS. CPU TIME:     0.14 SEC, REAL TIME:     0.21 SEC

 FILE SIZES:   FILE 1:   120.7 MBYTE,  FILE 4:   188.8 MBYTE,   TOTAL:    309.4 MBYTE

 OPERATOR DM      FOR CENTER  0  COORDINATES:    0.000000    0.000000    0.000000


 **********************************************************************************************************************************
 DATASETS  * FILE   NREC   LENGTH (MB)   RECORD NAMES
              1      19      120.79       500      610      700      900      950      970     1000      129      960     1100   
                                          VAR    BASINP    GEOM    SYMINP    ZMAT    AOBASIS   BASIS     P2S    ABASIS      S 
                                         1400     1410     1200     1210     1080     1600     1650     1300     1700   
                                           T        V       H0       H01     AOSYM     SMH    MOLCAS    ERIS     OPER   

 PROGRAMS   *        TOTAL       INT
 CPU TIMES  *         1.56      1.52
 REAL TIME  *         1.98 SEC
 DISK USED  *       440.04 MB      
 GA USED    *         0.00 MB       (max)       0.00 MB       (current)
 **********************************************************************************************************************************

1PROGRAM * RHF-SCF (CLOSED SHELL)       Authors: W. Meyer, H.-J. Werner


 NUMBER OF ELECTRONS:      19+   19-    SPACE SYMMETRY=1    SPIN SYMMETRY: Singlet 
 CONVERGENCE THRESHOLDS:    1.00E-10 (Density)    1.00E-13 (Energy)
 MAX. NUMBER OF ITERATIONS:      200
 INTERPOLATION TYPE:            DIIS
 INTERPOLATION STEPS:              2 (START)      1 (STEP)
 LEVEL SHIFTS:                  0.00 (CLOSED)  0.00 (OPEN) 



 Orbital guess generated from atomic densities. Full valence occupancy:   32

 Molecular orbital dump at record        2100.2

 ITERATION    DDIFF          GRAD             ENERGY        2-EL.EN.            DIPOLE MOMENTS         DIIS
    1      0.000D+00      0.000D+00      -209.94374435    456.704989    0.48530    0.00072   -2.25179    0
    2      0.000D+00      0.591D-02      -209.98957350    456.290186    0.14961    0.00040   -1.29448    1
    3      0.124D-01      0.415D-02      -210.01007292    455.968447    0.30603    0.00056   -1.70399    2
    4      0.555D-02      0.106D-02      -210.01231646    456.291927    0.29287    0.00052   -1.61646    3
    5      0.196D-02      0.234D-03      -210.01243365    456.134749    0.28652    0.00052   -1.62779    4
    6      0.424D-03      0.579D-04      -210.01244305    456.153633    0.28676    0.00052   -1.62594    5
    7      0.169D-03      0.159D-04      -210.01244360    456.151596    0.28712    0.00052   -1.62726    6
    8      0.306D-04      0.499D-05      -210.01244365    456.151298    0.28698    0.00052   -1.62738    7
    9      0.109D-04      0.107D-05      -210.01244366    456.151229    0.28701    0.00052   -1.62737    7
   10      0.262D-05      0.378D-06      -210.01244366    456.151327    0.28701    0.00052   -1.62740    7
   11      0.947D-06      0.199D-06      -210.01244366    456.151295    0.28701    0.00052   -1.62740    7
   12      0.668D-06      0.918D-07      -210.01244366    456.151311    0.28701    0.00052   -1.62740    7
   13      0.430D-06      0.240D-07      -210.01244366    456.151305    0.28701    0.00052   -1.62740    8
   14      0.114D-06      0.466D-08      -210.01244366    456.151304    0.28701    0.00052   -1.62740    8
   15      0.146D-07      0.188D-08      -210.01244366    456.151305    0.28701    0.00052   -1.62740    8
   16      0.359D-08      0.525D-09      -210.01244366    456.151305    0.28701    0.00052   -1.62740    8
   17      0.113D-08      0.101D-09      -210.01244366    456.151305    0.28701    0.00052   -1.62740    8
   18      0.229D-09      0.232D-10      -210.01244366    456.151305    0.28701    0.00052   -1.62740    7
   19      0.555D-10      0.642D-11      -210.01244366    456.151305    0.28701    0.00052   -1.62740    7
   20      0.151D-10      0.192D-11      -210.01244366    456.151305    0.28701    0.00052   -1.62740    7
   21      0.523D-11      0.779D-12      -210.01244366    456.151305    0.28701    0.00052   -1.62740    7
   22      0.200D-11      0.390D-12      -210.01244366    456.151305    0.28701    0.00052   -1.62740    7
   23      0.122D-11      0.189D-12      -210.01244366    456.151305    0.28701    0.00052   -1.62740    7
   24      0.841D-12      0.754D-13      -210.01244366    456.151305    0.28701    0.00052   -1.62740    0

 Final occupancy:  19

 !RHF STATE 1.1 Energy               -210.012443659657
 Nuclear energy                       158.74629982
 One-electron energy                 -596.83439580
 Two-electron energy                  228.07565233
 Virial quotient                       -1.00172092
 !RHF STATE 1.1 Dipole moment           0.28700537     0.00051566    -1.62739622
 Dipole moment /Debye                   0.72944710     0.00131058    -4.13615768

 Orbital energies:

         1.1          2.1          3.1          4.1          5.1          6.1          7.1          8.1          9.1         10.1
    -15.572625   -11.290969   -11.274910   -11.250436   -11.250419    -1.212440    -1.106496    -0.960421    -0.875983    -0.703412

        11.1         12.1         13.1         14.1         15.1         16.1         17.1         18.1         19.1         20.1
     -0.641986    -0.596348    -0.572528    -0.563800    -0.530252    -0.523611    -0.520127    -0.447435    -0.447348     0.155265

        21.1
      0.190077


 **********************************************************************************************************************************
 DATASETS  * FILE   NREC   LENGTH (MB)   RECORD NAMES
              1      19      120.79       500      610      700      900      950      970     1000      129      960     1100   
                                          VAR    BASINP    GEOM    SYMINP    ZMAT    AOBASIS   BASIS     P2S    ABASIS      S 
                                         1400     1410     1200     1210     1080     1600     1650     1300     1700   
                                           T        V       H0       H01     AOSYM     SMH    MOLCAS    ERIS     OPER   

              2       3        0.68       700     1000     2100   
                                         GEOM     BASIS     RHF  

 PROGRAMS   *        TOTAL       RHF       INT
 CPU TIMES  *         3.98      2.42      1.52
 REAL TIME  *         4.69 SEC
 DISK USED  *       440.04 MB      
 GA USED    *         0.00 MB       (max)       0.00 MB       (current)
 **********************************************************************************************************************************


1PROGRAM * CCSD (Closed-shell coupled cluster)     Authors: C. Hampel, H.-J. Werner, 1991, M. Deegan, P.J. Knowles, 1992


 Convergence thresholds:  THRVAR = 1.00D-08  THRDEN = 1.00D-12

 CCSD(T)     terms to be evaluated (factor= 1.000)


 Number of core orbitals:           5 (   5 )
 Number of closed-shell orbitals:  14 (  14 )
 Number of external orbitals:      86 (  86 )

 Molecular orbitals read from record     2100.2  Type=RHF/CANONICAL (state 1.1)

 Number of N-1 electron functions:              14
 Number of N-2 electron functions:             105
 Number of singly external CSFs:              1204
 Number of doubly external CSFs:            725410
 Total number of CSFs:                      726615

 Length of J-op  integral file:               0.00 MB
 Length of K-op  integral file:               0.79 MB
 Length of 3-ext integral record:             0.00 MB

 Memory could be reduced to 12.72 Mwords without degradation in triples

 Integral transformation finished. Total CPU:   0.59 sec, npass=  1  Memory used:  10.92 MW

 Reference energy:                   -210.01244366

 MP2 singlet pair energy:              -0.45173649
 MP2 triplet pair energy:              -0.25967548
 MP2 correlation energy:               -0.71141197
 MP2 total energy:                   -210.72385563

 SCS-MP2 correlation energy:           -0.70365964   (PS=  1.200000  PT=  0.333333)
 SCS-MP2 total energy:               -210.71610330

 ITER.      SQ.NORM     CORR.ENERGY   TOTAL ENERGY   ENERGY CHANGE        DEN1      VAR(S)    VAR(P)  DIIS     TIME
   1      1.27036258    -0.75354052  -210.76598417    -0.04212855    -0.01891512  0.35D-02  0.56D-02  1  1     2.20
   2      1.29305897    -0.75720777  -210.76965143    -0.00366725    -0.02206473  0.59D-04  0.76D-03  2  2     3.83
   3      1.30045760    -0.75758635  -210.77003001    -0.00037858    -0.00408294  0.27D-04  0.55D-04  3  3     5.47
   4      1.30302955    -0.75768350  -210.77012716    -0.00009715    -0.00101024  0.13D-05  0.65D-05  4  4     7.12
   5      1.30359940    -0.75769219  -210.77013585    -0.00000869    -0.00016896  0.16D-06  0.78D-06  5  5     8.77
   6      1.30372259    -0.75768660  -210.77013026     0.00000559    -0.00003137  0.97D-08  0.53D-07  6  6    10.41
   7      1.30374079    -0.75768900  -210.77013266    -0.00000240    -0.00000404  0.15D-08  0.48D-08  6  2    12.06
   8      1.30374226    -0.75768892  -210.77013258     0.00000008    -0.00000004  0.14D-09  0.42D-09  6  1    13.70
   9      1.30374262    -0.75768890  -210.77013256     0.00000002     0.00000023  0.16D-10  0.36D-10  6  3    15.35
  10      1.30374288    -0.75768892  -210.77013258    -0.00000001    -0.00000006  0.17D-11  0.33D-11  6  4    17.01
  11      1.30374250    -0.75768894  -210.77013260    -0.00000003     0.00000023  0.34D-12  0.35D-12  6  6    18.64
  12      1.30374243    -0.75768895  -210.77013261    -0.00000001     0.00000004  0.43D-13  0.27D-13  6  5    20.29
  13      1.30374240    -0.75768895  -210.77013261    -0.00000000     0.00000002  0.49D-14  0.44D-14  6  2    21.94
  14      1.30374239    -0.75768895  -210.77013261     0.00000000     0.00000000  0.14D-14  0.63D-15  6  1    23.59
  15      1.30374239    -0.75768895  -210.77013261     0.00000000    -0.00000000  0.93D-16  0.10D-15  6  4    25.23
  16      1.30374239    -0.75768895  -210.77013261     0.00000000    -0.00000000  0.14D-16  0.67D-17  6  3    26.88
  17      1.30374239    -0.75768895  -210.77013261     0.00000000    -0.00000000  0.30D-17  0.14D-17  6  6    28.53
  18      1.30374239    -0.75768895  -210.77013261    -0.00000000    -0.00000000  0.51D-18  0.24D-18  6  5    30.17
  19      1.30374239    -0.75768895  -210.77013261     0.00000000    -0.00000000  0.61D-19  0.44D-19  6  3    31.82
  20      1.30374239    -0.75768895  -210.77013261     0.00000000     0.00000000  0.47D-20  0.40D-20  6  2    33.48
  21      1.30374239    -0.75768895  -210.77013261    -0.00000000     0.00000000  0.76D-21  0.73D-21  6  1    35.12

 Norm of t1 vector:      0.07775390      S-energy:    -0.00000000      T1 diagnostic:  0.01039030
                                                                       D1 diagnostic:  0.02936130


 Total CPU time for triples:     21.31 sec


 RESULTS
 =======

  Reference energy                   -210.012443659658
  CCSD singlet pair energy             -0.527510043348
  CCSD triplet pair energy             -0.230178907143
  CCSD correlation energy              -0.757688950491

  Triples (T) contribution             -0.026810740235
  Total correlation energy             -0.784499690726

  CCSD total energy                  -210.770132610149
  CCSD[T] energy                     -210.797953861701
  CCSD-T energy                      -210.796472722068
 !CCSD(T) total energy               -210.796943350384

 Timing summary (sec):

 STEP                 CPU(USER)    SYS     CPU(TOT)    WALL
 Transformation          0.61      0.07      0.68      0.69
 CCSD iterations        34.51      0.89     35.40     35.48
 Triples                21.31      0.45     21.76     21.75

 Program statistics:

 Available memory in ccsd:               999999116
 Min. memory needed in ccsd:               1995783
 Max. memory used in ccsd:                 2628247
 Max. memory used in cckext:               2458865 (21 integral passes)



 **********************************************************************************************************************************
 DATASETS  * FILE   NREC   LENGTH (MB)   RECORD NAMES
              1      20      170.94       500      610      700      900      950      970     1000      129      960     1100   
                                          VAR    BASINP    GEOM    SYMINP    ZMAT    AOBASIS   BASIS     P2S    ABASIS      S 
                                         1400     1410     1200     1210     1080     1600     1650     1300     1700     1380   
                                           T        V       H0       H01     AOSYM     SMH    MOLCAS    ERIS     OPER     JKOP   

              2       3        0.68       700     1000     2100   
                                         GEOM     BASIS     RHF  

 PROGRAMS   *        TOTAL   CCSD(T)       RHF       INT
 CPU TIMES  *        60.41     56.43      2.42      1.52
 REAL TIME  *        62.65 SEC
 DISK USED  *       440.04 MB      
 GA USED    *         0.00 MB       (max)       0.00 MB       (current)
 **********************************************************************************************************************************

        CCSD(T)         RHF-SCF 
   -210.79694335   -210.01244366
 **********************************************************************************************************************************
 Variable memory released
