
 Primary working directories    : /tmp/944438.904.gen6.q
 Secondary working directories  : /tmp/944438.904.gen6.q
 Wavefunction directory         : /home/vulcan/mel64643/wfu/
 Main file repository           : /tmp/944438.904.gen6.q/

 ARCHNAME  : Linux/x86_64
 FC        : /opt/intel/compilers_and_libraries_2016.1.150/linux/bin/intel64/ifort
 FCVERSION : 16.0.1
 BLASLIB   : -mkl
 id        : ccgc

 Nodes     nprocs
 n085         1
 ga_uses_ma=false, calling ma_init with nominal heap.
 GA-space will be limited to   8.0 MW (determined by -G option)

 Using customized tuning parameters: mindgm=10; mindgv=16; mindgc=4; mindgr=1; noblas=0; mincuda=1000; minvec=7
 default implementation of scratch files=df  

 ***,Optimization of min3
 memory,1000,m
 gthresh,energy=1.0d-12,orbital=1.0d-10,oneint=1.0d-16,twoint=1.0d-16,optgrad=1.0d-6,compress=1.0d-13
 geomtyp=xyz
 
 
 
  bohr
  geometry = {
  C   -0.2902443491    2.4012722553   -2.1314630624
  C    0.7656905247    0.0002594066   -0.8946268802
  C    0.1955263318   -0.0007340390    1.8338313326
  N   -0.2908095965   -0.0015316045    3.9776117241
  H    2.8249155671    0.0012195257   -1.0676793897
  C   -0.2881148112   -2.4010172052   -2.1327665520
  H   -2.3444368646   -2.4450787142   -1.9724641846
  H    0.4707978509   -4.0971887070   -1.2423109306
  H    0.2129153401   -2.4222623748   -4.1335012189
  H   -2.3453141599    2.4510790112   -1.9573768195
  H    0.1972954218    2.4163733244   -4.1355834966
  H    0.4790627746    4.0976091215   -1.2502904345
 }
 
 basis=cc-pvdz
 {rhf;maxit,200}
 {ccsd(t);maxit,200}

 Variables initialized (661), CPU time= 0.00 sec
 Commands  initialized (458), CPU time= 0.00 sec, 486 directives.
 Default parameters read. Elapsed time= 0.04 sec

 Checking input...
 Passed
1


                                         ***  PROGRAM SYSTEM MOLPRO  ***
                         Copyright, University College Cardiff Consultants Limited, 2008

                                    Version 2010.1 linked May 16 2016 07:17:05


 **********************************************************************************************************************************
 LABEL *   Optimization of min3                                                          
 Linux-4.4.3/n085(x86_64) 64 bit mpp version                                             DATE: 27-Oct-23          TIME: 11:54:49  
 **********************************************************************************************************************************

 SHA1:             9e8077add272b0f3cad6f7df79ec5211205f459d
 **********************************************************************************************************************************

 THRESHOLDS:

 ZERO    =  1.00D-12  ONEINT  =  1.00D-16  TWOINT  =  1.00D-16  PREFAC  =  1.00D-14  LOCALI  =  1.00D-09  EORDER  =  1.00D-04
 ENERGY  =  1.00D-12  ETEST   =  0.00D+00  EDENS   =  0.00D+00  THRDEDEF=  1.00D-06  GRADIENT=  1.00D-02  STEP    =  1.00D-03
 ORBITAL =  1.00D-10  CIVEC   =  1.00D-05  COEFF   =  1.00D-04  PRINTCI =  5.00D-02  PUNCHCI =  9.90D+01  OPTGRAD =  1.00D-06
 OPTENERG=  1.00D-06  OPTSTEP =  3.00D-04  THRGRAD =  1.00D-10  COMPRESS=  1.00D-13  VARMIN  =  1.00D-07  VARMAX  =  1.00D-03
 THRDOUB =  0.00D+00  THRDIV  =  1.00D-05  THRRED  =  1.00D-07  THRPSP  =  1.00D+00  THRDC   =  1.00D-10  THRCS   =  1.00D-10
 THRNRM  =  1.00D-08  THREQ   =  0.00D+00  THRDE   =  1.00D+00  THRREF  =  1.00D-05  SPARFAC =  1.00D+00  THRDLP  =  1.00D-07
 THRDIA  =  1.00D-10  THRDLS  =  1.00D-07  THRGPS  =  0.00D+00  THRKEX  =  0.00D+00  THRDIS  =  2.00D-01  THRVAR  =  1.00D-10
 THRLOC  =  1.00D-06  THRGAP  =  1.00D-06  THRLOCT = -1.00D+00  THRGAPT = -1.00D+00  THRORB  =  1.00D-06  THRMLTP =  0.00D+00
 THRCPQCI=  1.00D-10  KEXTA   =  0.00D+00  THRCOARS=  0.00D+00  SYMTOL  =  1.00D-06  GRADTOL =  1.00D-06  THROVL  =  1.00D-08
 THRORTH =  1.00D-08  GRID    =  1.00D-06  GRIDMAX =  1.00D-03  DTMAX   =  0.00D+00

 SETTING GEOMTYP        =    XYZ
 ZUNIT=BOHR
 

 Variable memory set to 1000000000 words,  buffer space   230000 words

 SETTING BASIS          =    CC-PVDZ


 Recomputing integrals since basis changed


 Using spherical harmonics

 Library entry C      S cc-pVDZ              selected for orbital group  1
 Library entry C      P cc-pVDZ              selected for orbital group  1
 Library entry C      D cc-pVDZ              selected for orbital group  1
 Library entry N      S cc-pVDZ              selected for orbital group  2
 Library entry N      P cc-pVDZ              selected for orbital group  2
 Library entry N      D cc-pVDZ              selected for orbital group  2
 Library entry H      S cc-pVDZ              selected for orbital group  3
 Library entry H      P cc-pVDZ              selected for orbital group  3

1PROGRAM * SEWARD (Integral evaluation for generally contracted gaussian basis sets)     Author: Roland Lindh, 1990

 Geometry written to block  1 of record 700


 Point group  C1  



 ATOMIC COORDINATES

 NR  ATOM    CHARGE       X              Y              Z

   1  C       6.00   -0.290244349    2.401272255   -2.131463062
   2  C       6.00    0.765690525    0.000259407   -0.894626880
   3  C       6.00    0.195526332   -0.000734039    1.833831333
   4  N       7.00   -0.290809596   -0.001531604    3.977611724
   5  H       1.00    2.824915567    0.001219526   -1.067679390
   6  C       6.00   -0.288114811   -2.401017205   -2.132766552
   7  H       1.00   -2.344436865   -2.445078714   -1.972464185
   8  H       1.00    0.470797851   -4.097188707   -1.242310931
   9  H       1.00    0.212915340   -2.422262375   -4.133501219
  10  H       1.00   -2.345314160    2.451079011   -1.957376820
  11  H       1.00    0.197295422    2.416373324   -4.135583497
  12  H       1.00    0.479062775    4.097609121   -1.250290435

 Bond lengths in Bohr (Angstrom)

  1- 2  2.899935327   1-10  2.063031425   1-11  2.062624974   1-12  2.060547843   2- 3  2.787395274
       ( 1.534579682)       ( 1.091709212)       ( 1.091494127)       ( 1.090394957)       ( 1.475026051)

 2-5  2.066483939  2-6  2.899935327  3-4  2.198253315  6-7  2.063031423  6-8  2.060547841
     ( 1.093536203)     ( 1.534579682)     ( 1.163265554)     ( 1.091709211)     ( 1.090394956)

 6-9  2.062624972
     ( 1.091494126)

 Bond angles

  1- 2- 3  110.07805318   1- 2- 5  109.07122553   1- 2- 6  111.78757055   2- 1-10  110.28665583

  2- 1-11  109.53615492   2- 1-12  111.30134454   2- 3- 4  179.02148594   2- 6- 7  110.28665508

  2-6-8  111.30134571   2-6-9  109.53615458   3-2-5  106.60693528   3-2-6  110.07805235

  5-2-6  109.07122553   7-6-8  108.41810703   7-6-9  108.49789729   8-6-9  108.73761402

 10- 1-11  108.49789963  10- 1-12  108.41810633  11- 1-12  108.73761252

 NUCLEAR CHARGE:                   38
 NUMBER OF PRIMITIVE AOS:         184
 NUMBER OF SYMMETRY AOS:          179
 NUMBER OF CONTRACTIONS:          105   ( 105A   )
 NUMBER OF CORE ORBITALS:           5   (   5A   )
 NUMBER OF VALENCE ORBITALS:       27   (  27A   )


 NUCLEAR REPULSION ENERGY  158.94529372


 Eigenvalues of metric

         1 0.197E-02 0.463E-02 0.573E-02 0.601E-02 0.167E-01 0.195E-01 0.209E-01 0.265E-01


 Contracted 2-electron integrals neglected if value below      1.0D-16
 AO integral compression algorithm  1   Integral accuracy      1.0D-16

     129.761 MB (compressed) written to integral file ( 94.9%)

     Node minimum: 129.761 MB, node maximum: 129.761 MB


 NUMBER OF SORTED TWO-ELECTRON INTEGRALS:   15487395.     BUFFER LENGTH:  32768
 NUMBER OF SEGMENTS:   1  SEGMENT LENGTH:   15487395      RECORD LENGTH: 524288

 Memory used in sort:      16.04 MW

 SORT1 READ    17101285. AND WROTE    15442330. INTEGRALS IN     45 RECORDS. CPU TIME:     0.14 SEC, REAL TIME:     0.22 SEC
 SORT2 READ    15442330. AND WROTE    15487395. INTEGRALS IN    495 RECORDS. CPU TIME:     0.14 SEC, REAL TIME:     0.20 SEC

 FILE SIZES:   FILE 1:   120.6 MBYTE,  FILE 4:   188.8 MBYTE,   TOTAL:    309.4 MBYTE

 OPERATOR DM      FOR CENTER  0  COORDINATES:    0.000000    0.000000    0.000000


 **********************************************************************************************************************************
 DATASETS  * FILE   NREC   LENGTH (MB)   RECORD NAMES
              1      19      120.77       500      610      700      900      950      970     1000      129      960     1100   
                                          VAR    BASINP    GEOM    SYMINP    ZMAT    AOBASIS   BASIS     P2S    ABASIS      S 
                                         1400     1410     1200     1210     1080     1600     1650     1300     1700   
                                           T        V       H0       H01     AOSYM     SMH    MOLCAS    ERIS     OPER   

 PROGRAMS   *        TOTAL       INT
 CPU TIMES  *         1.56      1.52
 REAL TIME  *         1.96 SEC
 DISK USED  *       440.02 MB      
 GA USED    *         0.00 MB       (max)       0.00 MB       (current)
 **********************************************************************************************************************************

1PROGRAM * RHF-SCF (CLOSED SHELL)       Authors: W. Meyer, H.-J. Werner


 NUMBER OF ELECTRONS:      19+   19-    SPACE SYMMETRY=1    SPIN SYMMETRY: Singlet 
 CONVERGENCE THRESHOLDS:    1.00E-10 (Density)    1.00E-13 (Energy)
 MAX. NUMBER OF ITERATIONS:      200
 INTERPOLATION TYPE:            DIIS
 INTERPOLATION STEPS:              2 (START)      1 (STEP)
 LEVEL SHIFTS:                  0.00 (CLOSED)  0.00 (OPEN) 



 Orbital guess generated from atomic densities. Full valence occupancy:   32

 Molecular orbital dump at record        2100.2

 ITERATION    DDIFF          GRAD             ENERGY        2-EL.EN.            DIPOLE MOMENTS         DIIS
    1      0.000D+00      0.000D+00      -209.94378189    457.115617    0.48371    0.00072   -2.25246    0
    2      0.000D+00      0.590D-02      -209.98973786    456.669504    0.14945    0.00040   -1.29418    1
    3      0.124D-01      0.414D-02      -210.01007211    456.354323    0.30517    0.00055   -1.70275    2
    4      0.554D-02      0.106D-02      -210.01231933    456.681538    0.29191    0.00051   -1.61451    3
    5      0.196D-02      0.235D-03      -210.01243741    456.521926    0.28558    0.00052   -1.62572    4
    6      0.425D-03      0.579D-04      -210.01244679    456.540946    0.28580    0.00051   -1.62380    5
    7      0.169D-03      0.160D-04      -210.01244734    456.538942    0.28615    0.00051   -1.62511    6
    8      0.307D-04      0.501D-05      -210.01244739    456.538613    0.28602    0.00051   -1.62522    7
    9      0.110D-04      0.107D-05      -210.01244740    456.538548    0.28605    0.00051   -1.62521    7
   10      0.263D-05      0.386D-06      -210.01244740    456.538645    0.28605    0.00051   -1.62524    7
   11      0.972D-06      0.205D-06      -210.01244740    456.538612    0.28604    0.00051   -1.62523    7
   12      0.697D-06      0.932D-07      -210.01244740    456.538629    0.28604    0.00051   -1.62523    7
   13      0.438D-06      0.238D-07      -210.01244740    456.538623    0.28604    0.00051   -1.62523    8
   14      0.113D-06      0.454D-08      -210.01244740    456.538622    0.28604    0.00051   -1.62523    8
   15      0.143D-07      0.175D-08      -210.01244740    456.538622    0.28604    0.00051   -1.62523    8
   16      0.341D-08      0.525D-09      -210.01244740    456.538622    0.28604    0.00051   -1.62523    8
   17      0.112D-08      0.101D-09      -210.01244740    456.538622    0.28604    0.00051   -1.62523    8
   18      0.228D-09      0.232D-10      -210.01244740    456.538622    0.28604    0.00051   -1.62523    7
   19      0.554D-10      0.739D-11      -210.01244740    456.538622    0.28604    0.00051   -1.62523    7
   20      0.172D-10      0.247D-11      -210.01244740    456.538622    0.28604    0.00051   -1.62523    7
   21      0.644D-11      0.103D-11      -210.01244740    456.538622    0.28604    0.00051   -1.62523    7
   22      0.265D-11      0.491D-12      -210.01244740    456.538622    0.28604    0.00051   -1.62523    7
   23      0.148D-11      0.231D-12      -210.01244740    456.538622    0.28604    0.00051   -1.62523    8
   24      0.919D-12      0.104D-12      -210.01244740    456.538622    0.28604    0.00051   -1.62523    8
   25      0.432D-12      0.610D-13      -210.01244740    456.538622    0.28604    0.00051   -1.62523    9
   26      0.293D-12      0.347D-13      -210.01244740    456.538622    0.28604    0.00051   -1.62523    9
   27      0.184D-12      0.351D-13      -210.01244740    456.538622    0.28604    0.00051   -1.62523    9
   28      0.114D-12      0.241D-13      -210.01244740    456.538622    0.28604    0.00051   -1.62523    9
   29      0.701D-13      0.207D-13      -210.01244740    456.538622    0.28604    0.00051   -1.62523    9
   30      0.599D-13      0.246D-13      -210.01244740    456.538622    0.28604    0.00051   -1.62523    9
   31      0.446D-13      0.181D-13      -210.01244740    456.538622    0.28604    0.00051   -1.62523    0

 Final occupancy:  19

 !RHF STATE 1.1 Energy               -210.012447396487
 Nuclear energy                       158.94529372
 One-electron energy                 -597.22705230
 Two-electron energy                  228.26931119
 Virial quotient                       -1.00163742
 !RHF STATE 1.1 Dipole moment           0.28604360     0.00051498    -1.62523322
 Dipole moment /Debye                   0.72700268     0.00130886    -4.13066025

 Orbital energies:

         1.1          2.1          3.1          4.1          5.1          6.1          7.1          8.1          9.1         10.1
    -15.572618   -11.290173   -11.274778   -11.250154   -11.250136    -1.212653    -1.107764    -0.960712    -0.876344    -0.704119

        11.1         12.1         13.1         14.1         15.1         16.1         17.1         18.1         19.1         20.1
     -0.642666    -0.596933    -0.572465    -0.563731    -0.530458    -0.523542    -0.520239    -0.447385    -0.447346     0.155212

        21.1
      0.190311


 **********************************************************************************************************************************
 DATASETS  * FILE   NREC   LENGTH (MB)   RECORD NAMES
              1      19      120.77       500      610      700      900      950      970     1000      129      960     1100   
                                          VAR    BASINP    GEOM    SYMINP    ZMAT    AOBASIS   BASIS     P2S    ABASIS      S 
                                         1400     1410     1200     1210     1080     1600     1650     1300     1700   
                                           T        V       H0       H01     AOSYM     SMH    MOLCAS    ERIS     OPER   

              2       3        0.68       700     1000     2100   
                                         GEOM     BASIS     RHF  

 PROGRAMS   *        TOTAL       RHF       INT
 CPU TIMES  *         4.34      2.78      1.52
 REAL TIME  *         5.11 SEC
 DISK USED  *       440.02 MB      
 GA USED    *         0.00 MB       (max)       0.00 MB       (current)
 **********************************************************************************************************************************


1PROGRAM * CCSD (Closed-shell coupled cluster)     Authors: C. Hampel, H.-J. Werner, 1991, M. Deegan, P.J. Knowles, 1992


 Convergence thresholds:  THRVAR = 1.00D-08  THRDEN = 1.00D-12

 CCSD(T)     terms to be evaluated (factor= 1.000)


 Number of core orbitals:           5 (   5 )
 Number of closed-shell orbitals:  14 (  14 )
 Number of external orbitals:      86 (  86 )

 Molecular orbitals read from record     2100.2  Type=RHF/CANONICAL (state 1.1)

 Number of N-1 electron functions:              14
 Number of N-2 electron functions:             105
 Number of singly external CSFs:              1204
 Number of doubly external CSFs:            725410
 Total number of CSFs:                      726615

 Length of J-op  integral file:               0.00 MB
 Length of K-op  integral file:               0.79 MB
 Length of 3-ext integral record:             0.00 MB

 Memory could be reduced to 12.72 Mwords without degradation in triples

 Integral transformation finished. Total CPU:   0.56 sec, npass=  1  Memory used:  10.92 MW

 Reference energy:                   -210.01244740

 MP2 singlet pair energy:              -0.45163419
 MP2 triplet pair energy:              -0.25975843
 MP2 correlation energy:               -0.71139262
 MP2 total energy:                   -210.72384002

 SCS-MP2 correlation energy:           -0.70358849   (PS=  1.200000  PT=  0.333333)
 SCS-MP2 total energy:               -210.71603589

 ITER.      SQ.NORM     CORR.ENERGY   TOTAL ENERGY   ENERGY CHANGE        DEN1      VAR(S)    VAR(P)  DIIS     TIME
   1      1.27015929    -0.75346836  -210.76591575    -0.04207574    -0.01887912  0.35D-02  0.56D-02  1  1     2.13
   2      1.29282089    -0.75712573  -210.76957313    -0.00365737    -0.02204645  0.58D-04  0.76D-03  2  2     3.73
   3      1.30020148    -0.75750236  -210.76994976    -0.00037663    -0.00407537  0.27D-04  0.55D-04  3  3     5.34
   4      1.30276623    -0.75759909  -210.77004648    -0.00009673    -0.00100780  0.13D-05  0.65D-05  4  4     6.93
   5      1.30333362    -0.75760766  -210.77005505    -0.00000857    -0.00016822  0.16D-06  0.78D-06  5  5     8.53
   6      1.30345623    -0.75760209  -210.77004949     0.00000557    -0.00003124  0.97D-08  0.53D-07  6  6    10.13
   7      1.30347437    -0.75760449  -210.77005189    -0.00000240    -0.00000404  0.15D-08  0.48D-08  6  2    11.74
   8      1.30347581    -0.75760441  -210.77005181     0.00000008    -0.00000004  0.14D-09  0.42D-09  6  1    13.35
   9      1.30347616    -0.75760440  -210.77005179     0.00000002     0.00000023  0.16D-10  0.36D-10  6  3    14.96
  10      1.30347642    -0.75760441  -210.77005181    -0.00000001    -0.00000006  0.17D-11  0.33D-11  6  4    16.55
  11      1.30347605    -0.75760443  -210.77005183    -0.00000002     0.00000023  0.35D-12  0.34D-12  6  6    18.15
  12      1.30347597    -0.75760444  -210.77005184    -0.00000001     0.00000004  0.44D-13  0.27D-13  6  5    19.76
  13      1.30347594    -0.75760444  -210.77005184    -0.00000000     0.00000002  0.51D-14  0.45D-14  6  2    21.37
  14      1.30347593    -0.75760444  -210.77005184     0.00000000     0.00000000  0.14D-14  0.64D-15  6  1    22.97
  15      1.30347593    -0.75760444  -210.77005184     0.00000000    -0.00000000  0.97D-16  0.10D-15  6  4    24.57
  16      1.30347593    -0.75760444  -210.77005184     0.00000000    -0.00000000  0.14D-16  0.69D-17  6  3    26.18
  17      1.30347593    -0.75760444  -210.77005184     0.00000000    -0.00000000  0.32D-17  0.14D-17  6  6    27.78
  18      1.30347593    -0.75760444  -210.77005184    -0.00000000    -0.00000000  0.52D-18  0.24D-18  6  5    29.39
  19      1.30347593    -0.75760444  -210.77005184     0.00000000     0.00000000  0.59D-19  0.40D-19  6  2    30.99
  20      1.30347593    -0.75760444  -210.77005184     0.00000000    -0.00000000  0.63D-20  0.39D-20  6  4    32.59

 Norm of t1 vector:      0.07770442      S-energy:    -0.00000000      T1 diagnostic:  0.01038369
                                                                       D1 diagnostic:  0.02936225


 Total CPU time for triples:     19.87 sec


 RESULTS
 =======

  Reference energy                   -210.012447396487
  CCSD singlet pair energy             -0.527325243017
  CCSD triplet pair energy             -0.230279199691
  CCSD correlation energy              -0.757604442709

  Triples (T) contribution             -0.026790834206
  Total correlation energy             -0.784395276915

  CCSD total energy                  -210.770051839196
  CCSD[T] energy                     -210.797852025218
  CCSD-T energy                      -210.796372822129
 !CCSD(T) total energy               -210.796842673402

 Timing summary (sec):

 STEP                 CPU(USER)    SYS     CPU(TOT)    WALL
 Transformation          0.59      0.08      0.67      0.68
 CCSD iterations        32.00      0.82     32.82     32.86
 Triples                19.87      0.48     20.35     20.34

 Program statistics:

 Available memory in ccsd:               999999116
 Min. memory needed in ccsd:               1995783
 Max. memory used in ccsd:                 2628247
 Max. memory used in cckext:               2458865 (20 integral passes)



 **********************************************************************************************************************************
 DATASETS  * FILE   NREC   LENGTH (MB)   RECORD NAMES
              1      20      170.92       500      610      700      900      950      970     1000      129      960     1100   
                                          VAR    BASINP    GEOM    SYMINP    ZMAT    AOBASIS   BASIS     P2S    ABASIS      S 
                                         1400     1410     1200     1210     1080     1600     1650     1300     1700     1380   
                                           T        V       H0       H01     AOSYM     SMH    MOLCAS    ERIS     OPER     JKOP   

              2       3        0.68       700     1000     2100   
                                         GEOM     BASIS     RHF  

 PROGRAMS   *        TOTAL   CCSD(T)       RHF       INT
 CPU TIMES  *        56.81     52.47      2.78      1.52
 REAL TIME  *        59.02 SEC
 DISK USED  *       440.02 MB      
 GA USED    *         0.00 MB       (max)       0.00 MB       (current)
 **********************************************************************************************************************************

        CCSD(T)         RHF-SCF 
   -210.79684267   -210.01244740
 **********************************************************************************************************************************
 Variable memory released
