
 Primary working directories    : /tmp/1047041.774.gen6.q
 Secondary working directories  : /tmp/1047041.774.gen6.q
 Wavefunction directory         : /home/vulcan/mel64643/wfu/
 Main file repository           : /tmp/1047041.774.gen6.q/

 ARCHNAME  : Linux/x86_64
 FC        : /opt/intel/compilers_and_libraries_2016.1.150/linux/bin/intel64/ifort
 FCVERSION : 16.0.1
 BLASLIB   : -mkl
 id        : ccgc

 Nodes     nprocs
 n080         1
 ga_uses_ma=false, calling ma_init with nominal heap.
 GA-space will be limited to   8.0 MW (determined by -G option)

 Using customized tuning parameters: mindgm=10; mindgv=16; mindgc=4; mindgr=1; noblas=0; mincuda=1000; minvec=7
 default implementation of scratch files=df  

 ***,Optimization of ben_hcn
 memory,1000,m
 gthresh,energy=1.0d-12,orbital=1.0d-10,oneint=1.0d-16,twoint=1.0d-16,optgrad=1.0d-6,compress=1.0d-13
 geomtyp=xyz
 
 
 
 bohr
 geometry = {
  C   -1.8845666949    1.3694762966    2.2860952788
  C   -1.8574747125    2.6901910058   -0.0037748409
  C   -1.8748924534    1.3676037594   -2.2926428809
  C   -1.9193649057   -1.2754879300   -2.2915571975
  C   -1.9464430965   -2.5960199368   -0.0018175871
  C   -1.9290182986   -1.2736348596    2.2869585902
  H   -1.8652503553    2.3939198813    4.0593189071
  H   -1.8172798866    4.7427712246    0.0027175893
  H   -1.8480800711    2.3818276980   -4.0658705425
  H   -1.9264145157   -2.3001328592   -4.0647243902
  H   -1.9742992682   -4.6487547901   -0.0082874370
  H   -1.9434709329   -2.2880992805    4.0601718697
  N    6.6241462024   -0.1990548602    0.0073716562
  C    4.4344425352   -0.0759556938    0.0101974321
  H    2.4147677009    0.0378738925    0.0129440666
 }
 
 basis=aug-cc-pvdz, H=cc-pvdz
 {rhf;maxit,200}
 {ccsd(t)}

 Variables initialized (661), CPU time= 0.00 sec
 Commands  initialized (458), CPU time= 0.00 sec, 486 directives.
 Default parameters read. Elapsed time= 0.05 sec

 Checking input...
 Passed
1


                                         ***  PROGRAM SYSTEM MOLPRO  ***
                         Copyright, University College Cardiff Consultants Limited, 2008

                                    Version 2010.1 linked May 16 2016 07:17:05


 **********************************************************************************************************************************
 LABEL *   Optimization of ben_hcn                                                       
 Linux-4.4.3/n080(x86_64) 64 bit mpp version                                             DATE: 08-Mar-24          TIME: 08:08:07  
 **********************************************************************************************************************************

 SHA1:             9e8077add272b0f3cad6f7df79ec5211205f459d
 **********************************************************************************************************************************

 THRESHOLDS:

 ZERO    =  1.00D-12  ONEINT  =  1.00D-16  TWOINT  =  1.00D-16  PREFAC  =  1.00D-14  LOCALI  =  1.00D-09  EORDER  =  1.00D-04
 ENERGY  =  1.00D-12  ETEST   =  0.00D+00  EDENS   =  0.00D+00  THRDEDEF=  1.00D-06  GRADIENT=  1.00D-02  STEP    =  1.00D-03
 ORBITAL =  1.00D-10  CIVEC   =  1.00D-05  COEFF   =  1.00D-04  PRINTCI =  5.00D-02  PUNCHCI =  9.90D+01  OPTGRAD =  1.00D-06
 OPTENERG=  1.00D-06  OPTSTEP =  3.00D-04  THRGRAD =  1.00D-10  COMPRESS=  1.00D-13  VARMIN  =  1.00D-07  VARMAX  =  1.00D-03
 THRDOUB =  0.00D+00  THRDIV  =  1.00D-05  THRRED  =  1.00D-07  THRPSP  =  1.00D+00  THRDC   =  1.00D-10  THRCS   =  1.00D-10
 THRNRM  =  1.00D-08  THREQ   =  0.00D+00  THRDE   =  1.00D+00  THRREF  =  1.00D-05  SPARFAC =  1.00D+00  THRDLP  =  1.00D-07
 THRDIA  =  1.00D-10  THRDLS  =  1.00D-07  THRGPS  =  0.00D+00  THRKEX  =  0.00D+00  THRDIS  =  2.00D-01  THRVAR  =  1.00D-10
 THRLOC  =  1.00D-06  THRGAP  =  1.00D-06  THRLOCT = -1.00D+00  THRGAPT = -1.00D+00  THRORB  =  1.00D-06  THRMLTP =  0.00D+00
 THRCPQCI=  1.00D-10  KEXTA   =  0.00D+00  THRCOARS=  0.00D+00  SYMTOL  =  1.00D-06  GRADTOL =  1.00D-06  THROVL  =  1.00D-08
 THRORTH =  1.00D-08  GRID    =  1.00D-06  GRIDMAX =  1.00D-03  DTMAX   =  0.00D+00

 SETTING GEOMTYP        =    XYZ
 ZUNIT=BOHR
 

 Variable memory set to 1000000000 words,  buffer space   230000 words

 SETTING BASIS          =    AUG-CC-PVDZ,H=CC-PVDZ


 Recomputing integrals since basis changed


 Using spherical harmonics

 Library entry C      S aug-cc-pVDZ          selected for orbital group  1
 Library entry C      P aug-cc-pVDZ          selected for orbital group  1
 Library entry C      D aug-cc-pVDZ          selected for orbital group  1
 Library entry H      S cc-pVDZ              selected for orbital group  2
 Library entry H      P cc-pVDZ              selected for orbital group  2
 Library entry N      S aug-cc-pVDZ          selected for orbital group  3
 Library entry N      P aug-cc-pVDZ          selected for orbital group  3
 Library entry N      D aug-cc-pVDZ          selected for orbital group  3

1PROGRAM * SEWARD (Integral evaluation for generally contracted gaussian basis sets)     Author: Roland Lindh, 1990

 Geometry written to block  1 of record 700


 Point group  C1  



 ATOMIC COORDINATES

 NR  ATOM    CHARGE       X              Y              Z

   1  C       6.00   -1.884566695    1.369476297    2.286095279
   2  C       6.00   -1.857474712    2.690191006   -0.003774841
   3  C       6.00   -1.874892453    1.367603759   -2.292642881
   4  C       6.00   -1.919364906   -1.275487930   -2.291557197
   5  C       6.00   -1.946443096   -2.596019937   -0.001817587
   6  C       6.00   -1.929018299   -1.273634860    2.286958590
   7  H       1.00   -1.865250355    2.393919881    4.059318907
   8  H       1.00   -1.817279887    4.742771225    0.002717589
   9  H       1.00   -1.848080071    2.381827698   -4.065870542
  10  H       1.00   -1.926414516   -2.300132859   -4.064724390
  11  H       1.00   -1.974299268   -4.648754790   -0.008287437
  12  H       1.00   -1.943470933   -2.288099280    4.060171870
  13  N       7.00    6.624146202   -0.199054860    0.007371656
  14  C       6.00    4.434442535   -0.075955694    0.010197432
  15  H       1.00    2.414767701    0.037873892    0.012944067

 Bond lengths in Bohr (Angstrom)

 1-2  2.643582131  1-6  2.643485062  1-7  2.047969681  2-3  2.643569047  2-8  2.052984006
     ( 1.398923414)     ( 1.398872047)     ( 1.083738880)     ( 1.398916490)     ( 1.086392347)

  3- 4  2.643466031   3- 9  2.042964865   4- 5  2.643377667   4-10  2.047942582   5- 6  2.643388414
       ( 1.398861976)       ( 1.081090446)       ( 1.398815216)       ( 1.083724540)       ( 1.398820903)

  5-11  2.052934047   6-12  2.042946958  13-14  2.193162908  14-15  2.022881893
       ( 1.086365909)       ( 1.081080970)       ( 1.160571826)       ( 1.070462995)

 Bond angles

  1- 2- 3  119.99746549   1- 2- 8  119.79880922   1- 6- 5  120.00123549   1- 6-12  119.79520439

  2-1-6  119.99850417   2-1-7  119.99930035   2-3-4  119.99920943   2-3-9  120.20181967

  3- 2- 8  120.20347503   3- 4- 5  120.00130473   3- 4-10  119.99737973   4- 3- 9  119.79868542

  4- 5- 6  120.00228067   4- 5-11  119.79663509   5- 4-10  120.00098990   5- 6-12  120.20324188

  6- 1- 7  120.00192397   6- 5-11  120.20073268  13-14-15  179.99091354

 NUCLEAR CHARGE:                   56
 NUMBER OF PRIMITIVE AOS:         345
 NUMBER OF SYMMETRY AOS:          329
 NUMBER OF CONTRACTIONS:          219   ( 219A   )
 NUMBER OF CORE ORBITALS:           8   (   8A   )
 NUMBER OF VALENCE ORBITALS:       39   (  39A   )


 NUCLEAR REPULSION ENERGY  303.39348072


 Eigenvalues of metric

         1 0.864E-05 0.186E-04 0.229E-04 0.534E-04 0.628E-04 0.633E-04 0.929E-04 0.930E-04


 Contracted 2-electron integrals neglected if value below      1.0D-16
 AO integral compression algorithm  1   Integral accuracy      1.0D-16

     2340.422 MB (compressed) written to integral file ( 91.2%)

     Node minimum: 2340.422 MB, node maximum: 2340.422 MB


 NUMBER OF SORTED TWO-ELECTRON INTEGRALS:  290176095.     BUFFER LENGTH:  32768
 NUMBER OF SEGMENTS:  19  SEGMENT LENGTH:   15999762      RECORD LENGTH: 524288

 Memory used in sort:      16.56 MW

 SORT1 READ   320642736. AND WROTE   287604852. INTEGRALS IN    832 RECORDS. CPU TIME:     2.95 SEC, REAL TIME:     4.74 SEC
 SORT2 READ   287604852. AND WROTE   290176095. INTEGRALS IN   8928 RECORDS. CPU TIME:     2.00 SEC, REAL TIME:     3.04 SEC

 FILE SIZES:   FILE 1:  2151.4 MBYTE,  FILE 4:  3489.7 MBYTE,   TOTAL:   5641.1 MBYTE

 OPERATOR DM      FOR CENTER  0  COORDINATES:    0.000000    0.000000    0.000000


 **********************************************************************************************************************************
 DATASETS  * FILE   NREC   LENGTH (MB)   RECORD NAMES
              1      19     2152.02       500      610      700      900      950      970     1000      129      960     1100   
                                          VAR    BASINP    GEOM    SYMINP    ZMAT    AOBASIS   BASIS     P2S    ABASIS      S 
                                         1400     1410     1200     1210     1080     1600     1650     1300     1700   
                                           T        V       H0       H01     AOSYM     SMH    MOLCAS    ERIS     OPER   

 PROGRAMS   *        TOTAL       INT
 CPU TIMES  *        15.82     15.77
 REAL TIME  *        20.25 SEC
 DISK USED  *         7.98 GB      
 GA USED    *         0.01 MB       (max)       0.00 MB       (current)
 **********************************************************************************************************************************

1PROGRAM * RHF-SCF (CLOSED SHELL)       Authors: W. Meyer, H.-J. Werner


 NUMBER OF ELECTRONS:      28+   28-    SPACE SYMMETRY=1    SPIN SYMMETRY: Singlet 
 CONVERGENCE THRESHOLDS:    1.00E-10 (Density)    1.00E-13 (Energy)
 MAX. NUMBER OF ITERATIONS:      200
 INTERPOLATION TYPE:            DIIS
 INTERPOLATION STEPS:              2 (START)      1 (STEP)
 LEVEL SHIFTS:                  0.00 (CLOSED)  0.00 (OPEN) 



 Orbital guess generated from atomic densities. Full valence occupancy:   47

 Molecular orbital dump at record        2100.2

 ITERATION    DDIFF          GRAD             ENERGY        2-EL.EN.            DIPOLE MOMENTS         DIIS
    1      0.000D+00      0.000D+00      -323.54135890    822.123767   -1.89880    0.10258    0.00209    0
    2      0.000D+00      0.292D-02      -323.59779902    819.103368   -1.36877    0.04985   -0.00069    1
    3      0.781D-02      0.179D-02      -323.61439493    820.248529   -1.72960    0.07898    0.00059    2
    4      0.260D-02      0.576D-03      -323.61673131    820.450210   -1.63887    0.07175    0.00027    3
    5      0.963D-03      0.133D-03      -323.61686065    820.190231   -1.66281    0.07246    0.00025    4
    6      0.223D-03      0.229D-04      -323.61686678    820.217092   -1.66416    0.07242    0.00024    5
    7      0.845D-04      0.434D-05      -323.61686698    820.212209   -1.66451    0.07235    0.00023    6
    8      0.108D-04      0.123D-05      -323.61686699    820.213201   -1.66482    0.07241    0.00023    7
    9      0.345D-05      0.268D-06      -323.61686700    820.213234   -1.66479    0.07236    0.00023    6
   10      0.814D-06      0.715D-07      -323.61686700    820.213213   -1.66479    0.07239    0.00023    6
   11      0.185D-06      0.362D-07      -323.61686700    820.213228   -1.66479    0.07238    0.00023    7
   12      0.837D-07      0.706D-08      -323.61686700    820.213223   -1.66479    0.07238    0.00023    7
   13      0.236D-07      0.262D-08      -323.61686700    820.213226   -1.66479    0.07238    0.00023    7
   14      0.651D-08      0.800D-09      -323.61686700    820.213224   -1.66479    0.07238    0.00023    7
   15      0.224D-08      0.333D-09      -323.61686700    820.213225   -1.66479    0.07238    0.00023    8
   16      0.952D-09      0.143D-09      -323.61686700    820.213225   -1.66479    0.07238    0.00023    8
   17      0.401D-09      0.811D-10      -323.61686700    820.213225   -1.66479    0.07238    0.00023    8
   18      0.288D-09      0.376D-10      -323.61686700    820.213225   -1.66479    0.07238    0.00023    9
   19      0.296D-09      0.102D-10      -323.61686700    820.213225   -1.66479    0.07238    0.00023    8
   20      0.170D-09      0.310D-11      -323.61686700    820.213225   -1.66479    0.07238    0.00023    9
   21      0.163D-09      0.142D-11      -323.61686700    820.213225   -1.66479    0.07238    0.00023    9
   22      0.915D-10      0.761D-12      -323.61686700    820.213225   -1.66479    0.07238    0.00023    9
   23      0.860D-10      0.572D-12      -323.61686700    820.213225   -1.66479    0.07238    0.00023    9
   24      0.650D-10      0.480D-12      -323.61686700    820.213225   -1.66479    0.07238    0.00023    9
   25      0.378D-10      0.515D-12      -323.61686700    820.213225   -1.66479    0.07238    0.00023    9
   26      0.262D-10      0.526D-12      -323.61686700    820.213225   -1.66479    0.07238    0.00023    9
   27      0.208D-10      0.517D-12      -323.61686700    820.213225   -1.66479    0.07238    0.00023    9
   28      0.685D-11      0.548D-12      -323.61686700    820.213225   -1.66479    0.07238    0.00023    9
   29      0.634D-11      0.489D-12      -323.61686700    820.213225   -1.66479    0.07238    0.00023    9
   30      0.125D-10      0.449D-12      -323.61686700    820.213225   -1.66479    0.07238    0.00023    9
   31      0.104D-10      0.392D-12      -323.61686700    820.213225   -1.66479    0.07238    0.00023    9
   32      0.103D-10      0.478D-12      -323.61686700    820.213225   -1.66479    0.07238    0.00023    9
   33      0.265D-10      0.393D-12      -323.61686700    820.213225   -1.66479    0.07238    0.00023    9
   34      0.356D-10      0.419D-12      -323.61686700    820.213225   -1.66479    0.07238    0.00023    9
   35      0.282D-10      0.426D-12      -323.61686700    820.213225   -1.66479    0.07238    0.00023    9
   36      0.189D-10      0.444D-12      -323.61686700    820.213225   -1.66479    0.07238    0.00023    9
   37      0.159D-10      0.466D-12      -323.61686700    820.213225   -1.66479    0.07238    0.00023    9
   38      0.931D-11      0.420D-12      -323.61686700    820.213225   -1.66479    0.07238    0.00023    9
   39      0.601D-11      0.490D-12      -323.61686700    820.213225   -1.66479    0.07238    0.00023    9
   40      0.136D-10      0.423D-12      -323.61686700    820.213225   -1.66479    0.07238    0.00023    9
   41      0.112D-10      0.451D-12      -323.61686700    820.213225   -1.66479    0.07238    0.00023    9
   42      0.108D-10      0.383D-12      -323.61686700    820.213225   -1.66479    0.07238    0.00023    9
   43      0.171D-10      0.478D-12      -323.61686700    820.213225   -1.66479    0.07238    0.00023    9
   44      0.192D-10      0.427D-12      -323.61686700    820.213225   -1.66479    0.07238    0.00023    9
   45      0.232D-10      0.491D-12      -323.61686700    820.213225   -1.66479    0.07238    0.00023    9
   46      0.200D-10      0.420D-12      -323.61686700    820.213225   -1.66479    0.07238    0.00023    9
   47      0.161D-10      0.480D-12      -323.61686700    820.213225   -1.66479    0.07238    0.00023    9
   48      0.115D-10      0.464D-12      -323.61686700    820.213225   -1.66479    0.07238    0.00023    9
   49      0.683D-11      0.427D-12      -323.61686700    820.213225   -1.66479    0.07238    0.00023    9
   50      0.169D-10      0.408D-12      -323.61686700    820.213225   -1.66479    0.07238    0.00023    9
   51      0.129D-10      0.433D-12      -323.61686700    820.213225   -1.66479    0.07238    0.00023    9
   52      0.236D-10      0.417D-12      -323.61686700    820.213225   -1.66479    0.07238    0.00023    9
   53      0.187D-10      0.435D-12      -323.61686700    820.213225   -1.66479    0.07238    0.00023    9
   54      0.189D-10      0.496D-12      -323.61686700    820.213225   -1.66479    0.07238    0.00023    9
   55      0.142D-10      0.450D-12      -323.61686700    820.213225   -1.66479    0.07238    0.00023    9
   56      0.922D-11      0.506D-12      -323.61686700    820.213225   -1.66479    0.07238    0.00023    9
   57      0.130D-10      0.429D-12      -323.61686700    820.213225   -1.66479    0.07238    0.00023    9
   58      0.172D-10      0.346D-12      -323.61686700    820.213225   -1.66479    0.07238    0.00023    9
   59      0.251D-10      0.424D-12      -323.61686700    820.213225   -1.66479    0.07238    0.00023    9
   60      0.126D-10      0.436D-12      -323.61686700    820.213225   -1.66479    0.07238    0.00023    9
   61      0.121D-10      0.495D-12      -323.61686700    820.213225   -1.66479    0.07238    0.00023    9
   62      0.125D-10      0.425D-12      -323.61686700    820.213225   -1.66479    0.07238    0.00023    9
   63      0.179D-10      0.420D-12      -323.61686700    820.213225   -1.66479    0.07238    0.00023    9
   64      0.860D-11      0.374D-12      -323.61686700    820.213225   -1.66479    0.07238    0.00023    9
   65      0.166D-10      0.395D-12      -323.61686700    820.213225   -1.66479    0.07238    0.00023    9
   66      0.140D-10      0.501D-12      -323.61686700    820.213225   -1.66479    0.07238    0.00023    9
   67      0.143D-10      0.421D-12      -323.61686700    820.213225   -1.66479    0.07238    0.00023    9
   68      0.154D-10      0.412D-12      -323.61686700    820.213225   -1.66479    0.07238    0.00023    9
   69      0.130D-10      0.414D-12      -323.61686700    820.213225   -1.66479    0.07238    0.00023    9
   70      0.115D-10      0.401D-12      -323.61686700    820.213225   -1.66479    0.07238    0.00023    9
   71      0.159D-10      0.514D-12      -323.61686700    820.213225   -1.66479    0.07238    0.00023    9
   72      0.153D-10      0.434D-12      -323.61686700    820.213225   -1.66479    0.07238    0.00023    9
   73      0.201D-10      0.373D-12      -323.61686700    820.213225   -1.66479    0.07238    0.00023    9
   74      0.126D-10      0.413D-12      -323.61686700    820.213225   -1.66479    0.07238    0.00023    9
   75      0.126D-10      0.431D-12      -323.61686700    820.213225   -1.66479    0.07238    0.00023    9
   76      0.136D-10      0.575D-12      -323.61686700    820.213225   -1.66479    0.07238    0.00023    9
   77      0.126D-10      0.445D-12      -323.61686700    820.213225   -1.66479    0.07238    0.00023    9
   78      0.210D-10      0.518D-12      -323.61686700    820.213225   -1.66479    0.07238    0.00023    9
   79      0.158D-10      0.420D-12      -323.61686700    820.213225   -1.66479    0.07238    0.00023    9
   80      0.202D-10      0.433D-12      -323.61686700    820.213225   -1.66479    0.07238    0.00023    9
   81      0.111D-10      0.476D-12      -323.61686700    820.213225   -1.66479    0.07238    0.00023    9
   82      0.856D-11      0.483D-12      -323.61686700    820.213225   -1.66479    0.07238    0.00023    9
   83      0.138D-10      0.391D-12      -323.61686700    820.213225   -1.66479    0.07238    0.00023    9
   84      0.131D-10      0.387D-12      -323.61686700    820.213225   -1.66479    0.07238    0.00023    9
   85      0.104D-10      0.380D-12      -323.61686700    820.213225   -1.66479    0.07238    0.00023    9
   86      0.236D-10      0.482D-12      -323.61686700    820.213225   -1.66479    0.07238    0.00023    9
   87      0.991D-11      0.483D-12      -323.61686700    820.213225   -1.66479    0.07238    0.00023    9
   88      0.254D-10      0.487D-12      -323.61686700    820.213225   -1.66479    0.07238    0.00023    9
   89      0.197D-10      0.422D-12      -323.61686700    820.213225   -1.66479    0.07238    0.00023    0

 Final occupancy:  28

 !RHF STATE 1.1 Energy               -323.616866995668
 Nuclear energy                       303.39348072
 One-electron energy                -1037.11696000
 Two-electron energy                  410.10661228
 Virial quotient                       -1.00170982
 !RHF STATE 1.1 Dipole moment          -1.66478792     0.07238257     0.00023268
 Dipole moment /Debye                  -4.23119169     0.18396610     0.00059139

 Orbital energies:

         1.1          2.1          3.1          4.1          5.1          6.1          7.1          8.1          9.1         10.1
    -15.591649   -11.283865   -11.266287   -11.265855   -11.265557   -11.264646   -11.264355   -11.263902    -1.218335    -1.173918

        11.1         12.1         13.1         14.1         15.1         16.1         17.1         18.1         19.1         20.1
     -1.037990    -1.037587    -0.846137    -0.845305    -0.789909    -0.729359    -0.664885    -0.639200    -0.608921    -0.608184

        21.1         22.1         23.1         24.1         25.1         26.1         27.1         28.1         29.1         30.1
     -0.565229    -0.520375    -0.515301    -0.514404    -0.475691    -0.475686    -0.359675    -0.359659     0.055869     0.060053


 **********************************************************************************************************************************
 DATASETS  * FILE   NREC   LENGTH (MB)   RECORD NAMES
              1      19     2152.02       500      610      700      900      950      970     1000      129      960     1100   
                                          VAR    BASINP    GEOM    SYMINP    ZMAT    AOBASIS   BASIS     P2S    ABASIS      S 
                                         1400     1410     1200     1210     1080     1600     1650     1300     1700   
                                           T        V       H0       H01     AOSYM     SMH    MOLCAS    ERIS     OPER   

              2       3        1.49       700     1000     2100   
                                         GEOM     BASIS     RHF  

 PROGRAMS   *        TOTAL       RHF       INT
 CPU TIMES  *       183.93    168.11     15.77
 REAL TIME  *       205.29 SEC
 DISK USED  *         7.98 GB      
 GA USED    *         0.01 MB       (max)       0.00 MB       (current)
 **********************************************************************************************************************************


1PROGRAM * CCSD (Closed-shell coupled cluster)     Authors: C. Hampel, H.-J. Werner, 1991, M. Deegan, P.J. Knowles, 1992


 Convergence thresholds:  THRVAR = 1.00D-08  THRDEN = 1.00D-12

 CCSD(T)     terms to be evaluated (factor= 1.000)


 Number of core orbitals:           8 (   8 )
 Number of closed-shell orbitals:  20 (  20 )
 Number of external orbitals:     191 ( 191 )

 Molecular orbitals read from record     2100.2  Type=RHF/CANONICAL (state 1.1)

 Number of N-1 electron functions:              20
 Number of N-2 electron functions:             210
 Number of singly external CSFs:              3820
 Number of doubly external CSFs:           7298110
 Total number of CSFs:                     7301931

 Length of J-op  integral file:               0.00 MB
 Length of K-op  integral file:               3.32 MB
 Length of 3-ext integral record:             0.00 MB

 Memory could be reduced to 174.82 Mwords without degradation in triples

 Integral transformation finished. Total CPU:  14.23 sec, npass=  1  Memory used: 128.13 MW

 Reference energy:                   -323.61686700

 MP2 singlet pair energy:              -0.67334340
 MP2 triplet pair energy:              -0.43519831
 MP2 correlation energy:               -1.10854171
 MP2 total energy:                   -324.72540870

 SCS-MP2 correlation energy:           -1.07880214   (PS=  1.200000  PT=  0.333333)
 SCS-MP2 total energy:               -324.69566913

 ITER.      SQ.NORM     CORR.ENERGY   TOTAL ENERGY   ENERGY CHANGE        DEN1      VAR(S)    VAR(P)  DIIS     TIME
   1      1.42873360    -1.14462381  -324.76149080    -0.03608210    -0.00288969  0.51D-02  0.99D-02  1  1    60.66
   2      1.46305635    -1.15049731  -324.76736431    -0.00587351    -0.03103173  0.83D-04  0.13D-02  2  2   107.37
   3      1.47634794    -1.15094500  -324.76781199    -0.00044768    -0.00655934  0.40D-04  0.12D-03  3  3   154.14
   4      1.48204004    -1.15119469  -324.76806169    -0.00024969    -0.00178581  0.22D-05  0.15D-04  4  4   200.89
   5      1.48356942    -1.15123039  -324.76809738    -0.00003569    -0.00036590  0.25D-06  0.14D-05  5  5   247.67
   6      1.48387562    -1.15122187  -324.76808886     0.00000852    -0.00005025  0.24D-07  0.91D-07  6  6   294.47
   7      1.48391041    -1.15122528  -324.76809228    -0.00000341    -0.00000225  0.34D-08  0.80D-08  6  2   341.28
   8      1.48391508    -1.15122564  -324.76809263    -0.00000036    -0.00000042  0.41D-09  0.83D-09  6  1   388.07
   9      1.48391531    -1.15122580  -324.76809280    -0.00000017     0.00000079  0.63D-10  0.78D-10  6  3   434.83
  10      1.48391568    -1.15122586  -324.76809286    -0.00000006     0.00000002  0.10D-10  0.99D-11  6  4   481.62
  11      1.48391541    -1.15122590  -324.76809289    -0.00000004     0.00000022  0.16D-11  0.14D-11  6  5   528.42
  12      1.48391524    -1.15122591  -324.76809290    -0.00000001     0.00000008  0.25D-12  0.27D-12  6  6   575.22
  13      1.48391511    -1.15122591  -324.76809291    -0.00000000     0.00000005  0.14D-13  0.52D-13  6  2   622.02
  14      1.48391504    -1.15122591  -324.76809291    -0.00000000     0.00000002  0.22D-14  0.94D-14  6  1   668.79
  15      1.48391502    -1.15122591  -324.76809291     0.00000000     0.00000001  0.46D-15  0.13D-14  6  3   715.59
  16      1.48391501    -1.15122591  -324.76809291    -0.00000000     0.00000000  0.98D-16  0.19D-15  6  4   762.38
  17      1.48391500    -1.15122591  -324.76809291    -0.00000000     0.00000000  0.19D-16  0.28D-16  6  5   809.19
  18      1.48391500    -1.15122591  -324.76809291    -0.00000000     0.00000000  0.37D-17  0.36D-17  6  6   855.99
  19      1.48391500    -1.15122591  -324.76809291    -0.00000000     0.00000000  0.82D-18  0.61D-18  6  2   902.79
  20      1.48391500    -1.15122591  -324.76809291    -0.00000000     0.00000000  0.19D-18  0.13D-18  6  1   949.58
  21      1.48391500    -1.15122591  -324.76809291    -0.00000000     0.00000000  0.65D-19  0.41D-19  6  3   996.39
  22      1.48391500    -1.15122591  -324.76809291     0.00000000     0.00000000  0.29D-19  0.17D-19  6  4  1043.16

 Norm of t1 vector:      0.09773667      S-energy:     0.00000000      T1 diagnostic:  0.01092729
                                                                       D1 diagnostic:  0.02771775

 Doubles amplitudes (print threshold =  0.500E-01):

         I         J         SYM. A    SYM. B    A         B      T(IJ, AB)

        19        19         1         1         7         7     -0.05398004
        20        20         1         1         8         8     -0.05393507


 Total CPU time for triples:   1007.96 sec


 RESULTS
 =======

  Reference energy                   -323.616866995669
  CCSD singlet pair energy             -0.770020501924
  CCSD triplet pair energy             -0.381205412563
  CCSD correlation energy              -1.151225914486

  Triples (T) contribution             -0.054015641020
  Total correlation energy             -1.205241555506

  CCSD total energy                  -324.768092910155
  CCSD[T] energy                     -324.823440870523
  CCSD-T energy                      -324.821503070442
 !CCSD(T) total energy               -324.822108551175

 Timing summary (sec):

 STEP                 CPU(USER)    SYS     CPU(TOT)    WALL
 Transformation         14.69      0.98     15.67     15.68
 CCSD iterations      1028.49     13.58   1042.07   1042.25
 Triples              1007.96     13.86   1021.82   1021.95

 Program statistics:

 Available memory in ccsd:               999998300
 Min. memory needed in ccsd:              17709720
 Max. memory used in ccsd:                24415330
 Max. memory used in cckext:              20754978 (22 integral passes)



 **********************************************************************************************************************************
 DATASETS  * FILE   NREC   LENGTH (MB)   RECORD NAMES
              1      20     2834.19       500      610      700      900      950      970     1000      129      960     1100   
                                          VAR    BASINP    GEOM    SYMINP    ZMAT    AOBASIS   BASIS     P2S    ABASIS      S 
                                         1400     1410     1200     1210     1080     1600     1650     1300     1700     1380   
                                           T        V       H0       H01     AOSYM     SMH    MOLCAS    ERIS     OPER     JKOP   

              2       3        1.49       700     1000     2100   
                                         GEOM     BASIS     RHF  

 PROGRAMS   *        TOTAL   CCSD(T)       RHF       INT
 CPU TIMES  *      2235.08   2051.15    168.11     15.77
 REAL TIME  *      2285.29 SEC
 DISK USED  *         7.98 GB      
 GA USED    *         0.01 MB       (max)       0.00 MB       (current)
 **********************************************************************************************************************************

        CCSD(T)         RHF-SCF 
   -324.82210855   -323.61686700
 **********************************************************************************************************************************
 Variable memory released
