
 Primary working directories    : /tmp/943168.205.gen4.q
 Secondary working directories  : /tmp/943168.205.gen4.q
 Wavefunction directory         : /home/vulcan/mel64643/wfu/
 Main file repository           : /tmp/943168.205.gen4.q/

 ARCHNAME  : Linux/x86_64
 FC        : /opt/intel/compilers_and_libraries_2016.1.150/linux/bin/intel64/ifort
 FCVERSION : 16.0.1
 BLASLIB   : -mkl
 id        : ccgc

 Nodes     nprocs
 n066         1
 ga_uses_ma=false, calling ma_init with nominal heap.
 GA-space will be limited to   8.0 MW (determined by -G option)

 Using customized tuning parameters: mindgm=10; mindgv=16; mindgc=4; mindgr=1; noblas=0; mincuda=1000; minvec=7
 default implementation of scratch files=df  

 ***,Optimization of h2o_2
 memory,1000,m
 gthresh,energy=1.0d-12,orbital=1.0d-10,oneint=1.0d-16,twoint=1.0d-16,optgrad=1.0d-6,compress=1.0d-13
 geomtyp=xyz
 
 bohr
 geometry = {
  C    0.0037121069   -3.4208031241    0.0020113239
  H   -0.9656384934   -2.7326539328   -1.6802091696
  H   -0.9691396552   -2.7312720704    1.6816428486
  H    1.9440557210   -2.7293437332    0.0037478531
  H    0.0055623018   -5.4806139761    0.0028599200
  C   -0.0002343042    3.4226932405   -0.0008057521
  H    0.0110267286    5.4774355877    0.0117935877
  H    0.9537217646    2.7300676431   -1.6838742361
  H    0.9605309350    2.7094665164    1.6697389309
  H   -1.9435971050    2.7550238487   -0.0069053063
 }
 
 basis=AVDZ
 {rhf;maxit,200}
 {ccsd(t);maxit,200}

 Variables initialized (661), CPU time= 0.00 sec
 Commands  initialized (458), CPU time= 0.01 sec, 486 directives.
 Default parameters read. Elapsed time= 0.05 sec

 Checking input...
 Passed
1


                                         ***  PROGRAM SYSTEM MOLPRO  ***
                         Copyright, University College Cardiff Consultants Limited, 2008

                                    Version 2010.1 linked May 16 2016 07:17:05


 **********************************************************************************************************************************
 LABEL *   Optimization of h2o_2                                                         
 Linux-4.4.3/n066(x86_64) 64 bit mpp version                                             DATE: 23-Oct-23          TIME: 10:54:49  
 **********************************************************************************************************************************

 SHA1:             9e8077add272b0f3cad6f7df79ec5211205f459d
 **********************************************************************************************************************************

 THRESHOLDS:

 ZERO    =  1.00D-12  ONEINT  =  1.00D-16  TWOINT  =  1.00D-16  PREFAC  =  1.00D-14  LOCALI  =  1.00D-09  EORDER  =  1.00D-04
 ENERGY  =  1.00D-12  ETEST   =  0.00D+00  EDENS   =  0.00D+00  THRDEDEF=  1.00D-06  GRADIENT=  1.00D-02  STEP    =  1.00D-03
 ORBITAL =  1.00D-10  CIVEC   =  1.00D-05  COEFF   =  1.00D-04  PRINTCI =  5.00D-02  PUNCHCI =  9.90D+01  OPTGRAD =  1.00D-06
 OPTENERG=  1.00D-06  OPTSTEP =  3.00D-04  THRGRAD =  1.00D-10  COMPRESS=  1.00D-13  VARMIN  =  1.00D-07  VARMAX  =  1.00D-03
 THRDOUB =  0.00D+00  THRDIV  =  1.00D-05  THRRED  =  1.00D-07  THRPSP  =  1.00D+00  THRDC   =  1.00D-10  THRCS   =  1.00D-10
 THRNRM  =  1.00D-08  THREQ   =  0.00D+00  THRDE   =  1.00D+00  THRREF  =  1.00D-05  SPARFAC =  1.00D+00  THRDLP  =  1.00D-07
 THRDIA  =  1.00D-10  THRDLS  =  1.00D-07  THRGPS  =  0.00D+00  THRKEX  =  0.00D+00  THRDIS  =  2.00D-01  THRVAR  =  1.00D-10
 THRLOC  =  1.00D-06  THRGAP  =  1.00D-06  THRLOCT = -1.00D+00  THRGAPT = -1.00D+00  THRORB  =  1.00D-06  THRMLTP =  0.00D+00
 THRCPQCI=  1.00D-10  KEXTA   =  0.00D+00  THRCOARS=  0.00D+00  SYMTOL  =  1.00D-06  GRADTOL =  1.00D-06  THROVL  =  1.00D-08
 THRORTH =  1.00D-08  GRID    =  1.00D-06  GRIDMAX =  1.00D-03  DTMAX   =  0.00D+00

 SETTING GEOMTYP        =    XYZ
 ZUNIT=BOHR
 

 Variable memory set to 1000000000 words,  buffer space   230000 words

 SETTING BASIS          =    AVDZ


 Recomputing integrals since basis changed


 Using spherical harmonics

 Library entry C      S aug-cc-pVDZ          selected for orbital group  1
 Library entry C      P aug-cc-pVDZ          selected for orbital group  1
 Library entry C      D aug-cc-pVDZ          selected for orbital group  1
 Library entry H      S aug-cc-pVDZ          selected for orbital group  2
 Library entry H      P aug-cc-pVDZ          selected for orbital group  2

1PROGRAM * SEWARD (Integral evaluation for generally contracted gaussian basis sets)     Author: Roland Lindh, 1990

 Geometry written to block  1 of record 700


 Point group  C1  



 ATOMIC COORDINATES

 NR  ATOM    CHARGE       X              Y              Z

   1  C       6.00    0.003712107   -3.420803124    0.002011324
   2  H       1.00   -0.965638493   -2.732653933   -1.680209170
   3  H       1.00   -0.969139655   -2.731272070    1.681642849
   4  H       1.00    1.944055721   -2.729343733    0.003747853
   5  H       1.00    0.005562302   -5.480613976    0.002859920
   6  C       6.00   -0.000234304    3.422693241   -0.000805752
   7  H       1.00    0.011026729    5.477435588    0.011793588
   8  H       1.00    0.953721765    2.730067643   -1.683874236
   9  H       1.00    0.960530935    2.709466516    1.669738931
  10  H       1.00   -1.943597105    2.755023849   -0.006905306

 Bond lengths in Bohr (Angstrom)

 1-2  2.059867880  1-3  2.059867880  1-4  2.059867094  1-5  2.059811858  6-7  2.054811833
     ( 1.090035136)     ( 1.090035136)     ( 1.090034720)     ( 1.090005490)     ( 1.087359591)

  6- 8  2.054867860   6- 9  2.054867816   6-10  2.054867051
       ( 1.087389239)       ( 1.087389216)       ( 1.087388811)

 Bond angles

  2-1-3  109.37992579   2-1-4  109.37980974   2-1-5  109.56240832   3-1-4  109.37980975

  3-1-5  109.56240830   4-1-5  109.56250042   7-6-8  109.84838555   7-6-9  109.84838624

  7- 6-10  109.27552035   8- 6- 9  109.37942708   8- 6-10  109.09283091   9- 6-10  109.37930786

 NUCLEAR CHARGE:                   20
 NUMBER OF PRIMITIVE AOS:         162
 NUMBER OF SYMMETRY AOS:          158
 NUMBER OF CONTRACTIONS:          118   ( 118A   )
 NUMBER OF CORE ORBITALS:           2   (   2A   )
 NUMBER OF VALENCE ORBITALS:       16   (  16A   )


 NUCLEAR REPULSION ENERGY   41.37756064


 Eigenvalues of metric

         1 0.369E-03 0.568E-03 0.569E-03 0.608E-03 0.725E-03 0.725E-03 0.776E-03 0.101E-02


 Contracted 2-electron integrals neglected if value below      1.0D-16
 AO integral compression algorithm  1   Integral accuracy      1.0D-16

     213.647 MB (compressed) written to integral file ( 93.4%)

     Node minimum: 213.647 MB, node maximum: 213.647 MB


 NUMBER OF SORTED TWO-ELECTRON INTEGRALS:   24650731.     BUFFER LENGTH:  32768
 NUMBER OF SEGMENTS:   2  SEGMENT LENGTH:   15997996      RECORD LENGTH: 524288

 Memory used in sort:      16.56 MW

 SORT1 READ    28594353. AND WROTE    24460856. INTEGRALS IN     71 RECORDS. CPU TIME:     0.28 SEC, REAL TIME:     0.41 SEC
 SORT2 READ    24460856. AND WROTE    24650731. INTEGRALS IN    815 RECORDS. CPU TIME:     0.22 SEC, REAL TIME:     0.33 SEC

 FILE SIZES:   FILE 1:   190.3 MBYTE,  FILE 4:   297.8 MBYTE,   TOTAL:    488.1 MBYTE

 OPERATOR DM      FOR CENTER  0  COORDINATES:    0.000000    0.000000    0.000000


 **********************************************************************************************************************************
 DATASETS  * FILE   NREC   LENGTH (MB)   RECORD NAMES
              1      19      190.48       500      610      700      900      950      970     1000      129      960     1100   
                                          VAR    BASINP    GEOM    SYMINP    ZMAT    AOBASIS   BASIS     P2S    ABASIS      S 
                                         1400     1410     1200     1210     1080     1600     1650     1300     1700   
                                           T        V       H0       H01     AOSYM     SMH    MOLCAS    ERIS     OPER   

 PROGRAMS   *        TOTAL       INT
 CPU TIMES  *         1.61      1.57
 REAL TIME  *         2.15 SEC
 DISK USED  *       702.57 MB      
 GA USED    *         0.00 MB       (max)       0.00 MB       (current)
 **********************************************************************************************************************************

1PROGRAM * RHF-SCF (CLOSED SHELL)       Authors: W. Meyer, H.-J. Werner


 NUMBER OF ELECTRONS:      10+   10-    SPACE SYMMETRY=1    SPIN SYMMETRY: Singlet 
 CONVERGENCE THRESHOLDS:    1.00E-10 (Density)    1.00E-13 (Energy)
 MAX. NUMBER OF ITERATIONS:      200
 INTERPOLATION TYPE:            DIIS
 INTERPOLATION STEPS:              2 (START)      1 (STEP)
 LEVEL SHIFTS:                  0.00 (CLOSED)  0.00 (OPEN) 



 Orbital guess generated from atomic densities. Full valence occupancy:   18

 Molecular orbital dump at record        2100.2

 ITERATION    DDIFF          GRAD             ENERGY        2-EL.EN.            DIPOLE MOMENTS         DIIS
    1      0.000D+00      0.000D+00       -80.36220240    134.863609   -0.00270   -0.00159   -0.00094    0
    2      0.000D+00      0.369D-02       -80.39420517    132.550714   -0.00100   -0.00063   -0.00030    1
    3      0.813D-02      0.137D-02       -80.39819090    133.379328   -0.00132   -0.00077   -0.00040    2
    4      0.257D-02      0.371D-03       -80.39877812    133.249043   -0.00117   -0.00068   -0.00034    3
    5      0.869D-03      0.457D-04       -80.39878684    133.255930   -0.00115   -0.00066   -0.00033    4
    6      0.877D-04      0.298D-05       -80.39878689    133.255763   -0.00114   -0.00066   -0.00032    5
    7      0.107D-04      0.348D-06       -80.39878689    133.255747   -0.00114   -0.00066   -0.00032    5
    8      0.165D-05      0.120D-06       -80.39878689    133.255745   -0.00114   -0.00066   -0.00032    5
    9      0.364D-06      0.159D-07       -80.39878689    133.255745   -0.00114   -0.00066   -0.00032    5
   10      0.110D-06      0.221D-08       -80.39878689    133.255746   -0.00114   -0.00066   -0.00032    5
   11      0.603D-08      0.279D-09       -80.39878689    133.255746   -0.00114   -0.00066   -0.00032    5
   12      0.105D-08      0.721D-10       -80.39878689    133.255746   -0.00114   -0.00066   -0.00032    6
   13      0.410D-09      0.239D-10       -80.39878689    133.255746   -0.00114   -0.00066   -0.00032    6
   14      0.745D-10      0.356D-11       -80.39878689    133.255746   -0.00114   -0.00066   -0.00032    6
   15      0.829D-11      0.770D-12       -80.39878689    133.255746   -0.00114   -0.00066   -0.00032    6
   16      0.487D-11      0.161D-12       -80.39878689    133.255746   -0.00114   -0.00066   -0.00032    6
   17      0.189D-11      0.680D-13       -80.39878689    133.255746   -0.00114   -0.00066   -0.00032    6
   18      0.130D-11      0.393D-13       -80.39878689    133.255746   -0.00114   -0.00066   -0.00032    7
   19      0.674D-12      0.438D-13       -80.39878689    133.255746   -0.00114   -0.00066   -0.00032    8
   20      0.423D-12      0.536D-13       -80.39878689    133.255746   -0.00114   -0.00066   -0.00032    0

 Final occupancy:  10

 !RHF STATE 1.1 Energy                -80.398786889638
 Nuclear energy                        41.37756064
 One-electron energy                 -188.40422045
 Two-electron energy                   66.62787292
 Virial quotient                       -1.00177272
 !RHF STATE 1.1 Dipole moment          -0.00114384    -0.00066152    -0.00032451
 Dipole moment /Debye                  -0.00290716    -0.00168132    -0.00082476

 Orbital energies:

         1.1          2.1          3.1          4.1          5.1          6.1          7.1          8.1          9.1         10.1
    -11.214677   -11.213385    -0.946192    -0.940133    -0.551506    -0.547014    -0.546536    -0.539448    -0.539167    -0.536178

        11.1         12.1
      0.035490     0.045875


 **********************************************************************************************************************************
 DATASETS  * FILE   NREC   LENGTH (MB)   RECORD NAMES
              1      19      190.48       500      610      700      900      950      970     1000      129      960     1100   
                                          VAR    BASINP    GEOM    SYMINP    ZMAT    AOBASIS   BASIS     P2S    ABASIS      S 
                                         1400     1410     1200     1210     1080     1600     1650     1300     1700   
                                           T        V       H0       H01     AOSYM     SMH    MOLCAS    ERIS     OPER   

              2       3        0.70       700     1000     2100   
                                         GEOM     BASIS     RHF  

 PROGRAMS   *        TOTAL       RHF       INT
 CPU TIMES  *         5.39      3.78      1.57
 REAL TIME  *         6.39 SEC
 DISK USED  *       702.57 MB      
 GA USED    *         0.00 MB       (max)       0.00 MB       (current)
 **********************************************************************************************************************************


1PROGRAM * CCSD (Closed-shell coupled cluster)     Authors: C. Hampel, H.-J. Werner, 1991, M. Deegan, P.J. Knowles, 1992


 Convergence thresholds:  THRVAR = 1.00D-08  THRDEN = 1.00D-12

 CCSD(T)     terms to be evaluated (factor= 1.000)


 Number of core orbitals:           2 (   2 )
 Number of closed-shell orbitals:   8 (   8 )
 Number of external orbitals:     108 ( 108 )

 Molecular orbitals read from record     2100.2  Type=RHF/CANONICAL (state 1.1)

 Number of N-1 electron functions:               8
 Number of N-2 electron functions:              36
 Number of singly external CSFs:               864
 Number of doubly external CSFs:            373680
 Total number of CSFs:                      374545

 Length of J-op  integral file:               0.00 MB
 Length of K-op  integral file:               1.00 MB
 Length of 3-ext integral record:             0.00 MB

 Memory could be reduced to 14.62 Mwords without degradation in triples

 Integral transformation finished. Total CPU:   0.71 sec, npass=  1  Memory used:   8.61 MW

 Reference energy:                    -80.39878689

 MP2 singlet pair energy:              -0.24094491
 MP2 triplet pair energy:              -0.09675912
 MP2 correlation energy:               -0.33770403
 MP2 total energy:                    -80.73649092

 SCS-MP2 correlation energy:           -0.34933957   (PS=  1.200000  PT=  0.333333)
 SCS-MP2 total energy:                -80.74812646

 ITER.      SQ.NORM     CORR.ENERGY   TOTAL ENERGY   ENERGY CHANGE        DEN1      VAR(S)    VAR(P)  DIIS     TIME
   1      1.14022486    -0.38132603   -80.78011292    -0.04362200    -0.03251098  0.70D-03  0.24D-02  1  1     1.55
   2      1.15322782    -0.38407174   -80.78285863    -0.00274571    -0.01266956  0.16D-04  0.11D-03  2  2     2.46
   3      1.15532580    -0.38420319   -80.78299008    -0.00013145    -0.00112320  0.25D-05  0.71D-05  3  3     3.37
   4      1.15577058    -0.38422121   -80.78300810    -0.00001802    -0.00017603  0.10D-06  0.44D-06  4  4     4.26
   5      1.15584123    -0.38421791   -80.78300480     0.00000330    -0.00003197  0.39D-08  0.30D-07  5  5     5.18
   6      1.15584507    -0.38421691   -80.78300380     0.00000101    -0.00000138  0.28D-09  0.20D-08  6  6     6.09
   7      1.15584545    -0.38421712   -80.78300401    -0.00000022    -0.00000002  0.24D-10  0.13D-09  6  1     6.99
   8      1.15584552    -0.38421714   -80.78300403    -0.00000002    -0.00000006  0.24D-11  0.95D-11  6  2     7.90
   9      1.15584547    -0.38421714   -80.78300403    -0.00000000     0.00000003  0.44D-12  0.74D-12  6  3     8.81
  10      1.15584543    -0.38421714   -80.78300403    -0.00000000     0.00000002  0.34D-13  0.65D-13  6  4     9.72
  11      1.15584540    -0.38421715   -80.78300404    -0.00000000     0.00000002  0.31D-14  0.70D-14  6  5    10.62
  12      1.15584539    -0.38421715   -80.78300404    -0.00000000     0.00000001  0.27D-15  0.84D-15  6  6    11.53
  13      1.15584538    -0.38421715   -80.78300404    -0.00000000     0.00000000  0.22D-16  0.10D-15  6  1    12.44
  14      1.15584538    -0.38421715   -80.78300404    -0.00000000     0.00000000  0.25D-17  0.11D-16  6  3    13.35
  15      1.15584538    -0.38421715   -80.78300404    -0.00000000     0.00000000  0.19D-18  0.59D-18  6  2    14.25
  16      1.15584538    -0.38421715   -80.78300404    -0.00000000     0.00000000  0.26D-19  0.46D-19  6  4    15.14
  17      1.15584538    -0.38421715   -80.78300404    -0.00000000     0.00000000  0.31D-20  0.58D-20  6  5    16.05
  18      1.15584538    -0.38421715   -80.78300404    -0.00000000     0.00000000  0.35D-21  0.48D-21  6  6    16.96

 Norm of t1 vector:      0.03911847      S-energy:     0.00000000      T1 diagnostic:  0.00691523
                                                                       D1 diagnostic:  0.01252204


 Total CPU time for triples:     10.66 sec


 RESULTS
 =======

  Reference energy                    -80.398786889638
  CCSD singlet pair energy             -0.289968761239
  CCSD triplet pair energy             -0.094248386035
  CCSD correlation energy              -0.384217147274

  Triples (T) contribution             -0.009201993380
  Total correlation energy             -0.393419140654

  CCSD total energy                   -80.783004036912
  CCSD[T] energy                      -80.792425901768
  CCSD-T energy                       -80.792089315843
 !CCSD(T) total energy                -80.792206030292

 Timing summary (sec):

 STEP                 CPU(USER)    SYS     CPU(TOT)    WALL
 Transformation          0.73      0.08      0.81      0.82
 CCSD iterations        16.23      0.75     16.98     17.02
 Triples                10.66      0.21     10.87     10.87

 Program statistics:

 Available memory in ccsd:               999999644
 Min. memory needed in ccsd:               1156281
 Max. memory used in ccsd:                 1468601
 Max. memory used in cckext:               1135046 (18 integral passes)



 **********************************************************************************************************************************
 DATASETS  * FILE   NREC   LENGTH (MB)   RECORD NAMES
              1      20      237.46       500      610      700      900      950      970     1000      129      960     1100   
                                          VAR    BASINP    GEOM    SYMINP    ZMAT    AOBASIS   BASIS     P2S    ABASIS      S 
                                         1400     1410     1200     1210     1080     1600     1650     1300     1700     1380   
                                           T        V       H0       H01     AOSYM     SMH    MOLCAS    ERIS     OPER     JKOP   

              2       3        0.70       700     1000     2100   
                                         GEOM     BASIS     RHF  

 PROGRAMS   *        TOTAL   CCSD(T)       RHF       INT
 CPU TIMES  *        33.03     27.64      3.78      1.57
 REAL TIME  *        35.13 SEC
 DISK USED  *       702.57 MB      
 GA USED    *         0.00 MB       (max)       0.00 MB       (current)
 **********************************************************************************************************************************

        CCSD(T)         RHF-SCF 
    -80.79220603    -80.39878689
 **********************************************************************************************************************************
 Variable memory released
