
 Primary working directories    : /tmp/1011018.365.gen5.q
 Secondary working directories  : /tmp/1011018.365.gen5.q
 Wavefunction directory         : /home/vulcan/mel64643/wfu/
 Main file repository           : /tmp/1011018.365.gen5.q/

 ARCHNAME  : Linux/x86_64
 FC        : /opt/intel/compilers_and_libraries_2016.1.150/linux/bin/intel64/ifort
 FCVERSION : 16.0.1
 BLASLIB   : -mkl
 id        : ccgc

 Nodes     nprocs
 n071         1
 ga_uses_ma=false, calling ma_init with nominal heap.
 GA-space will be limited to   8.0 MW (determined by -G option)

 Using customized tuning parameters: mindgm=10; mindgv=16; mindgc=4; mindgr=1; noblas=0; mincuda=1000; minvec=7
 default implementation of scratch files=df  

 ***,Optimization of ethene_ethyne
 memory,1000,m
 gthresh,energy=1.0d-12,orbital=1.0d-10,oneint=1.0d-16,twoint=1.0d-16,optgrad=1.0d-6,compress=1.0d-13
 geomtyp=xyz
 
 
 
 bohr
 geometry = {
  C   -0.0000003329   -1.2618279087   -3.9722420198
  C   -0.0000003332    1.2679337887   -3.9714479873
  H    1.7416786679   -2.3403422038   -3.9742616428
  H   -1.7416793281   -2.3403422027   -3.9742669639
  H   -1.7478770859    2.3363756352   -3.9727833726
  H    1.7478764242    2.3363756340   -3.9727780326
  C    0.0000006126    0.0000954209    5.4004256018
  C    0.0000003817    0.0008175472    3.1120333397
  H    0.0000001783    0.0014535212    1.0966549680
  H    0.0000008155   -0.0005392320    7.4116175606
  X    2.0000000000    0.0000000000    5.4004221540
  X    0.0000000000    2.0000000000    5.4004221540
  X    2.0000000000    0.0000000000    3.1120297780
  X    0.0000000000    2.0000000000    3.1120297780
 }
 
 basis=aug-cc-pvdz, H=cc-pvdz
 {rhf;maxit,200}
 {mp2}

 Variables initialized (661), CPU time= 0.01 sec
 Commands  initialized (458), CPU time= 0.01 sec, 486 directives.
 Default parameters read. Elapsed time= 0.10 sec

 Checking input...
 Passed
1


                                         ***  PROGRAM SYSTEM MOLPRO  ***
                         Copyright, University College Cardiff Consultants Limited, 2008

                                    Version 2010.1 linked May 16 2016 07:17:05


 **********************************************************************************************************************************
 LABEL *   Optimization of ethene_ethyne                                                 
 Linux-4.4.3/n071(x86_64) 64 bit mpp version                                             DATE: 25-Feb-24          TIME: 03:30:09  
 **********************************************************************************************************************************

 SHA1:             9e8077add272b0f3cad6f7df79ec5211205f459d
 **********************************************************************************************************************************

 THRESHOLDS:

 ZERO    =  1.00D-12  ONEINT  =  1.00D-16  TWOINT  =  1.00D-16  PREFAC  =  1.00D-14  LOCALI  =  1.00D-09  EORDER  =  1.00D-04
 ENERGY  =  1.00D-12  ETEST   =  0.00D+00  EDENS   =  0.00D+00  THRDEDEF=  1.00D-06  GRADIENT=  1.00D-02  STEP    =  1.00D-03
 ORBITAL =  1.00D-10  CIVEC   =  1.00D-05  COEFF   =  1.00D-04  PRINTCI =  5.00D-02  PUNCHCI =  9.90D+01  OPTGRAD =  1.00D-06
 OPTENERG=  1.00D-06  OPTSTEP =  3.00D-04  THRGRAD =  1.00D-10  COMPRESS=  1.00D-13  VARMIN  =  1.00D-07  VARMAX  =  1.00D-03
 THRDOUB =  0.00D+00  THRDIV  =  1.00D-05  THRRED  =  1.00D-07  THRPSP  =  1.00D+00  THRDC   =  1.00D-10  THRCS   =  1.00D-10
 THRNRM  =  1.00D-08  THREQ   =  0.00D+00  THRDE   =  1.00D+00  THRREF  =  1.00D-05  SPARFAC =  1.00D+00  THRDLP  =  1.00D-07
 THRDIA  =  1.00D-10  THRDLS  =  1.00D-07  THRGPS  =  0.00D+00  THRKEX  =  0.00D+00  THRDIS  =  2.00D-01  THRVAR  =  1.00D-10
 THRLOC  =  1.00D-06  THRGAP  =  1.00D-06  THRLOCT = -1.00D+00  THRGAPT = -1.00D+00  THRORB  =  1.00D-06  THRMLTP =  0.00D+00
 THRCPQCI=  1.00D-10  KEXTA   =  0.00D+00  THRCOARS=  0.00D+00  SYMTOL  =  1.00D-06  GRADTOL =  1.00D-06  THROVL  =  1.00D-08
 THRORTH =  1.00D-08  GRID    =  1.00D-06  GRIDMAX =  1.00D-03  DTMAX   =  0.00D+00

 SETTING GEOMTYP        =    XYZ
 ZUNIT=BOHR
 

 Variable memory set to 1000000000 words,  buffer space   230000 words

 SETTING BASIS          =    AUG-CC-PVDZ,H=CC-PVDZ


 Recomputing integrals since basis changed


 Using spherical harmonics

 Library entry C      S aug-cc-pVDZ          selected for orbital group  1
 Library entry C      P aug-cc-pVDZ          selected for orbital group  1
 Library entry C      D aug-cc-pVDZ          selected for orbital group  1
 Library entry H      S cc-pVDZ              selected for orbital group  2
 Library entry H      P cc-pVDZ              selected for orbital group  2

1PROGRAM * SEWARD (Integral evaluation for generally contracted gaussian basis sets)     Author: Roland Lindh, 1990

 Geometry written to block  1 of record 700


 Point group  C1  



 ATOMIC COORDINATES

 NR  ATOM    CHARGE       X              Y              Z

   1  C       6.00   -0.000000333   -1.261827909   -3.972242020
   2  C       6.00   -0.000000333    1.267933789   -3.971447987
   3  H       1.00    1.741678668   -2.340342204   -3.974261643
   4  H       1.00   -1.741679328   -2.340342203   -3.974266964
   5  H       1.00   -1.747877086    2.336375635   -3.972783373
   6  H       1.00    1.747876424    2.336375634   -3.972778033
   7  C       6.00    0.000000613    0.000095421    5.400425602
   8  C       6.00    0.000000382    0.000817547    3.112033340
   9  H       1.00    0.000000178    0.001453521    1.096654968
  10  H       1.00    0.000000815   -0.000539232    7.411617561

 Bond lengths in Bohr (Angstrom)

 1-2  2.529761822  1-3  2.048570942  1-4  2.048570942  2-5  2.048570942  2-6  2.048570942
     ( 1.338692300)     ( 1.084057054)     ( 1.084057054)     ( 1.084057054)     ( 1.084057054)

  7- 8  2.288392376   7-10  2.011192059   8- 9  2.015378472
       ( 1.210965091)       ( 1.064277001)       ( 1.066492355)

 Bond angles

  1-2-5  121.43658155   1-2-6  121.43658156   2-1-3  121.76737852   2-1-4  121.76737853

  3- 1- 4  116.46515648   5- 2- 6  117.12675152   7- 8- 9  180.00000000   8- 7-10  180.00000000

 NUCLEAR CHARGE:                   30
 NUMBER OF PRIMITIVE AOS:         190
 NUMBER OF SYMMETRY AOS:          182
 NUMBER OF CONTRACTIONS:          122   ( 122A   )
 NUMBER OF CORE ORBITALS:           4   (   4A   )
 NUMBER OF VALENCE ORBITALS:       22   (  22A   )


 NUCLEAR REPULSION ENERGY   85.48890321


 Eigenvalues of metric

         1 0.820E-04 0.172E-03 0.227E-03 0.269E-03 0.292E-02 0.484E-02 0.498E-02 0.575E-02


 Contracted 2-electron integrals neglected if value below      1.0D-16
 AO integral compression algorithm  1   Integral accuracy      1.0D-16

     194.511 MB (compressed) written to integral file ( 74.1%)

     Node minimum: 194.511 MB, node maximum: 194.511 MB


 NUMBER OF SORTED TWO-ELECTRON INTEGRALS:   28151256.     BUFFER LENGTH:  32768
 NUMBER OF SEGMENTS:   2  SEGMENT LENGTH:   15997996      RECORD LENGTH: 524288

 Memory used in sort:      16.56 MW

 SORT1 READ    32800823. AND WROTE    26944869. INTEGRALS IN     78 RECORDS. CPU TIME:     0.38 SEC, REAL TIME:     0.56 SEC
 SORT2 READ    26944869. AND WROTE    28151256. INTEGRALS IN    742 RECORDS. CPU TIME:     0.34 SEC, REAL TIME:     0.47 SEC

 FILE SIZES:   FILE 1:   171.0 MBYTE,  FILE 4:   327.2 MBYTE,   TOTAL:    498.2 MBYTE

 OPERATOR DM      FOR CENTER  0  COORDINATES:    0.000000    0.000000    0.000000


 **********************************************************************************************************************************
 DATASETS  * FILE   NREC   LENGTH (MB)   RECORD NAMES
              1      19      171.23       500      610      700      900      950      970     1000      129      960     1100   
                                          VAR    BASINP    GEOM    SYMINP    ZMAT    AOBASIS   BASIS     P2S    ABASIS      S 
                                         1400     1410     1200     1210     1080     1600     1650     1300     1700   
                                           T        V       H0       H01     AOSYM     SMH    MOLCAS    ERIS     OPER   

 PROGRAMS   *        TOTAL       INT
 CPU TIMES  *         3.02      2.89
 REAL TIME  *         3.98 SEC
 DISK USED  *       693.67 MB      
 GA USED    *         0.00 MB       (max)       0.00 MB       (current)
 **********************************************************************************************************************************

1PROGRAM * RHF-SCF (CLOSED SHELL)       Authors: W. Meyer, H.-J. Werner


 NUMBER OF ELECTRONS:      15+   15-    SPACE SYMMETRY=1    SPIN SYMMETRY: Singlet 
 CONVERGENCE THRESHOLDS:    1.00E-10 (Density)    1.00E-13 (Energy)
 MAX. NUMBER OF ITERATIONS:      200
 INTERPOLATION TYPE:            DIIS
 INTERPOLATION STEPS:              2 (START)      1 (STEP)
 LEVEL SHIFTS:                  0.00 (CLOSED)  0.00 (OPEN) 



 Orbital guess generated from atomic densities. Full valence occupancy:   26

 Molecular orbital dump at record        2100.2

 ITERATION    DDIFF          GRAD             ENERGY        2-EL.EN.            DIPOLE MOMENTS         DIIS
    1      0.000D+00      0.000D+00      -154.83513559    273.367706   -0.00000   -0.00160   -0.05894    0
    2      0.000D+00      0.346D-02      -154.86716712    271.020022   -0.00000   -0.00129   -0.14639    1
    3      0.840D-02      0.108D-02      -154.87010115    271.917044   -0.00000   -0.00121   -0.12242    2
    4      0.209D-02      0.311D-03      -154.87049186    271.705335   -0.00000   -0.00132   -0.14226    3
    5      0.868D-03      0.645D-04      -154.87050414    271.722252   -0.00000   -0.00126   -0.13500    4
    6      0.155D-03      0.290D-04      -154.87050621    271.722759   -0.00000   -0.00130   -0.14005    5
    7      0.494D-04      0.636D-05      -154.87050635    271.722186   -0.00000   -0.00131   -0.13976    6
    8      0.153D-04      0.146D-05      -154.87050636    271.722098   -0.00000   -0.00131   -0.13998    7
    9      0.391D-05      0.356D-06      -154.87050636    271.722136   -0.00000   -0.00131   -0.14001    7
   10      0.120D-05      0.524D-07      -154.87050636    271.722133   -0.00000   -0.00131   -0.14002    7
   11      0.215D-06      0.140D-07      -154.87050636    271.722135   -0.00000   -0.00131   -0.14002    7
   12      0.415D-07      0.793D-08      -154.87050636    271.722136   -0.00000   -0.00131   -0.14002    6
   13      0.170D-07      0.415D-08      -154.87050636    271.722135   -0.00000   -0.00131   -0.14002    7
   14      0.165D-07      0.178D-08      -154.87050636    271.722136   -0.00000   -0.00131   -0.14002    7
   15      0.814D-08      0.655D-09      -154.87050636    271.722136   -0.00000   -0.00131   -0.14002    8
   16      0.319D-08      0.188D-09      -154.87050636    271.722135   -0.00000   -0.00131   -0.14002    8
   17      0.416D-09      0.687D-10      -154.87050636    271.722136   -0.00000   -0.00131   -0.14002    8
   18      0.166D-09      0.264D-10      -154.87050636    271.722135   -0.00000   -0.00131   -0.14002    9
   19      0.829D-10      0.901D-11      -154.87050636    271.722135   -0.00000   -0.00131   -0.14002    9
   20      0.302D-10      0.274D-11      -154.87050636    271.722135   -0.00000   -0.00131   -0.14002    9
   21      0.127D-10      0.569D-12      -154.87050636    271.722135   -0.00000   -0.00131   -0.14002    8
   22      0.486D-11      0.193D-12      -154.87050636    271.722135   -0.00000   -0.00131   -0.14002    8
   23      0.225D-11      0.861D-13      -154.87050636    271.722135   -0.00000   -0.00131   -0.14002    8
   24      0.267D-11      0.773D-13      -154.87050636    271.722135   -0.00000   -0.00131   -0.14002    9
   25      0.154D-11      0.475D-13      -154.87050636    271.722135   -0.00000   -0.00131   -0.14002    9
   26      0.811D-12      0.636D-13      -154.87050636    271.722135   -0.00000   -0.00131   -0.14002    9
   27      0.668D-12      0.424D-13      -154.87050636    271.722135   -0.00000   -0.00131   -0.14002    0

 Final occupancy:  15

 !RHF STATE 1.1 Energy               -154.870506362981
 Nuclear energy                        85.48890321
 One-electron energy                 -376.22047732
 Two-electron energy                  135.86106775
 Virial quotient                       -1.00221002
 !RHF STATE 1.1 Dipole moment          -0.00000006    -0.00131292    -0.14002236
 Dipole moment /Debye                  -0.00000015    -0.00333688    -0.35587804

 Orbital energies:

         1.1          2.1          3.1          4.1          5.1          6.1          7.1          8.1          9.1         10.1
    -11.250511   -11.248895   -11.248302   -11.244660    -1.044413    -1.024291    -0.803188    -0.760430    -0.671739    -0.650797

        11.1         12.1         13.1         14.1         15.1         16.1         17.1
     -0.595889    -0.515445    -0.402052    -0.402048    -0.386512     0.065089     0.065106


 **********************************************************************************************************************************
 DATASETS  * FILE   NREC   LENGTH (MB)   RECORD NAMES
              1      19      171.23       500      610      700      900      950      970     1000      129      960     1100   
                                          VAR    BASINP    GEOM    SYMINP    ZMAT    AOBASIS   BASIS     P2S    ABASIS      S 
                                         1400     1410     1200     1210     1080     1600     1650     1300     1700   
                                           T        V       H0       H01     AOSYM     SMH    MOLCAS    ERIS     OPER   

              2       3        0.79       700     1000     2100   
                                         GEOM     BASIS     RHF  

 PROGRAMS   *        TOTAL       RHF       INT
 CPU TIMES  *         9.61      6.59      2.89
 REAL TIME  *        11.21 SEC
 DISK USED  *       693.67 MB      
 GA USED    *         0.00 MB       (max)       0.00 MB       (current)
 **********************************************************************************************************************************


1PROGRAM * MP2 (Closed-shell)     Authors: C. Hampel, H.-J. Werner, 1991, M. Deegan, P.J. Knowles, 1992


 Convergence thresholds:  THRVAR = 1.00D-08  THRDEN = 1.00D-12

 Number of core orbitals:           4 (   4 )
 Number of closed-shell orbitals:  11 (  11 )
 Number of external orbitals:     107 ( 107 )

 Molecular orbitals read from record     2100.2  Type=RHF/CANONICAL (state 1.1)

 Number of N-1 electron functions:              11
 Number of N-2 electron functions:              66
 Number of singly external CSFs:              1177
 Number of doubly external CSFs:            693253
 Total number of CSFs:                      694431

 Length of J-op  integral file:               0.00 MB
 Length of K-op  integral file:               1.06 MB

 Integral transformation finished. Total CPU:   0.48 sec, npass=  1  Memory used:   1.98 MW

 Memory needed for MP2:                      0.07 MW

 SCS-MP2 correlation energy:           -0.548021529524   (PS=  1.200000  PT=  0.333333)
 SCS-MP2 total energy:               -155.418527892505


  Reference energy                   -154.870506362981
  MP2 singlet pair energy              -0.357834387187
  MP2 triplet pair energy              -0.190639711444
  MP2 correlation energy               -0.548474098632

 !MP2 total energy                   -155.418980461613


 **********************************************************************************************************************************
 DATASETS  * FILE   NREC   LENGTH (MB)   RECORD NAMES
              1      20      183.36       500      610      700      900      950      970     1000      129      960     1100   
                                          VAR    BASINP    GEOM    SYMINP    ZMAT    AOBASIS   BASIS     P2S    ABASIS      S 
                                         1400     1410     1200     1210     1080     1600     1650     1300     1700     1380   
                                           T        V       H0       H01     AOSYM     SMH    MOLCAS    ERIS     OPER     JKOP   

              2       3        0.79       700     1000     2100   
                                         GEOM     BASIS     RHF  

 PROGRAMS   *        TOTAL       MP2       RHF       INT
 CPU TIMES  *        10.14      0.53      6.59      2.89
 REAL TIME  *        11.82 SEC
 DISK USED  *       693.67 MB      
 GA USED    *         0.00 MB       (max)       0.00 MB       (current)
 **********************************************************************************************************************************

        MP2             RHF-SCF 
   -155.41898046   -154.87050636
 **********************************************************************************************************************************
 Variable memory released
