
 Primary working directories    : /tmp/879303.218.gen6.q
 Secondary working directories  : /tmp/879303.218.gen6.q
 Wavefunction directory         : /home/vulcan/lo21740/wfu/
 Main file repository           : /tmp/879303.218.gen6.q/

 ARCHNAME  : Linux/x86_64
 FC        : /opt/intel/compilers_and_libraries_2016.1.150/linux/bin/intel64/ifort
 FCVERSION : 16.0.1
 BLASLIB   : -mkl
 id        : ccgc

 Nodes     nprocs
 n091         1
 ga_uses_ma=false, calling ma_init with nominal heap.
 GA-space will be limited to   8.0 MW (determined by -G option)

 Using customized tuning parameters: mindgm=10; mindgv=16; mindgc=4; mindgr=1; noblas=0; mincuda=1000; minvec=7
 default implementation of scratch files=df  

 ***,Optimization of formamide
 memory,1000,m
 gthresh,energy=1.0d-12,orbital=1.0d-10,oneint=1.0d-16,twoint=1.0d-16,optgrad=1.0d-6,compress=1.0d-13
 geomtyp=xyz
 
 bohr
 geometry = {
  C   -3.8247539634    0.0854656968   -0.0016211723
  O   -2.7307174910    2.1393406336    0.0001638117
  N   -2.6819488172   -2.1773906264    0.0006935028
  H   -3.7443648496   -3.7499064422   -0.0003885748
  H   -0.7508309060   -2.3051853197    0.0006399321
  H   -5.9003337466   -0.0263160019    0.0005125005
  C    3.8247539634   -0.0854656968   -0.0016211723
  O    2.7307174910   -2.1393406336    0.0001638117
  N    2.6819488172    2.1773906264    0.0006935028
  H    3.7443648496    3.7499064422   -0.0003885748
  H    0.7508309060    2.3051853197    0.0006399321
  H    5.9003337466    0.0263160019    0.0005125005
 }
 
 basis=AVDZ, H=VDZ
 {rhf;maxit,200}
 {ccsd(t);maxit,200}

 Variables initialized (661), CPU time= 0.01 sec
 Commands  initialized (458), CPU time= 0.00 sec, 486 directives.
 Default parameters read. Elapsed time= 0.04 sec

 Checking input...
 Passed
1


                                         ***  PROGRAM SYSTEM MOLPRO  ***
                         Copyright, University College Cardiff Consultants Limited, 2008

                                    Version 2010.1 linked May 16 2016 07:17:05


 **********************************************************************************************************************************
 LABEL *   Optimization of formamide                                                     
 Linux-4.4.3/n091(x86_64) 64 bit mpp version                                             DATE: 23-May-23          TIME: 14:26:37  
 **********************************************************************************************************************************

 SHA1:             9e8077add272b0f3cad6f7df79ec5211205f459d
 **********************************************************************************************************************************

 THRESHOLDS:

 ZERO    =  1.00D-12  ONEINT  =  1.00D-16  TWOINT  =  1.00D-16  PREFAC  =  1.00D-14  LOCALI  =  1.00D-09  EORDER  =  1.00D-04
 ENERGY  =  1.00D-12  ETEST   =  0.00D+00  EDENS   =  0.00D+00  THRDEDEF=  1.00D-06  GRADIENT=  1.00D-02  STEP    =  1.00D-03
 ORBITAL =  1.00D-10  CIVEC   =  1.00D-05  COEFF   =  1.00D-04  PRINTCI =  5.00D-02  PUNCHCI =  9.90D+01  OPTGRAD =  1.00D-06
 OPTENERG=  1.00D-06  OPTSTEP =  3.00D-04  THRGRAD =  1.00D-10  COMPRESS=  1.00D-13  VARMIN  =  1.00D-07  VARMAX  =  1.00D-03
 THRDOUB =  0.00D+00  THRDIV  =  1.00D-05  THRRED  =  1.00D-07  THRPSP  =  1.00D+00  THRDC   =  1.00D-10  THRCS   =  1.00D-10
 THRNRM  =  1.00D-08  THREQ   =  0.00D+00  THRDE   =  1.00D+00  THRREF  =  1.00D-05  SPARFAC =  1.00D+00  THRDLP  =  1.00D-07
 THRDIA  =  1.00D-10  THRDLS  =  1.00D-07  THRGPS  =  0.00D+00  THRKEX  =  0.00D+00  THRDIS  =  2.00D-01  THRVAR  =  1.00D-10
 THRLOC  =  1.00D-06  THRGAP  =  1.00D-06  THRLOCT = -1.00D+00  THRGAPT = -1.00D+00  THRORB  =  1.00D-06  THRMLTP =  0.00D+00
 THRCPQCI=  1.00D-10  KEXTA   =  0.00D+00  THRCOARS=  0.00D+00  SYMTOL  =  1.00D-06  GRADTOL =  1.00D-06  THROVL  =  1.00D-08
 THRORTH =  1.00D-08  GRID    =  1.00D-06  GRIDMAX =  1.00D-03  DTMAX   =  0.00D+00

 SETTING GEOMTYP        =    XYZ
 ZUNIT=BOHR
 

 Variable memory set to 1000000000 words,  buffer space   230000 words

 SETTING BASIS          =    AVDZ,H=VDZ


 Recomputing integrals since basis changed


 Using spherical harmonics

 Library entry C      S aug-cc-pVDZ          selected for orbital group  1
 Library entry C      P aug-cc-pVDZ          selected for orbital group  1
 Library entry C      D aug-cc-pVDZ          selected for orbital group  1
 Library entry O      S aug-cc-pVDZ          selected for orbital group  2
 Library entry O      P aug-cc-pVDZ          selected for orbital group  2
 Library entry O      D aug-cc-pVDZ          selected for orbital group  2
 Library entry N      S aug-cc-pVDZ          selected for orbital group  3
 Library entry N      P aug-cc-pVDZ          selected for orbital group  3
 Library entry N      D aug-cc-pVDZ          selected for orbital group  3
 Library entry H      S cc-pVDZ              selected for orbital group  4
 Library entry H      P cc-pVDZ              selected for orbital group  4

1PROGRAM * SEWARD (Integral evaluation for generally contracted gaussian basis sets)     Author: Roland Lindh, 1990

 Geometry written to block  1 of record 700


 Point group  C2  



 ATOMIC COORDINATES

 NR  ATOM    CHARGE       X              Y              Z

   1  C       6.00   -3.824753963    0.085465697   -0.001621172
   2  C       6.00    3.824753963   -0.085465697   -0.001621172
   3  O       8.00   -2.730717491    2.139340634    0.000163812
   4  O       8.00    2.730717491   -2.139340634    0.000163812
   5  N       7.00   -2.681948817   -2.177390626    0.000693503
   6  N       7.00    2.681948817    2.177390626    0.000693503
   7  H       1.00   -3.744364850   -3.749906442   -0.000388575
   8  H       1.00    3.744364850    3.749906442   -0.000388575
   9  H       1.00   -0.750830906   -2.305185320    0.000639932
  10  H       1.00    0.750830906    2.305185320    0.000639932
  11  H       1.00   -5.900333747   -0.026316002    0.000512500
  12  H       1.00    5.900333747    0.026316002    0.000512500

 Bond lengths in Bohr (Angstrom)

  1- 3  2.327084280   1- 5  2.535059703   1-11  2.078588737   2- 4  2.327084280   2- 6  2.535059703
       ( 1.231439964)       ( 1.341495818)       ( 1.099941786)       ( 1.231439964)       ( 1.341495818)

  2-12  2.078588737   5- 7  1.897771058   5- 9  1.935341798   6- 8  1.897771058   6-10  1.935341798
       ( 1.099941786)       ( 1.004257192)       ( 1.024138771)       ( 1.004257192)       ( 1.024138771)

 Bond angles

  1- 5- 7  119.16133718   1- 5- 9  120.58114058   2- 6- 8  119.16133718   2- 6-10  120.58114058

  3- 1- 5  125.16201608   3- 1-11  121.12550774   4- 2- 6  125.16201608   4- 2-12  121.12550774

  5- 1-11  113.71223489   6- 2-12  113.71223489   7- 5- 9  120.25744725   8- 6-10  120.25744725

 NUCLEAR CHARGE:                   48
 NUMBER OF PRIMITIVE AOS:         264
 NUMBER OF SYMMETRY AOS:          252
 NUMBER OF CONTRACTIONS:          168   (  84A   +  84B   )
 NUMBER OF CORE ORBITALS:           6   (   3A   +   3B   )
 NUMBER OF VALENCE ORBITALS:       30   (  15A   +  15B   )


 NUCLEAR REPULSION ENERGY  230.56734873


 Eigenvalues of metric

         1 0.624E-03 0.114E-02 0.161E-02 0.365E-02 0.514E-02 0.791E-02 0.798E-02 0.901E-02
         2 0.415E-03 0.134E-02 0.168E-02 0.437E-02 0.526E-02 0.717E-02 0.811E-02 0.107E-01


 Contracted 2-electron integrals neglected if value below      1.0D-16
 AO integral compression algorithm  1   Integral accuracy      1.0D-16

     474.743 MB (compressed) written to integral file ( 91.5%)

     Node minimum: 474.743 MB, node maximum: 474.743 MB


 NUMBER OF SORTED TWO-ELECTRON INTEGRALS:   50983170.     BUFFER LENGTH:  32768
 NUMBER OF SEGMENTS:   4  SEGMENT LENGTH:   15993600      RECORD LENGTH: 524288

 Memory used in sort:      16.55 MW

 SORT1 READ    64801056. AND WROTE    50540689. INTEGRALS IN    147 RECORDS. CPU TIME:     0.59 SEC, REAL TIME:     0.93 SEC
 SORT2 READ    50540689. AND WROTE    50983170. INTEGRALS IN   1811 RECORDS. CPU TIME:     0.51 SEC, REAL TIME:     0.69 SEC

 FILE SIZES:   FILE 1:   387.7 MBYTE,  FILE 4:   616.6 MBYTE,   TOTAL:   1004.3 MBYTE

 OPERATOR DM      FOR CENTER  0  COORDINATES:    0.000000    0.000000    0.000000


 **********************************************************************************************************************************
 DATASETS  * FILE   NREC   LENGTH (MB)   RECORD NAMES
              1      19      387.92       500      610      700      900      950      970     1000      129      960     1100   
                                          VAR    BASINP    GEOM    SYMINP    ZMAT    AOBASIS   BASIS     P2S    ABASIS      S 
                                         1400     1410     1200     1210     1080     1600     1650     1300     1700   
                                           T        V       H0       H01     AOSYM     SMH    MOLCAS    ERIS     OPER   

 PROGRAMS   *        TOTAL       INT
 CPU TIMES  *         3.73      3.69
 REAL TIME  *         4.65 SEC
 DISK USED  *         1.48 GB      
 GA USED    *         0.00 MB       (max)       0.00 MB       (current)
 **********************************************************************************************************************************

1PROGRAM * RHF-SCF (CLOSED SHELL)       Authors: W. Meyer, H.-J. Werner


 NUMBER OF ELECTRONS:      24+   24-
 CONVERGENCE THRESHOLDS:    1.00E-10 (Density)    1.00E-13 (Energy)
 MAX. NUMBER OF ITERATIONS:      200
 INTERPOLATION TYPE:            DIIS
 INTERPOLATION STEPS:              2 (START)      1 (STEP)
 LEVEL SHIFTS:                  0.00 (CLOSED)  0.00 (OPEN) 



 Orbital guess generated from atomic densities. Full valence occupancy:   18  18

 Molecular orbital dump at record        2100.2

 Initial alpha occupancy:  12  12
 Initial beta  occupancy:  12  12
 Wave function symmetry:    1

 ITERATION    DDIFF          GRAD             ENERGY        2-EL.EN.            DIPOLE MOMENTS         DIIS
    1      0.000D+00      0.000D+00      -337.80402723    704.794352    0.00000    0.00000   -0.00398    0
    2      0.000D+00      0.907D-02      -337.88147585    699.185948    0.00000    0.00000   -0.00041    1
    3      0.173D-01      0.661D-02      -337.93921912    701.926544    0.00000    0.00000   -0.00177    2
    4      0.685D-02      0.873D-03      -337.94142557    701.830472    0.00000    0.00000   -0.00188    3
    5      0.151D-02      0.299D-03      -337.94169095    701.764444    0.00000    0.00000   -0.00181    4
    6      0.541D-03      0.982D-04      -337.94175136    701.789984    0.00000    0.00000   -0.00184    5
    7      0.233D-03      0.434D-04      -337.94176216    701.781232    0.00000    0.00000   -0.00185    6
    8      0.115D-03      0.129D-04      -337.94176309    701.786705    0.00000    0.00000   -0.00184    7
    9      0.356D-04      0.388D-05      -337.94176316    701.784253    0.00000    0.00000   -0.00184    8
   10      0.952D-05      0.135D-05      -337.94176317    701.784798    0.00000    0.00000   -0.00184    7
   11      0.396D-05      0.324D-06      -337.94176317    701.784726    0.00000    0.00000   -0.00184    8
   12      0.916D-06      0.482D-07      -337.94176317    701.784733    0.00000    0.00000   -0.00184    7
   13      0.141D-06      0.114D-07      -337.94176317    701.784734    0.00000    0.00000   -0.00184    7
   14      0.353D-07      0.210D-08      -337.94176317    701.784733    0.00000    0.00000   -0.00184    6
   15      0.502D-08      0.922D-09      -337.94176317    701.784734    0.00000    0.00000   -0.00184    6
   16      0.189D-08      0.316D-09      -337.94176317    701.784734    0.00000    0.00000   -0.00184    7
   17      0.587D-09      0.748D-10      -337.94176317    701.784734    0.00000    0.00000   -0.00184    7
   18      0.169D-09      0.233D-10      -337.94176317    701.784734    0.00000    0.00000   -0.00184    7
   19      0.608D-10      0.785D-11      -337.94176317    701.784734    0.00000    0.00000   -0.00184    7
   20      0.196D-10      0.296D-11      -337.94176317    701.784734    0.00000    0.00000   -0.00184    8
   21      0.843D-11      0.632D-12      -337.94176317    701.784734    0.00000    0.00000   -0.00184    8
   22      0.198D-11      0.248D-12      -337.94176317    701.784734    0.00000    0.00000   -0.00184    7
   23      0.169D-11      0.136D-12      -337.94176317    701.784734    0.00000    0.00000   -0.00184    0

 Final occupancy:  12  12

 !RHF STATE 1.1 Energy               -337.941763169792
 Nuclear energy                       230.56734873
 One-electron energy                 -919.40147874
 Two-electron energy                  350.89236685
 Virial quotient                       -1.00173588
 !RHF STATE 1.1 Dipole moment           0.00000000     0.00000000    -0.00184341
 Dipole moment /Debye                   0.00000000     0.00000000    -0.00468518

 Orbital energies:

         1.1          2.1          3.1          4.1          5.1          6.1          7.1          8.1          9.1         10.1
    -20.540618   -15.589533   -11.368092    -1.389237    -1.213126    -0.861046    -0.750250    -0.645126    -0.619068    -0.573989

        11.1         12.1         13.1         14.1
     -0.454283    -0.409942     0.068749     0.093407

         1.2          2.2          3.2          4.2          5.2          6.2          7.2          8.2          9.2         10.2
    -20.540618   -15.589533   -11.368093    -1.384484    -1.219332    -0.835883    -0.741368    -0.705782    -0.593552    -0.565935

        11.2         12.2         13.2         14.2
     -0.428969    -0.420515     0.067942     0.083233


 **********************************************************************************************************************************
 DATASETS  * FILE   NREC   LENGTH (MB)   RECORD NAMES
              1      19      387.92       500      610      700      900      950      970     1000      129      960     1100   
                                          VAR    BASINP    GEOM    SYMINP    ZMAT    AOBASIS   BASIS     P2S    ABASIS      S 
                                         1400     1410     1200     1210     1080     1600     1650     1300     1700   
                                           T        V       H0       H01     AOSYM     SMH    MOLCAS    ERIS     OPER   

              2       3        0.76       700     1000     2100   
                                         GEOM     BASIS     RHF  

 PROGRAMS   *        TOTAL       RHF       INT
 CPU TIMES  *         9.09      5.36      3.69
 REAL TIME  *        10.92 SEC
 DISK USED  *         1.48 GB      
 GA USED    *         0.00 MB       (max)       0.00 MB       (current)
 **********************************************************************************************************************************


1PROGRAM * CCSD (Closed-shell coupled cluster)     Authors: C. Hampel, H.-J. Werner, 1991, M. Deegan, P.J. Knowles, 1992


 Convergence thresholds:  THRVAR = 1.00D-08  THRDEN = 1.00D-12

 CCSD(T)     terms to be evaluated (factor= 1.000)


 Number of core orbitals:           6 (   3   3 )
 Number of closed-shell orbitals:  18 (   9   9 )
 Number of external orbitals:     144 (  72  72 )

 Molecular orbitals read from record     2100.2  Type=RHF/CANONICAL (state 1.1)

 Number of N-1 electron functions:              18
 Number of N-2 electron functions:             171
 Number of singly external CSFs:              1296
 Number of doubly external CSFs:           1680912
 Total number of CSFs:                     1682209

 Length of J-op  integral file:               0.00 MB
 Length of K-op  integral file:               1.01 MB
 Length of 3-ext integral record:             0.00 MB

 Memory could be reduced to 35.12 Mwords without degradation in triples

 Integral transformation finished. Total CPU:   1.99 sec, npass=  1  Memory used:  19.69 MW

 Reference energy:                   -337.94176317

 MP2 singlet pair energy:              -0.61947193
 MP2 triplet pair energy:              -0.40479705
 MP2 correlation energy:               -1.02426898
 MP2 total energy:                   -338.96603215

 SCS-MP2 correlation energy:           -0.99524003   (PS=  1.200000  PT=  0.333333)
 SCS-MP2 total energy:               -338.93700320

 ITER.      SQ.NORM     CORR.ENERGY   TOTAL ENERGY   ENERGY CHANGE        DEN1      VAR(S)    VAR(P)  DIIS     TIME
   1      1.31854905    -1.05297754  -338.99474071    -0.02870857     0.00237352  0.10D-01  0.60D-02  1  1     5.05
   2      1.34396337    -1.05492353  -338.99668669    -0.00194598    -0.02584457  0.22D-03  0.11D-02  2  2     8.27
   3      1.35651893    -1.05581661  -338.99757978    -0.00089308    -0.00553850  0.22D-03  0.51D-04  3  3    11.49
   4      1.36170246    -1.05555314  -338.99731631     0.00026347    -0.00168260  0.21D-04  0.92D-05  4  4    14.71
   5      1.36381878    -1.05549692  -338.99726009     0.00005622    -0.00044107  0.26D-05  0.11D-05  5  5    17.94
   6      1.36432529    -1.05546755  -338.99723072     0.00002937    -0.00004730  0.24D-06  0.17D-06  6  6    21.18
   7      1.36445231    -1.05545566  -338.99721883     0.00001189    -0.00000763  0.31D-07  0.22D-07  6  2    24.41
   8      1.36447632    -1.05545551  -338.99721868     0.00000015     0.00000000  0.58D-08  0.26D-08  6  1    27.65
   9      1.36447867    -1.05545521  -338.99721838     0.00000030     0.00000183  0.92D-09  0.46D-09  6  4    30.88
  10      1.36448275    -1.05545515  -338.99721832     0.00000006    -0.00000043  0.26D-09  0.46D-10  6  3    34.09
  11      1.36448298    -1.05545523  -338.99721840    -0.00000007     0.00000015  0.39D-10  0.11D-10  6  5    37.32
  12      1.36448278    -1.05545524  -338.99721841    -0.00000002     0.00000009  0.51D-11  0.26D-11  6  6    40.56
  13      1.36448249    -1.05545528  -338.99721845    -0.00000004     0.00000013  0.79D-12  0.34D-12  6  2    43.79
  14      1.36448233    -1.05545529  -338.99721846    -0.00000001     0.00000004  0.10D-12  0.67D-13  6  1    47.04
  15      1.36448227    -1.05545529  -338.99721846    -0.00000000     0.00000001  0.20D-13  0.13D-13  6  4    50.27
  16      1.36448224    -1.05545529  -338.99721846    -0.00000000     0.00000000  0.37D-14  0.20D-14  6  3    53.51
  17      1.36448222    -1.05545529  -338.99721846    -0.00000000    -0.00000000  0.87D-15  0.34D-15  6  5    56.73
  18      1.36448222    -1.05545529  -338.99721846    -0.00000000     0.00000000  0.13D-15  0.80D-16  6  6    59.96
  19      1.36448222    -1.05545529  -338.99721846    -0.00000000     0.00000000  0.40D-16  0.14D-16  6  2    63.19
  20      1.36448222    -1.05545529  -338.99721846    -0.00000000     0.00000000  0.83D-17  0.25D-17  6  1    66.43
  21      1.36448222    -1.05545529  -338.99721846    -0.00000000     0.00000000  0.23D-17  0.79D-18  6  4    69.65
  22      1.36448222    -1.05545529  -338.99721846     0.00000000     0.00000000  0.78D-18  0.24D-18  6  3    72.89
  23      1.36448222    -1.05545529  -338.99721846    -0.00000000     0.00000000  0.21D-18  0.55D-19  6  5    76.13
  24      1.36448222    -1.05545529  -338.99721846     0.00000000    -0.00000000  0.42D-19  0.14D-19  6  6    79.36
  25      1.36448222    -1.05545529  -338.99721846     0.00000000    -0.00000000  0.57D-20  0.40D-20  6  2    82.57
  26      1.36448222    -1.05545529  -338.99721846    -0.00000000    -0.00000000  0.16D-20  0.78D-21  6  1    85.82
  27      1.36448222    -1.05545529  -338.99721846     0.00000000    -0.00000000  0.31D-21  0.16D-21  6  5    89.05

 Norm of t1 vector:      0.14788239      S-energy:     0.00000000      T1 diagnostic:  0.01742811
                                                                       D1 diagnostic:  0.05898055


 Total CPU time for triples:     81.67 sec


 RESULTS
 =======

  Reference energy                   -337.941763169793
  CCSD singlet pair energy             -0.696566235805
  CCSD triplet pair energy             -0.358889058686
  CCSD correlation energy              -1.055455294491

  Triples (T) contribution             -0.039248462326
  Total correlation energy             -1.094703756817

  CCSD total energy                  -338.997218464284
  CCSD[T] energy                     -339.039658341869
  CCSD-T energy                      -339.035371963597
 !CCSD(T) total energy               -339.036466926610

 Timing summary (sec):

 STEP                 CPU(USER)    SYS     CPU(TOT)    WALL
 Transformation          2.03      0.21      2.24      2.25
 CCSD iterations        87.02      3.13     90.15     90.23
 Triples                81.67      2.30     83.97     83.98

 Program statistics:

 Available memory in ccsd:               999998604
 Min. memory needed in ccsd:               4264540
 Max. memory used in ccsd:                 5806348
 Max. memory used in cckext:               5610853 (27 integral passes)



 **********************************************************************************************************************************
 DATASETS  * FILE   NREC   LENGTH (MB)   RECORD NAMES
              1      20      526.44       500      610      700      900      950      970     1000      129      960     1100   
                                          VAR    BASINP    GEOM    SYMINP    ZMAT    AOBASIS   BASIS     P2S    ABASIS      S 
                                         1400     1410     1200     1210     1080     1600     1650     1300     1700     1380   
                                           T        V       H0       H01     AOSYM     SMH    MOLCAS    ERIS     OPER     JKOP   

              2       3        0.76       700     1000     2100   
                                         GEOM     BASIS     RHF  

 PROGRAMS   *        TOTAL   CCSD(T)       RHF       INT
 CPU TIMES  *       179.83    170.73      5.36      3.69
 REAL TIME  *       187.42 SEC
 DISK USED  *         1.48 GB      
 GA USED    *         0.00 MB       (max)       0.00 MB       (current)
 **********************************************************************************************************************************

        CCSD(T)         RHF-SCF 
   -339.03646693   -337.94176317
 **********************************************************************************************************************************
 Variable memory released
