
 Primary working directories    : /tmp/1049102.948.gen4.q
 Secondary working directories  : /tmp/1049102.948.gen4.q
 Wavefunction directory         : /home/vulcan/mel64643/wfu/
 Main file repository           : /tmp/1049102.948.gen4.q/

 ARCHNAME  : Linux/x86_64
 FC        : /opt/intel/compilers_and_libraries_2016.1.150/linux/bin/intel64/ifort
 FCVERSION : 16.0.1
 BLASLIB   : -mkl
 id        : ccgc

 Nodes     nprocs
 n065         1
 ga_uses_ma=false, calling ma_init with nominal heap.
 GA-space will be limited to   8.0 MW (determined by -G option)

 Using customized tuning parameters: mindgm=10; mindgv=16; mindgc=4; mindgr=1; noblas=0; mincuda=1000; minvec=7
 default implementation of scratch files=df  

 ***,Optimization of h2o_3
 memory,1000,m
 gthresh,energy=1.0d-12,orbital=1.0d-10,oneint=1.0d-16,twoint=1.0d-16,optgrad=1.0d-6,compress=1.0d-13
 geomtyp=xyz
 
 
 
 bohr
 geometry = {
  C    0.9167638808    1.4039258832   -2.2738497405
  C    0.7420101406    2.7040464934    0.0198050372
  C    0.9996550409    1.4082538359    2.3082506263
  C    1.4322105344   -1.1990043658    2.2964139073
  C    1.6076904528   -2.4986346902    0.0028023040
  C    1.3501071697   -1.2026173818   -2.2854400554
  H    0.7066105011    2.4160109221   -4.0419395771
  H    0.3911658846    4.7216122435    0.0239058610
  H    0.8581918111    2.4197923654    4.0836986007
  H    1.6306316688   -2.2121509749    4.0656666785
  H    1.9410268236   -4.5196461560   -0.0012875176
  H    1.4844790656   -2.2147703764   -4.0613749650
  N   -5.4493015415   -0.3599355934   -0.0708974069
  H   -5.5964402565   -1.5677548054   -1.5491286840
  H   -6.0729410734   -1.3180679246    1.4648590239
  H   -3.5609282357   -0.0728490731    0.1985935844
 }
 
 basis=aug-cc-pvdz, H=cc-pvdz
 {rhf;maxit,200}
 {ccsd(t)}

 Variables initialized (661), CPU time= 0.00 sec
 Commands  initialized (458), CPU time= 0.00 sec, 486 directives.
 Default parameters read. Elapsed time= 0.05 sec

 Checking input...
 Passed
1


                                         ***  PROGRAM SYSTEM MOLPRO  ***
                         Copyright, University College Cardiff Consultants Limited, 2008

                                    Version 2010.1 linked May 16 2016 07:17:05


 **********************************************************************************************************************************
 LABEL *   Optimization of h2o_3                                                         
 Linux-4.4.3/n065(x86_64) 64 bit mpp version                                             DATE: 20-Mar-24          TIME: 04:59:22  
 **********************************************************************************************************************************

 SHA1:             9e8077add272b0f3cad6f7df79ec5211205f459d
 **********************************************************************************************************************************

 THRESHOLDS:

 ZERO    =  1.00D-12  ONEINT  =  1.00D-16  TWOINT  =  1.00D-16  PREFAC  =  1.00D-14  LOCALI  =  1.00D-09  EORDER  =  1.00D-04
 ENERGY  =  1.00D-12  ETEST   =  0.00D+00  EDENS   =  0.00D+00  THRDEDEF=  1.00D-06  GRADIENT=  1.00D-02  STEP    =  1.00D-03
 ORBITAL =  1.00D-10  CIVEC   =  1.00D-05  COEFF   =  1.00D-04  PRINTCI =  5.00D-02  PUNCHCI =  9.90D+01  OPTGRAD =  1.00D-06
 OPTENERG=  1.00D-06  OPTSTEP =  3.00D-04  THRGRAD =  1.00D-10  COMPRESS=  1.00D-13  VARMIN  =  1.00D-07  VARMAX  =  1.00D-03
 THRDOUB =  0.00D+00  THRDIV  =  1.00D-05  THRRED  =  1.00D-07  THRPSP  =  1.00D+00  THRDC   =  1.00D-10  THRCS   =  1.00D-10
 THRNRM  =  1.00D-08  THREQ   =  0.00D+00  THRDE   =  1.00D+00  THRREF  =  1.00D-05  SPARFAC =  1.00D+00  THRDLP  =  1.00D-07
 THRDIA  =  1.00D-10  THRDLS  =  1.00D-07  THRGPS  =  0.00D+00  THRKEX  =  0.00D+00  THRDIS  =  2.00D-01  THRVAR  =  1.00D-10
 THRLOC  =  1.00D-06  THRGAP  =  1.00D-06  THRLOCT = -1.00D+00  THRGAPT = -1.00D+00  THRORB  =  1.00D-06  THRMLTP =  0.00D+00
 THRCPQCI=  1.00D-10  KEXTA   =  0.00D+00  THRCOARS=  0.00D+00  SYMTOL  =  1.00D-06  GRADTOL =  1.00D-06  THROVL  =  1.00D-08
 THRORTH =  1.00D-08  GRID    =  1.00D-06  GRIDMAX =  1.00D-03  DTMAX   =  0.00D+00

 SETTING GEOMTYP        =    XYZ
 ZUNIT=BOHR
 

 Variable memory set to 1000000000 words,  buffer space   230000 words

 SETTING BASIS          =    AUG-CC-PVDZ,H=CC-PVDZ


 Recomputing integrals since basis changed


 Using spherical harmonics

 Library entry C      S aug-cc-pVDZ          selected for orbital group  1
 Library entry C      P aug-cc-pVDZ          selected for orbital group  1
 Library entry C      D aug-cc-pVDZ          selected for orbital group  1
 Library entry H      S cc-pVDZ              selected for orbital group  2
 Library entry H      P cc-pVDZ              selected for orbital group  2
 Library entry N      S aug-cc-pVDZ          selected for orbital group  3
 Library entry N      P aug-cc-pVDZ          selected for orbital group  3
 Library entry N      D aug-cc-pVDZ          selected for orbital group  3

1PROGRAM * SEWARD (Integral evaluation for generally contracted gaussian basis sets)     Author: Roland Lindh, 1990

 Geometry written to block  1 of record 700


 Point group  C1  



 ATOMIC COORDINATES

 NR  ATOM    CHARGE       X              Y              Z

   1  C       6.00    0.916763881    1.403925883   -2.273849741
   2  C       6.00    0.742010141    2.704046493    0.019805037
   3  C       6.00    0.999655041    1.408253836    2.308250626
   4  C       6.00    1.432210534   -1.199004366    2.296413907
   5  C       6.00    1.607690453   -2.498634690    0.002802304
   6  C       6.00    1.350107170   -1.202617382   -2.285440055
   7  H       1.00    0.706610501    2.416010922   -4.041939577
   8  H       1.00    0.391165885    4.721612244    0.023905861
   9  H       1.00    0.858191811    2.419792365    4.083698601
  10  H       1.00    1.630631669   -2.212150975    4.065666679
  11  H       1.00    1.941026824   -4.519646156   -0.001287518
  12  H       1.00    1.484479066   -2.214770376   -4.061374965
  13  N       7.00   -5.449301541   -0.359935593   -0.070897407
  14  H       1.00   -5.596440257   -1.567754805   -1.549128684
  15  H       1.00   -6.072941073   -1.318067925    1.464859024
  16  H       1.00   -3.560928236   -0.072849073    0.198593584

 Bond lengths in Bohr (Angstrom)

 1-2  2.642291564  1-6  2.642345271  1-7  2.048077694  2-3  2.642431214  2-8  2.047847666
     ( 1.398240475)     ( 1.398268896)     ( 1.083796038)     ( 1.398314375)     ( 1.083674313)

  3- 4  2.642922567   3- 9  2.048276727   4- 5  2.642061008   4-10  2.048436566   5- 6  2.642359383
       ( 1.398574387)       ( 1.083901362)       ( 1.398118470)       ( 1.083985945)       ( 1.398276363)

  5-11  2.048320582   6-12  2.048524907  13-14  1.914587360  13-15  1.914547373  13-16  1.928988804
       ( 1.083924569)       ( 1.084032693)       ( 1.013155996)       ( 1.013134835)       ( 1.020776912)

 Bond angles

  1- 2- 3  120.26715756   1- 2- 8  119.85693577   1- 6- 5  119.73704487   1- 6-12  120.12937836

  2-1-6  120.00198856   2-1-7  119.96358446   2-3-4  119.72521174   2-3-9  120.11753162

  3- 2- 8  119.87423932   3- 4- 5  120.00136561   3- 4-10  119.99378241   4- 3- 9  120.15692300

  4- 5- 6  120.26720372   4- 5-11  119.86009845   5- 4-10  120.00484727   5- 6-12  120.13356215

  6- 1- 7  120.03368707   6- 5-11  119.87258448  14-13-15  106.17607584  14-13-16  106.08043223

 15-13-16  106.33745550

 NUCLEAR CHARGE:                   52
 NUMBER OF PRIMITIVE AOS:         322
 NUMBER OF SYMMETRY AOS:          308
 NUMBER OF CONTRACTIONS:          206   ( 206A   )
 NUMBER OF CORE ORBITALS:           7   (   7A   )
 NUMBER OF VALENCE ORBITALS:       37   (  37A   )


 NUCLEAR REPULSION ENERGY  273.66383322


 Eigenvalues of metric

         1 0.861E-05 0.184E-04 0.228E-04 0.532E-04 0.640E-04 0.646E-04 0.107E-03 0.107E-03


 Contracted 2-electron integrals neglected if value below      1.0D-16
 AO integral compression algorithm  1   Integral accuracy      1.0D-16

     1892.942 MB (compressed) written to integral file ( 94.6%)

     Node minimum: 1892.942 MB, node maximum: 1892.942 MB


 NUMBER OF SORTED TWO-ELECTRON INTEGRALS:  227303181.     BUFFER LENGTH:  32768
 NUMBER OF SEGMENTS:  15  SEGMENT LENGTH:   15999503      RECORD LENGTH: 524288

 Memory used in sort:      16.56 MW

 SORT1 READ   250230238. AND WROTE   226404456. INTEGRALS IN    654 RECORDS. CPU TIME:     2.38 SEC, REAL TIME:     6.37 SEC
 SORT2 READ   226404456. AND WROTE   227303181. INTEGRALS IN   7221 RECORDS. CPU TIME:     1.46 SEC, REAL TIME:     2.31 SEC

 FILE SIZES:   FILE 1:  1743.4 MBYTE,  FILE 4:  2743.1 MBYTE,   TOTAL:   4486.6 MBYTE

 OPERATOR DM      FOR CENTER  0  COORDINATES:    0.000000    0.000000    0.000000


 **********************************************************************************************************************************
 DATASETS  * FILE   NREC   LENGTH (MB)   RECORD NAMES
              1      19     1743.96       500      610      700      900      950      970     1000      129      960     1100   
                                          VAR    BASINP    GEOM    SYMINP    ZMAT    AOBASIS   BASIS     P2S    ABASIS      S 
                                         1400     1410     1200     1210     1080     1600     1650     1300     1700   
                                           T        V       H0       H01     AOSYM     SMH    MOLCAS    ERIS     OPER   

 PROGRAMS   *        TOTAL       INT
 CPU TIMES  *        14.63     14.59
 REAL TIME  *        20.55 SEC
 DISK USED  *         6.38 GB      
 GA USED    *         0.01 MB       (max)       0.00 MB       (current)
 **********************************************************************************************************************************

1PROGRAM * RHF-SCF (CLOSED SHELL)       Authors: W. Meyer, H.-J. Werner


 NUMBER OF ELECTRONS:      26+   26-    SPACE SYMMETRY=1    SPIN SYMMETRY: Singlet 
 CONVERGENCE THRESHOLDS:    1.00E-10 (Density)    1.00E-13 (Energy)
 MAX. NUMBER OF ITERATIONS:      200
 INTERPOLATION TYPE:            DIIS
 INTERPOLATION STEPS:              2 (START)      1 (STEP)
 LEVEL SHIFTS:                  0.00 (CLOSED)  0.00 (OPEN) 



 Orbital guess generated from atomic densities. Full valence occupancy:   44

 Molecular orbital dump at record        2100.2

 ITERATION    DDIFF          GRAD             ENERGY        2-EL.EN.            DIPOLE MOMENTS         DIIS
    1      0.000D+00      0.000D+00      -286.85324346    740.778458    0.52542   -0.76471    0.13601    0
    2      0.000D+00      0.322D-02      -286.92078394    735.001044    0.43815   -0.38459    0.06188    1
    3      0.826D-02      0.133D-02      -286.93010064    737.627959    0.45426   -0.52202    0.09199    2
    4      0.218D-02      0.381D-03      -286.93131730    737.109562    0.45253   -0.49586    0.08418    3
    5      0.783D-03      0.525D-04      -286.93134103    737.098225    0.45822   -0.50576    0.08816    4
    6      0.134D-03      0.175D-04      -286.93134343    737.113197    0.45706   -0.50039    0.08607    5
    7      0.509D-04      0.550D-05      -286.93134370    737.110067    0.45770   -0.50258    0.08683    6
    8      0.148D-04      0.129D-05      -286.93134372    737.109081    0.45785   -0.50223    0.08669    7
    9      0.414D-05      0.540D-06      -286.93134372    737.109536    0.45788   -0.50232    0.08672    7
   10      0.147D-05      0.143D-06      -286.93134372    737.109485    0.45788   -0.50232    0.08672    7
   11      0.514D-06      0.408D-07      -286.93134372    737.109471    0.45789   -0.50232    0.08672    7
   12      0.141D-06      0.172D-07      -286.93134372    737.109485    0.45789   -0.50232    0.08672    8
   13      0.599D-07      0.745D-08      -286.93134372    737.109479    0.45789   -0.50232    0.08672    8
   14      0.326D-07      0.357D-08      -286.93134372    737.109482    0.45789   -0.50232    0.08672    8
   15      0.197D-07      0.137D-08      -286.93134372    737.109481    0.45789   -0.50232    0.08672    8
   16      0.713D-08      0.453D-09      -286.93134372    737.109481    0.45789   -0.50232    0.08672    9
   17      0.218D-08      0.124D-09      -286.93134372    737.109481    0.45789   -0.50232    0.08672    9
   18      0.406D-09      0.380D-10      -286.93134372    737.109481    0.45789   -0.50232    0.08672    9
   19      0.247D-09      0.175D-10      -286.93134372    737.109481    0.45789   -0.50232    0.08672    9
   20      0.163D-09      0.882D-11      -286.93134372    737.109481    0.45789   -0.50232    0.08672    9
   21      0.111D-09      0.412D-11      -286.93134372    737.109481    0.45789   -0.50232    0.08672    9
   22      0.145D-09      0.133D-11      -286.93134372    737.109481    0.45789   -0.50232    0.08672    9
   23      0.143D-09      0.751D-12      -286.93134372    737.109481    0.45789   -0.50232    0.08672    9
   24      0.865D-10      0.522D-12      -286.93134372    737.109481    0.45789   -0.50232    0.08672    9
   25      0.466D-10      0.510D-12      -286.93134372    737.109481    0.45789   -0.50232    0.08672    9
   26      0.496D-10      0.505D-12      -286.93134372    737.109481    0.45789   -0.50232    0.08672    9
   27      0.305D-10      0.508D-12      -286.93134372    737.109481    0.45789   -0.50232    0.08672    9
   28      0.194D-10      0.480D-12      -286.93134372    737.109481    0.45789   -0.50232    0.08672    9
   29      0.168D-10      0.527D-12      -286.93134372    737.109481    0.45789   -0.50232    0.08672    0

 Final occupancy:  26

 !RHF STATE 1.1 Energy               -286.931343721762
 Nuclear energy                       273.66383322
 One-electron energy                 -929.14991734
 Two-electron energy                  368.55474040
 Virial quotient                       -1.00146498
 !RHF STATE 1.1 Dipole moment           0.45789109    -0.50232295     0.08671758
 Dipole moment /Debye                   1.16376685    -1.27669396     0.22039968

 Orbital energies:

         1.1          2.1          3.1          4.1          5.1          6.1          7.1          8.1          9.1         10.1
    -15.534959   -11.250653   -11.250133   -11.249685   -11.248813   -11.248719   -11.247814    -1.157534    -1.125560    -1.022432

        11.1         12.1         13.1         14.1         15.1         16.1         17.1         18.1         19.1         20.1
     -1.021636    -0.830864    -0.830369    -0.714533    -0.650490    -0.623954    -0.611276    -0.610206    -0.594312    -0.592764

        21.1         22.1         23.1         24.1         25.1         26.1         27.1         28.1
     -0.504904    -0.500861    -0.499321    -0.413386    -0.343214    -0.341826     0.063895     0.066373


 **********************************************************************************************************************************
 DATASETS  * FILE   NREC   LENGTH (MB)   RECORD NAMES
              1      19     1743.96       500      610      700      900      950      970     1000      129      960     1100   
                                          VAR    BASINP    GEOM    SYMINP    ZMAT    AOBASIS   BASIS     P2S    ABASIS      S 
                                         1400     1410     1200     1210     1080     1600     1650     1300     1700   
                                           T        V       H0       H01     AOSYM     SMH    MOLCAS    ERIS     OPER   

              2       3        1.40       700     1000     2100   
                                         GEOM     BASIS     RHF  

 PROGRAMS   *        TOTAL       RHF       INT
 CPU TIMES  *        65.20     50.56     14.59
 REAL TIME  *        76.62 SEC
 DISK USED  *         6.38 GB      
 GA USED    *         0.01 MB       (max)       0.00 MB       (current)
 **********************************************************************************************************************************


1PROGRAM * CCSD (Closed-shell coupled cluster)     Authors: C. Hampel, H.-J. Werner, 1991, M. Deegan, P.J. Knowles, 1992


 Convergence thresholds:  THRVAR = 1.00D-08  THRDEN = 1.00D-12

 CCSD(T)     terms to be evaluated (factor= 1.000)


 Number of core orbitals:           7 (   7 )
 Number of closed-shell orbitals:  19 (  19 )
 Number of external orbitals:     180 ( 180 )

 Molecular orbitals read from record     2100.2  Type=RHF/CANONICAL (state 1.1)

 Number of N-1 electron functions:              19
 Number of N-2 electron functions:             190
 Number of singly external CSFs:              3420
 Number of doubly external CSFs:           5849910
 Total number of CSFs:                     5853331

 Length of J-op  integral file:               0.00 MB
 Length of K-op  integral file:               2.96 MB
 Length of 3-ext integral record:             0.00 MB

 Memory could be reduced to 140.12 Mwords without degradation in triples

 Integral transformation finished. Total CPU:  13.93 sec, npass=  1  Memory used: 101.90 MW

 Reference energy:                   -286.93134372

 MP2 singlet pair energy:              -0.62062668
 MP2 triplet pair energy:              -0.38983338
 MP2 correlation energy:               -1.01046006
 MP2 total energy:                   -287.94180378

 SCS-MP2 correlation energy:           -0.98731501   (PS=  1.200000  PT=  0.333333)
 SCS-MP2 total energy:               -287.91865873

 ITER.      SQ.NORM     CORR.ENERGY   TOTAL ENERGY   ENERGY CHANGE        DEN1      VAR(S)    VAR(P)  DIIS     TIME
   1      1.38487855    -1.05475051  -287.98609423    -0.04429045    -0.01721298  0.36D-02  0.80D-02  1  1    50.83
   2      1.41438959    -1.06061261  -287.99195634    -0.00586211    -0.02705201  0.63D-04  0.10D-02  2  2    88.23
   3      1.42351931    -1.06070820  -287.99205192    -0.00009559    -0.00464284  0.27D-04  0.84D-04  3  3   125.60
   4      1.42745575    -1.06087694  -287.99222066    -0.00016873    -0.00121385  0.22D-05  0.11D-04  4  4   163.05
   5      1.42866905    -1.06090789  -287.99225161    -0.00003095    -0.00027313  0.27D-06  0.13D-05  5  5   200.52
   6      1.42897178    -1.06089765  -287.99224137     0.00001024    -0.00004353  0.23D-07  0.79D-07  6  6   238.02
   7      1.42901257    -1.06089928  -287.99224300    -0.00000163    -0.00000105  0.35D-08  0.82D-08  6  2   275.49
   8      1.42902176    -1.06089914  -287.99224286     0.00000014    -0.00000118  0.76D-09  0.76D-09  6  1   312.94
   9      1.42902159    -1.06089927  -287.99224299    -0.00000013     0.00000123  0.21D-09  0.92D-10  6  4   350.40
  10      1.42902279    -1.06089928  -287.99224301    -0.00000001    -0.00000018  0.57D-10  0.15D-10  6  3   387.89
  11      1.42902273    -1.06089930  -287.99224302    -0.00000002     0.00000013  0.14D-10  0.37D-11  6  5   425.36
  12      1.42902269    -1.06089930  -287.99224302    -0.00000000     0.00000003  0.15D-11  0.10D-11  6  6   462.81
  13      1.42902251    -1.06089931  -287.99224303    -0.00000000     0.00000006  0.69D-13  0.20D-12  6  2   500.28
  14      1.42902241    -1.06089931  -287.99224303    -0.00000000     0.00000002  0.81D-14  0.40D-13  6  1   537.74
  15      1.42902235    -1.06089931  -287.99224303    -0.00000000     0.00000001  0.90D-15  0.54D-14  6  3   575.20
  16      1.42902233    -1.06089931  -287.99224303    -0.00000000     0.00000000  0.12D-15  0.37D-15  6  4   612.68
  17      1.42902233    -1.06089931  -287.99224303    -0.00000000     0.00000000  0.32D-16  0.44D-16  6  5   650.19
  18      1.42902233    -1.06089931  -287.99224303    -0.00000000     0.00000000  0.87D-17  0.71D-17  6  6   687.64
  19      1.42902233    -1.06089931  -287.99224303    -0.00000000     0.00000000  0.26D-17  0.82D-18  6  2   725.07
  20      1.42902233    -1.06089931  -287.99224303    -0.00000000     0.00000000  0.86D-18  0.21D-18  6  1   762.51
  21      1.42902233    -1.06089931  -287.99224303    -0.00000000     0.00000000  0.33D-18  0.89D-19  6  3   799.99
  22      1.42902233    -1.06089931  -287.99224303    -0.00000000     0.00000000  0.13D-18  0.42D-19  6  4   837.44
  23      1.42902233    -1.06089931  -287.99224303    -0.00000000     0.00000000  0.59D-19  0.23D-19  6  6   874.88

 Norm of t1 vector:      0.08385144      S-energy:    -0.00000000      T1 diagnostic:  0.00961842
                                                                       D1 diagnostic:  0.02618647

 Doubles amplitudes (print threshold =  0.500E-01):

         I         J         SYM. A    SYM. B    A         B      T(IJ, AB)

        18        18         1         1         6         6     -0.05293668
        19        19         1         1         7         7     -0.05550435


 Total CPU time for triples:    733.12 sec


 RESULTS
 =======

  Reference energy                   -286.931343721761
  CCSD singlet pair energy             -0.711148349901
  CCSD triplet pair energy             -0.349750957531
  CCSD correlation energy              -1.060899307432

  Triples (T) contribution             -0.045602326519
  Total correlation energy             -1.106501633952

  CCSD total energy                  -287.992243029193
  CCSD[T] energy                     -288.038715480002
  CCSD-T energy                      -288.037456871651
 !CCSD(T) total energy               -288.037845355712

 Timing summary (sec):

 STEP                 CPU(USER)    SYS     CPU(TOT)    WALL
 Transformation         14.35      0.85     15.20     15.19
 CCSD iterations       860.56     12.27    872.83    872.96
 Triples               733.12     11.46    744.58    744.64

 Program statistics:

 Available memory in ccsd:               999998456
 Min. memory needed in ccsd:              14392275
 Max. memory used in ccsd:                19775697
 Max. memory used in cckext:              16737545 (23 integral passes)



 **********************************************************************************************************************************
 DATASETS  * FILE   NREC   LENGTH (MB)   RECORD NAMES
              1      20     2287.56       500      610      700      900      950      970     1000      129      960     1100   
                                          VAR    BASINP    GEOM    SYMINP    ZMAT    AOBASIS   BASIS     P2S    ABASIS      S 
                                         1400     1410     1200     1210     1080     1600     1650     1300     1700     1380   
                                           T        V       H0       H01     AOSYM     SMH    MOLCAS    ERIS     OPER     JKOP   

              2       3        1.40       700     1000     2100   
                                         GEOM     BASIS     RHF  

 PROGRAMS   *        TOTAL   CCSD(T)       RHF       INT
 CPU TIMES  *      1673.24   1608.05     50.56     14.59
 REAL TIME  *      1709.53 SEC
 DISK USED  *         6.38 GB      
 GA USED    *         0.01 MB       (max)       0.00 MB       (current)
 **********************************************************************************************************************************

        CCSD(T)         RHF-SCF 
   -288.03784536   -286.93134372
 **********************************************************************************************************************************
 Variable memory released
