
 Primary working directories    : /tmp/1049502.1914.gen6.q
 Secondary working directories  : /tmp/1049502.1914.gen6.q
 Wavefunction directory         : /home/vulcan/jj04645/wfu/
 Main file repository           : /tmp/1049502.1914.gen6.q/

 ARCHNAME  : Linux/x86_64
 FC        : /opt/intel/compilers_and_libraries_2016.1.150/linux/bin/intel64/ifort
 FCVERSION : 16.0.1
 BLASLIB   : -mkl
 id        : ccgc

 Nodes     nprocs
 n092         1
 ga_uses_ma=false, calling ma_init with nominal heap.
 GA-space will be limited to   8.0 MW (determined by -G option)

 Using customized tuning parameters: mindgm=10; mindgv=16; mindgc=4; mindgr=1; noblas=0; mincuda=1000; minvec=7
 default implementation of scratch files=df  

 ***,Optimization of neopentane
 memory,1000,m
 gthresh,energy=1.0d-12,orbital=1.0d-10,oneint=1.0d-16,twoint=1.0d-16,optgrad=1.0d-6,compress=1.0d-13
 geomtyp=xyz
 
 bohr
 geometry = {
  C   -0.0000000000    0.0000000000    0.0014999623
  C    2.3654405677    0.0024792683   -1.6711200224
  C    0.0024792683   -2.3654405677    1.6741199470
  C   -0.0024792683    2.3654405677    1.6741199470
  C   -2.3654405677   -0.0024792683   -1.6711200224
  H    2.4083827897    1.6766736073   -2.8828911886
  H   -1.6690529965   -2.4093184402    2.8895271621
  H    1.6690529965    2.4093184402    2.8895271621
  H   -2.4083827897   -1.6766736073   -2.8828911886
  H    4.0857777069   -0.0027967931   -0.5250081732
  H   -0.0028043946   -4.0776305138    0.5158722395
  H    0.0028043946    4.0776305138    0.5158722395
  H   -4.0857777069    0.0027967931   -0.5250081732
  H    2.4007403472   -1.6690420725   -2.8868216356
  H    1.6766625762   -2.4169673107    2.8855716900
  H   -1.6766625762    2.4169673107    2.8855716900
  H   -2.4007403472    1.6690420725   -2.8868216356
 }
 
 basis=VDZ
 {rhf;maxit,200}
 {ccsd(t);maxit,200}

 Variables initialized (661), CPU time= 0.01 sec
 Commands  initialized (458), CPU time= 0.00 sec, 486 directives.
 Default parameters read. Elapsed time= 0.04 sec

 Checking input...
 Passed
1


                                         ***  PROGRAM SYSTEM MOLPRO  ***
                         Copyright, University College Cardiff Consultants Limited, 2008

                                    Version 2010.1 linked May 16 2016 07:17:05


 **********************************************************************************************************************************
 LABEL *   Optimization of neopentane                                                    
 Linux-4.4.3/n092(x86_64) 64 bit mpp version                                             DATE: 31-Mar-24          TIME: 03:52:21  
 **********************************************************************************************************************************

 SHA1:             9e8077add272b0f3cad6f7df79ec5211205f459d
 **********************************************************************************************************************************

 THRESHOLDS:

 ZERO    =  1.00D-12  ONEINT  =  1.00D-16  TWOINT  =  1.00D-16  PREFAC  =  1.00D-14  LOCALI  =  1.00D-09  EORDER  =  1.00D-04
 ENERGY  =  1.00D-12  ETEST   =  0.00D+00  EDENS   =  0.00D+00  THRDEDEF=  1.00D-06  GRADIENT=  1.00D-02  STEP    =  1.00D-03
 ORBITAL =  1.00D-10  CIVEC   =  1.00D-05  COEFF   =  1.00D-04  PRINTCI =  5.00D-02  PUNCHCI =  9.90D+01  OPTGRAD =  1.00D-06
 OPTENERG=  1.00D-06  OPTSTEP =  3.00D-04  THRGRAD =  1.00D-10  COMPRESS=  1.00D-13  VARMIN  =  1.00D-07  VARMAX  =  1.00D-03
 THRDOUB =  0.00D+00  THRDIV  =  1.00D-05  THRRED  =  1.00D-07  THRPSP  =  1.00D+00  THRDC   =  1.00D-10  THRCS   =  1.00D-10
 THRNRM  =  1.00D-08  THREQ   =  0.00D+00  THRDE   =  1.00D+00  THRREF  =  1.00D-05  SPARFAC =  1.00D+00  THRDLP  =  1.00D-07
 THRDIA  =  1.00D-10  THRDLS  =  1.00D-07  THRGPS  =  0.00D+00  THRKEX  =  0.00D+00  THRDIS  =  2.00D-01  THRVAR  =  1.00D-10
 THRLOC  =  1.00D-06  THRGAP  =  1.00D-06  THRLOCT = -1.00D+00  THRGAPT = -1.00D+00  THRORB  =  1.00D-06  THRMLTP =  0.00D+00
 THRCPQCI=  1.00D-10  KEXTA   =  0.00D+00  THRCOARS=  0.00D+00  SYMTOL  =  1.00D-06  GRADTOL =  1.00D-06  THROVL  =  1.00D-08
 THRORTH =  1.00D-08  GRID    =  1.00D-06  GRIDMAX =  1.00D-03  DTMAX   =  0.00D+00

 SETTING GEOMTYP        =    XYZ
 ZUNIT=BOHR
 

 Variable memory set to 1000000000 words,  buffer space   230000 words

 SETTING BASIS          =    VDZ


 Recomputing integrals since basis changed


 Using spherical harmonics

 Library entry C      S cc-pVDZ              selected for orbital group  1
 Library entry C      P cc-pVDZ              selected for orbital group  1
 Library entry C      D cc-pVDZ              selected for orbital group  1
 Library entry H      S cc-pVDZ              selected for orbital group  2
 Library entry H      P cc-pVDZ              selected for orbital group  2

1PROGRAM * SEWARD (Integral evaluation for generally contracted gaussian basis sets)     Author: Roland Lindh, 1990

 Geometry written to block  1 of record 700


 Point group  C2  



 ATOMIC COORDINATES

 NR  ATOM    CHARGE       X              Y              Z

   1  C       6.00    0.000000000    0.000000000    0.001499962
   2  C       6.00    2.365440568    0.002479268   -1.671120022
   3  C       6.00   -2.365440568   -0.002479268   -1.671120022
   4  C       6.00    0.002479268   -2.365440568    1.674119947
   5  C       6.00   -0.002479268    2.365440568    1.674119947
   6  H       1.00    2.408382790    1.676673607   -2.882891189
   7  H       1.00   -2.408382790   -1.676673607   -2.882891189
   8  H       1.00   -1.669052997   -2.409318440    2.889527162
   9  H       1.00    1.669052997    2.409318440    2.889527162
  10  H       1.00    4.085777707   -0.002796793   -0.525008173
  11  H       1.00   -4.085777707    0.002796793   -0.525008173
  12  H       1.00   -0.002804395   -4.077630514    0.515872240
  13  H       1.00    0.002804395    4.077630514    0.515872240
  14  H       1.00    2.400740347   -1.669042072   -2.886821636
  15  H       1.00   -2.400740347    1.669042072   -2.886821636
  16  H       1.00    1.676662576   -2.416967311    2.885571690
  17  H       1.00   -1.676662576    2.416967311    2.885571690

 Bond lengths in Bohr (Angstrom)

 1-2  2.897062795  1-3  2.897062795  1-4  2.897062795  1-5  2.897062795  2-6  2.067162325
     ( 1.533059604)     ( 1.533059604)     ( 1.533059604)     ( 1.533059604)     ( 1.093895190)

  2-10  2.067162326   2-14  2.067162325   3- 7  2.067162325   3-11  2.067162326   3-15  2.067162325
       ( 1.093895190)       ( 1.093895190)       ( 1.093895190)       ( 1.093895190)       ( 1.093895190)

  4- 8  2.067162325   4-12  2.067162326   4-16  2.067162325   5- 9  2.067162325   5-13  2.067162326
       ( 1.093895190)       ( 1.093895190)       ( 1.093895190)       ( 1.093895190)       ( 1.093895190)

  5-17  2.067162325
       ( 1.093895190)

 Bond angles

  1- 2- 6  110.86072216   1- 2-10  111.06329258   1- 2-14  110.65815178   1- 3- 7  110.86072216

  1- 3-11  111.06329258   1- 3-15  110.65815178   1- 4- 8  110.86072216   1- 4-12  110.65815180

  1- 4-16  111.06329257   1- 5- 9  110.86072216   1- 5-13  110.65815180   1- 5-17  111.06329257

  2-1-3  109.47122063   2-1-4  109.47122064   2-1-5  109.47122064   3-1-4  109.47122064

  3- 1- 5  109.47122064   4- 1- 5  109.47122063   6- 2-10  108.04659066   6- 2-14  108.04659361

  7- 3-11  108.04659066   7- 3-15  108.04659361   8- 4-12  108.04659363   8- 4-16  108.04659064

  9- 5-13  108.04659363   9- 5-17  108.04659064  10- 2-14  108.04659218  11- 3-15  108.04659218

 12- 4-16  108.04659218  13- 5-17  108.04659218

 NUCLEAR CHARGE:                   42
 NUMBER OF PRIMITIVE AOS:         219
 NUMBER OF SYMMETRY AOS:          214
 NUMBER OF CONTRACTIONS:          130   (  66A   +  64B   )
 NUMBER OF CORE ORBITALS:           5   (   3A   +   2B   )
 NUMBER OF VALENCE ORBITALS:       32   (  16A   +  16B   )


 NUCLEAR REPULSION ENERGY  198.59916948


 Eigenvalues of metric

         1 0.280E-02 0.504E-02 0.171E-01 0.189E-01 0.237E-01 0.319E-01 0.337E-01 0.337E-01
         2 0.504E-02 0.504E-02 0.189E-01 0.189E-01 0.237E-01 0.237E-01 0.319E-01 0.320E-01


 Contracted 2-electron integrals neglected if value below      1.0D-16
 AO integral compression algorithm  1   Integral accuracy      1.0D-16

     166.986 MB (compressed) written to integral file ( 98.8%)

     Node minimum: 166.986 MB, node maximum: 166.986 MB


 NUMBER OF SORTED TWO-ELECTRON INTEGRALS:   18406246.     BUFFER LENGTH:  32768
 NUMBER OF SEGMENTS:   2  SEGMENT LENGTH:   15998467      RECORD LENGTH: 524288

 Memory used in sort:      16.56 MW

 SORT1 READ    21105840. AND WROTE    18337851. INTEGRALS IN     53 RECORDS. CPU TIME:     0.24 SEC, REAL TIME:     0.33 SEC
 SORT2 READ    18337851. AND WROTE    18406246. INTEGRALS IN    637 RECORDS. CPU TIME:     0.21 SEC, REAL TIME:     0.30 SEC

 FILE SIZES:   FILE 1:   150.7 MBYTE,  FILE 4:   222.3 MBYTE,   TOTAL:    373.0 MBYTE

 OPERATOR DM      FOR CENTER  0  COORDINATES:    0.000000    0.000000    0.000000


 **********************************************************************************************************************************
 DATASETS  * FILE   NREC   LENGTH (MB)   RECORD NAMES
              1      19      150.77       500      610      700      900      950      970     1000      129      960     1100   
                                          VAR    BASINP    GEOM    SYMINP    ZMAT    AOBASIS   BASIS     P2S    ABASIS      S 
                                         1400     1410     1200     1210     1080     1600     1650     1300     1700   
                                           T        V       H0       H01     AOSYM     SMH    MOLCAS    ERIS     OPER   

 PROGRAMS   *        TOTAL       INT
 CPU TIMES  *         2.69      2.65
 REAL TIME  *         3.13 SEC
 DISK USED  *       541.02 MB      
 GA USED    *         0.00 MB       (max)       0.00 MB       (current)
 **********************************************************************************************************************************

1PROGRAM * RHF-SCF (CLOSED SHELL)       Authors: W. Meyer, H.-J. Werner


 NUMBER OF ELECTRONS:      21+   21-
 CONVERGENCE THRESHOLDS:    1.00E-10 (Density)    1.00E-13 (Energy)
 MAX. NUMBER OF ITERATIONS:      200
 INTERPOLATION TYPE:            DIIS
 INTERPOLATION STEPS:              2 (START)      1 (STEP)
 LEVEL SHIFTS:                  0.00 (CLOSED)  0.00 (OPEN) 



 Orbital guess generated from atomic densities. Full valence occupancy:   19  18

 Molecular orbital dump at record        2100.2

 Initial alpha occupancy:  11  10
 Initial beta  occupancy:  11  10
 Wave function symmetry:    1

 ITERATION    DDIFF          GRAD             ENERGY        2-EL.EN.            DIPOLE MOMENTS         DIIS
    1      0.000D+00      0.000D+00      -196.27089831    527.677215    0.00000    0.00000   -0.00363    0
    2      0.000D+00      0.657D-02      -196.33875625    521.943873    0.00000    0.00000    0.00027    1
    3      0.131D-01      0.249D-02      -196.34654649    524.513923    0.00000    0.00000   -0.00080    2
    4      0.488D-02      0.804D-03      -196.34769321    523.812597    0.00000    0.00000   -0.00049    3
    5      0.161D-02      0.166D-03      -196.34772780    523.879110    0.00000    0.00000   -0.00047    4
    6      0.279D-03      0.335D-04      -196.34772947    523.875351    0.00000    0.00000   -0.00050    5
    7      0.929D-04      0.319D-05      -196.34772949    523.875118    0.00000    0.00000   -0.00049    6
    8      0.965D-05      0.688D-06      -196.34772949    523.875076    0.00000    0.00000   -0.00050    6
    9      0.194D-05      0.101D-06      -196.34772949    523.875068    0.00000    0.00000   -0.00050    5
   10      0.343D-06      0.187D-07      -196.34772949    523.875076    0.00000    0.00000   -0.00050    5
   11      0.502D-07      0.685D-08      -196.34772949    523.875073    0.00000    0.00000   -0.00050    6
   12      0.136D-07      0.704D-09      -196.34772949    523.875074    0.00000    0.00000   -0.00050    6
   13      0.185D-08      0.162D-09      -196.34772949    523.875073    0.00000    0.00000   -0.00050    6
   14      0.391D-09      0.456D-10      -196.34772949    523.875074    0.00000    0.00000   -0.00050    6
   15      0.116D-09      0.116D-10      -196.34772949    523.875074    0.00000    0.00000   -0.00050    6
   16      0.380D-10      0.207D-11      -196.34772949    523.875074    0.00000    0.00000   -0.00050    6
   17      0.591D-11      0.592D-12      -196.34772949    523.875074    0.00000    0.00000   -0.00050    6
   18      0.143D-11      0.199D-12      -196.34772949    523.875074    0.00000    0.00000   -0.00050    0

 Final occupancy:  11  10

 !RHF STATE 1.1 Energy               -196.347729494523
 Nuclear energy                       198.59916948
 One-electron energy                 -656.88443573
 Two-electron energy                  261.93753675
 Virial quotient                       -1.00118141
 !RHF STATE 1.1 Dipole moment           0.00000000     0.00000000    -0.00049718
 Dipole moment /Debye                   0.00000000     0.00000000    -0.00126363

 Orbital energies:

         1.1          2.1          3.1          4.1          5.1          6.1          7.1          8.1          9.1         10.1
    -11.230716   -11.214154   -11.214005    -1.103748    -0.927561    -0.728612    -0.609076    -0.550487    -0.550486    -0.507788

        11.1         12.1         13.1
     -0.450331     0.170677     0.231200

         1.2          2.2          3.2          4.2          5.2          6.2          7.2          8.2          9.2         10.2
    -11.214174   -11.214033    -0.927572    -0.927549    -0.609326    -0.608824    -0.507866    -0.507712    -0.450622    -0.450040

        11.2         12.2
      0.231189     0.231209


 **********************************************************************************************************************************
 DATASETS  * FILE   NREC   LENGTH (MB)   RECORD NAMES
              1      19      150.77       500      610      700      900      950      970     1000      129      960     1100   
                                          VAR    BASINP    GEOM    SYMINP    ZMAT    AOBASIS   BASIS     P2S    ABASIS      S 
                                         1400     1410     1200     1210     1080     1600     1650     1300     1700   
                                           T        V       H0       H01     AOSYM     SMH    MOLCAS    ERIS     OPER   

              2       3        0.72       700     1000     2100   
                                         GEOM     BASIS     RHF  

 PROGRAMS   *        TOTAL       RHF       INT
 CPU TIMES  *         4.01      1.32      2.65
 REAL TIME  *         4.73 SEC
 DISK USED  *       541.02 MB      
 GA USED    *         0.00 MB       (max)       0.00 MB       (current)
 **********************************************************************************************************************************


1PROGRAM * CCSD (Closed-shell coupled cluster)     Authors: C. Hampel, H.-J. Werner, 1991, M. Deegan, P.J. Knowles, 1992


 Convergence thresholds:  THRVAR = 1.00D-08  THRDEN = 1.00D-12

 CCSD(T)     terms to be evaluated (factor= 1.000)


 Number of core orbitals:           5 (   3   2 )
 Number of closed-shell orbitals:  16 (   8   8 )
 Number of external orbitals:     109 (  55  54 )

 Molecular orbitals read from record     2100.2  Type=RHF/CANONICAL (state 1.1)

 Number of N-1 electron functions:              16
 Number of N-2 electron functions:             136
 Number of singly external CSFs:               872
 Number of doubly external CSFs:            761256
 Total number of CSFs:                      762129

 Length of J-op  integral file:               0.00 MB
 Length of K-op  integral file:               0.62 MB
 Length of 3-ext integral record:             0.00 MB

 Memory could be reduced to 14.22 Mwords without degradation in triples

 Integral transformation finished. Total CPU:   0.63 sec, npass=  1  Memory used:   8.40 MW

 Reference energy:                   -196.34772949

 MP2 singlet pair energy:              -0.48845298
 MP2 triplet pair energy:              -0.25007782
 MP2 correlation energy:               -0.73853080
 MP2 total energy:                   -197.08626030

 SCS-MP2 correlation energy:           -0.74174756   (PS=  1.200000  PT=  0.333333)
 SCS-MP2 total energy:               -197.08947705

 ITER.      SQ.NORM     CORR.ENERGY   TOTAL ENERGY   ENERGY CHANGE        DEN1      VAR(S)    VAR(P)  DIIS     TIME
   1      1.28821628    -0.80655601  -197.15428550    -0.06802521    -0.04667764  0.17D-02  0.47D-02  1  1     1.69
   2      1.31153016    -0.81148945  -197.15921894    -0.00493344    -0.02353908  0.47D-04  0.32D-03  2  2     2.82
   3      1.31553944    -0.81163930  -197.15936879    -0.00014985    -0.00243441  0.53D-05  0.22D-04  3  3     3.95
   4      1.31658352    -0.81170158  -197.15943107    -0.00006228    -0.00046365  0.25D-06  0.12D-05  4  4     5.08
   5      1.31670946    -0.81170596  -197.15943545    -0.00000438    -0.00005128  0.15D-07  0.93D-07  5  5     6.21
   6      1.31672193    -0.81170354  -197.15943303     0.00000242    -0.00000846  0.68D-09  0.61D-08  6  6     7.35
   7      1.31672050    -0.81170381  -197.15943331    -0.00000028     0.00000063  0.16D-09  0.52D-09  6  1     8.48
   8      1.31672021    -0.81170396  -197.15943345    -0.00000015     0.00000027  0.78D-11  0.30D-10  6  2     9.61
   9      1.31671992    -0.81170401  -197.15943350    -0.00000005     0.00000025  0.11D-11  0.25D-11  6  3    10.75
  10      1.31671981    -0.81170402  -197.15943351    -0.00000001     0.00000009  0.89D-13  0.22D-12  6  4    11.88
  11      1.31671975    -0.81170402  -197.15943351    -0.00000000     0.00000004  0.94D-14  0.24D-13  6  5    13.02
  12      1.31671971    -0.81170402  -197.15943351    -0.00000000     0.00000002  0.90D-15  0.12D-14  6  1    14.16
  13      1.31671971    -0.81170402  -197.15943351    -0.00000000     0.00000000  0.79D-16  0.70D-16  6  6    15.29
  14      1.31671971    -0.81170402  -197.15943351    -0.00000000     0.00000000  0.15D-16  0.96D-17  6  2    16.42
  15      1.31671971    -0.81170402  -197.15943351    -0.00000000     0.00000000  0.13D-17  0.11D-17  6  3    17.55
  16      1.31671971    -0.81170402  -197.15943351     0.00000000    -0.00000000  0.69D-19  0.91D-19  6  4    18.69
  17      1.31671971    -0.81170402  -197.15943351     0.00000000    -0.00000000  0.34D-20  0.85D-20  6  5    19.82
  18      1.31671971    -0.81170402  -197.15943351     0.00000000    -0.00000000  0.38D-21  0.12D-20  6  1    20.95
  19      1.31671971    -0.81170402  -197.15943351     0.00000000    -0.00000000  0.31D-22  0.16D-21  6  6    22.08

 Norm of t1 vector:      0.05469717      S-energy:    -0.00000000      T1 diagnostic:  0.00683715
                                                                       D1 diagnostic:  0.01260867


 Total CPU time for triples:     22.15 sec


 RESULTS
 =======

  Reference energy                   -196.347729494522
  CCSD singlet pair energy             -0.577587747406
  CCSD triplet pair energy             -0.234116272785
  CCSD correlation energy              -0.811704020191

  Triples (T) contribution             -0.023942413172
  Total correlation energy             -0.835646433362

  CCSD total energy                  -197.159433514712
  CCSD[T] energy                     -197.183835265803
  CCSD-T energy                      -197.183127266031
 !CCSD(T) total energy               -197.183375927884

 Timing summary (sec):

 STEP                 CPU(USER)    SYS     CPU(TOT)    WALL
 Transformation          0.64      0.09      0.73      0.74
 CCSD iterations        21.44      0.89     22.33     22.36
 Triples                22.15      0.71     22.86     22.87

 Program statistics:

 Available memory in ccsd:               999998876
 Min. memory needed in ccsd:               2001507
 Max. memory used in ccsd:                 2680419
 Max. memory used in cckext:               2701130 (19 integral passes)



 **********************************************************************************************************************************
 DATASETS  * FILE   NREC   LENGTH (MB)   RECORD NAMES
              1      20      207.12       500      610      700      900      950      970     1000      129      960     1100   
                                          VAR    BASINP    GEOM    SYMINP    ZMAT    AOBASIS   BASIS     P2S    ABASIS      S 
                                         1400     1410     1200     1210     1080     1600     1650     1300     1700     1380   
                                           T        V       H0       H01     AOSYM     SMH    MOLCAS    ERIS     OPER     JKOP   

              2       3        0.72       700     1000     2100   
                                         GEOM     BASIS     RHF  

 PROGRAMS   *        TOTAL   CCSD(T)       RHF       INT
 CPU TIMES  *        48.24     44.23      1.32      2.65
 REAL TIME  *        50.74 SEC
 DISK USED  *       541.02 MB      
 GA USED    *         0.00 MB       (max)       0.00 MB       (current)
 **********************************************************************************************************************************

        CCSD(T)         RHF-SCF 
   -197.18337593   -196.34772949
 **********************************************************************************************************************************
 Variable memory released
