
 Primary working directories    : /tmp/878919.472.gen5.q
 Secondary working directories  : /tmp/878919.472.gen5.q
 Wavefunction directory         : /home/vulcan/lo21740/wfu/
 Main file repository           : /tmp/878919.472.gen5.q/

 ARCHNAME  : Linux/x86_64
 FC        : /opt/intel/compilers_and_libraries_2016.1.150/linux/bin/intel64/ifort
 FCVERSION : 16.0.1
 BLASLIB   : -mkl
 id        : ccgc

 Nodes     nprocs
 n071         1
 ga_uses_ma=false, calling ma_init with nominal heap.
 GA-space will be limited to   8.0 MW (determined by -G option)

 Using customized tuning parameters: mindgm=10; mindgv=16; mindgc=4; mindgr=1; noblas=0; mincuda=1000; minvec=7
 default implementation of scratch files=df  

 ***,Optimization of formamide
 memory,1000,m
 gthresh,energy=1.0d-12,orbital=1.0d-10,oneint=1.0d-16,twoint=1.0d-16,optgrad=1.0d-6,compress=1.0d-13
 geomtyp=xyz
 
 bohr
 geometry = {
  C   -3.8260886206    0.0869207732   -0.0000000000
  O   -2.7319837518    2.1386400642    0.0000000000
  N   -2.6780302124   -2.1803245211   -0.0000000000
  H   -3.7399483046   -3.7559971058    0.0000000000
  H   -0.7538853739   -2.3045921980    0.0000000000
  H   -5.9024205426   -0.0182827856    0.0000000000
  C    3.8260886206   -0.0869207732    0.0000000000
  O    2.7319837518   -2.1386400642   -0.0000000000
  N    2.6780302124    2.1803245211    0.0000000000
  H    3.7399483046    3.7559971058    0.0000000000
  H    0.7538853739    2.3045921980    0.0000000000
  H    5.9024205426    0.0182827856    0.0000000000
 }
 
 basis=VDZ
 {rhf;maxit,200}
 {ccsd(t);maxit,200}

 Variables initialized (661), CPU time= 0.01 sec
 Commands  initialized (458), CPU time= 0.01 sec, 486 directives.
 Default parameters read. Elapsed time= 0.08 sec

 Checking input...
 Passed
1


                                         ***  PROGRAM SYSTEM MOLPRO  ***
                         Copyright, University College Cardiff Consultants Limited, 2008

                                    Version 2010.1 linked May 16 2016 07:17:05


 **********************************************************************************************************************************
 LABEL *   Optimization of formamide                                                     
 Linux-4.4.3/n071(x86_64) 64 bit mpp version                                             DATE: 22-May-23          TIME: 20:36:25  
 **********************************************************************************************************************************

 SHA1:             9e8077add272b0f3cad6f7df79ec5211205f459d
 **********************************************************************************************************************************

 THRESHOLDS:

 ZERO    =  1.00D-12  ONEINT  =  1.00D-16  TWOINT  =  1.00D-16  PREFAC  =  1.00D-14  LOCALI  =  1.00D-09  EORDER  =  1.00D-04
 ENERGY  =  1.00D-12  ETEST   =  0.00D+00  EDENS   =  0.00D+00  THRDEDEF=  1.00D-06  GRADIENT=  1.00D-02  STEP    =  1.00D-03
 ORBITAL =  1.00D-10  CIVEC   =  1.00D-05  COEFF   =  1.00D-04  PRINTCI =  5.00D-02  PUNCHCI =  9.90D+01  OPTGRAD =  1.00D-06
 OPTENERG=  1.00D-06  OPTSTEP =  3.00D-04  THRGRAD =  1.00D-10  COMPRESS=  1.00D-13  VARMIN  =  1.00D-07  VARMAX  =  1.00D-03
 THRDOUB =  0.00D+00  THRDIV  =  1.00D-05  THRRED  =  1.00D-07  THRPSP  =  1.00D+00  THRDC   =  1.00D-10  THRCS   =  1.00D-10
 THRNRM  =  1.00D-08  THREQ   =  0.00D+00  THRDE   =  1.00D+00  THRREF  =  1.00D-05  SPARFAC =  1.00D+00  THRDLP  =  1.00D-07
 THRDIA  =  1.00D-10  THRDLS  =  1.00D-07  THRGPS  =  0.00D+00  THRKEX  =  0.00D+00  THRDIS  =  2.00D-01  THRVAR  =  1.00D-10
 THRLOC  =  1.00D-06  THRGAP  =  1.00D-06  THRLOCT = -1.00D+00  THRGAPT = -1.00D+00  THRORB  =  1.00D-06  THRMLTP =  0.00D+00
 THRCPQCI=  1.00D-10  KEXTA   =  0.00D+00  THRCOARS=  0.00D+00  SYMTOL  =  1.00D-06  GRADTOL =  1.00D-06  THROVL  =  1.00D-08
 THRORTH =  1.00D-08  GRID    =  1.00D-06  GRIDMAX =  1.00D-03  DTMAX   =  0.00D+00

 SETTING GEOMTYP        =    XYZ
 ZUNIT=BOHR
 

 Variable memory set to 1000000000 words,  buffer space   230000 words

 SETTING BASIS          =    VDZ


 Recomputing integrals since basis changed


 Using spherical harmonics

 Library entry C      S cc-pVDZ              selected for orbital group  1
 Library entry C      P cc-pVDZ              selected for orbital group  1
 Library entry C      D cc-pVDZ              selected for orbital group  1
 Library entry O      S cc-pVDZ              selected for orbital group  2
 Library entry O      P cc-pVDZ              selected for orbital group  2
 Library entry O      D cc-pVDZ              selected for orbital group  2
 Library entry N      S cc-pVDZ              selected for orbital group  3
 Library entry N      P cc-pVDZ              selected for orbital group  3
 Library entry N      D cc-pVDZ              selected for orbital group  3
 Library entry H      S cc-pVDZ              selected for orbital group  4
 Library entry H      P cc-pVDZ              selected for orbital group  4

1PROGRAM * SEWARD (Integral evaluation for generally contracted gaussian basis sets)     Author: Roland Lindh, 1990

 Geometry written to block  1 of record 700


 Point group  C2h 



 ATOMIC COORDINATES

 NR  ATOM    CHARGE       X              Y              Z

   1  C       6.00   -3.826088621    0.086920773    0.000000000
   2  C       6.00    3.826088621   -0.086920773    0.000000000
   3  O       8.00   -2.731983752    2.138640064    0.000000000
   4  O       8.00    2.731983752   -2.138640064    0.000000000
   5  N       7.00   -2.678030212   -2.180324521    0.000000000
   6  N       7.00    2.678030212    2.180324521    0.000000000
   7  H       1.00   -3.739948305   -3.755997106    0.000000000
   8  H       1.00    3.739948305    3.755997106    0.000000000
   9  H       1.00   -0.753885374   -2.304592198    0.000000000
  10  H       1.00    0.753885374    2.304592198    0.000000000
  11  H       1.00   -5.902420543   -0.018282786    0.000000000
  12  H       1.00    5.902420543    0.018282786    0.000000000

 Bond lengths in Bohr (Angstrom)

  1- 3  2.325213434   1- 5  2.541345969   1-11  2.078995440   2- 4  2.325213434   2- 6  2.541345969
       ( 1.230449955)       ( 1.344822367)       ( 1.100157004)       ( 1.230449955)       ( 1.344822367)

  2-12  2.078995440   5- 7  1.900108978   5- 9  1.928153473   6- 8  1.900108978   6-10  1.928153473
       ( 1.100157004)       ( 1.005494366)       ( 1.020334873)       ( 1.005494366)       ( 1.020334873)

 Bond angles

  1- 5- 7  119.16600773   1- 5- 9  120.55137353   2- 6- 8  119.16600773   2- 6-10  120.55137353

  3- 1- 5  125.07452149   3- 1-11  120.96990654   4- 2- 6  125.07452149   4- 2-12  120.96990654

  5- 1-11  113.95557197   6- 2-12  113.95557197   7- 5- 9  120.28261874   8- 6-10  120.28261874

 NUCLEAR CHARGE:                   48
 NUMBER OF PRIMITIVE AOS:         204
 NUMBER OF SYMMETRY AOS:          198
 NUMBER OF CONTRACTIONS:          114   (  42Ag  +  15Au  +  42Bu  +  15Bg  )
 NUMBER OF CORE ORBITALS:           6   (   3Ag  +   0Au  +   3Bu  +   0Bg  )
 NUMBER OF VALENCE ORBITALS:       30   (  12Ag  +   3Au  +  12Bu  +   3Bg  )


 NUCLEAR REPULSION ENERGY  230.50777773


 Eigenvalues of metric

         1 0.556E-02 0.108E-01 0.153E-01 0.238E-01 0.304E-01 0.404E-01 0.417E-01 0.487E-01
         2 0.106E+00 0.169E+00 0.196E+00 0.400E+00 0.437E+00 0.495E+00 0.530E+00 0.601E+00
         3 0.572E-02 0.113E-01 0.154E-01 0.242E-01 0.280E-01 0.398E-01 0.411E-01 0.431E-01
         4 0.105E+00 0.173E+00 0.192E+00 0.408E+00 0.437E+00 0.499E+00 0.522E+00 0.590E+00


 Contracted 2-electron integrals neglected if value below      1.0D-16
 AO integral compression algorithm  1   Integral accuracy      1.0D-16

     56.361 MB (compressed) written to integral file (100.0%)

     Node minimum: 56.361 MB, node maximum: 56.361 MB


 NUMBER OF SORTED TWO-ELECTRON INTEGRALS:    5811279.     BUFFER LENGTH:  32768
 NUMBER OF SEGMENTS:   1  SEGMENT LENGTH:    5811279      RECORD LENGTH: 524288

 Memory used in sort:       6.37 MW

 SORT1 READ     6960680. AND WROTE     5811277. INTEGRALS IN     17 RECORDS. CPU TIME:     0.12 SEC, REAL TIME:     0.16 SEC
 SORT2 READ     5811277. AND WROTE     5811279. INTEGRALS IN    215 RECORDS. CPU TIME:     0.11 SEC, REAL TIME:     0.15 SEC

 FILE SIZES:   FILE 1:    50.0 MBYTE,  FILE 4:    71.3 MBYTE,   TOTAL:    121.3 MBYTE

 OPERATOR DM      FOR CENTER  0  COORDINATES:    0.000000    0.000000    0.000000


 **********************************************************************************************************************************
 DATASETS  * FILE   NREC   LENGTH (MB)   RECORD NAMES
              1      19       50.04       500      610      700      900      950      970     1000      129      960     1100   
                                          VAR    BASINP    GEOM    SYMINP    ZMAT    AOBASIS   BASIS     P2S    ABASIS      S 
                                         1400     1410     1200     1210     1080     1600     1650     1300     1700   
                                           T        V       H0       H01     AOSYM     SMH    MOLCAS    ERIS     OPER   

 PROGRAMS   *        TOTAL       INT
 CPU TIMES  *         2.32      2.19
 REAL TIME  *         2.92 SEC
 DISK USED  *       178.56 MB      
 GA USED    *         0.00 MB       (max)       0.00 MB       (current)
 **********************************************************************************************************************************

1PROGRAM * RHF-SCF (CLOSED SHELL)       Authors: W. Meyer, H.-J. Werner


 NUMBER OF ELECTRONS:      24+   24-
 CONVERGENCE THRESHOLDS:    1.00E-10 (Density)    1.00E-13 (Energy)
 MAX. NUMBER OF ITERATIONS:      200
 INTERPOLATION TYPE:            DIIS
 INTERPOLATION STEPS:              2 (START)      1 (STEP)
 LEVEL SHIFTS:                  0.00 (CLOSED)  0.00 (OPEN) 



 Orbital guess generated from atomic densities. Full valence occupancy:   15   3  15   3

 Molecular orbital dump at record        2100.2

 Initial alpha occupancy:  10   2  10   2
 Initial beta  occupancy:  10   2  10   2
 Wave function symmetry:    1

 ITERATION    DDIFF          GRAD             ENERGY        2-EL.EN.            DIPOLE MOMENTS         DIIS
    1      0.000D+00      0.000D+00      -337.77927321    705.417074    0.00000    0.00000    0.00000    0
    2      0.000D+00      0.171D-01      -337.85795677    700.212582    0.00000    0.00000    0.00000    1
    3      0.340D-01      0.121D-01      -337.91357964    702.692180    0.00000    0.00000    0.00000    2
    4      0.131D-01      0.159D-02      -337.91568116    702.676323    0.00000    0.00000    0.00000    3
    5      0.287D-02      0.563D-03      -337.91594879    702.605201    0.00000    0.00000    0.00000    4
    6      0.103D-02      0.187D-03      -337.91601685    702.624223    0.00000    0.00000    0.00000    5
    7      0.481D-03      0.840D-04      -337.91602823    702.619685    0.00000    0.00000    0.00000    6
    8      0.243D-03      0.220D-04      -337.91602893    702.620246    0.00000    0.00000    0.00000    7
    9      0.622D-04      0.562D-05      -337.91602898    702.619805    0.00000    0.00000    0.00000    7
   10      0.173D-04      0.126D-05      -337.91602898    702.620073    0.00000    0.00000    0.00000    7
   11      0.343D-05      0.334D-06      -337.91602898    702.619979    0.00000    0.00000    0.00000    7
   12      0.880D-06      0.113D-06      -337.91602898    702.619983    0.00000    0.00000    0.00000    7
   13      0.247D-06      0.381D-07      -337.91602898    702.619989    0.00000    0.00000    0.00000    7
   14      0.959D-07      0.856D-08      -337.91602898    702.619988    0.00000    0.00000    0.00000    7
   15      0.205D-07      0.186D-08      -337.91602898    702.619988    0.00000    0.00000    0.00000    7
   16      0.428D-08      0.455D-09      -337.91602898    702.619988    0.00000    0.00000    0.00000    7
   17      0.891D-09      0.165D-09      -337.91602898    702.619988    0.00000    0.00000    0.00000    7
   18      0.388D-09      0.369D-10      -337.91602898    702.619988    0.00000    0.00000    0.00000    7
   19      0.965D-10      0.109D-10      -337.91602898    702.619988    0.00000    0.00000    0.00000    7
   20      0.245D-10      0.187D-11      -337.91602898    702.619988    0.00000    0.00000    0.00000    7
   21      0.389D-11      0.526D-12      -337.91602898    702.619988    0.00000    0.00000    0.00000    0

 Final occupancy:  10   2  10   2

 !RHF STATE 1.1 Energy               -337.916028983462
 Nuclear energy                       230.50777773
 One-electron energy                 -919.73380090
 Two-electron energy                  351.30999419
 Virial quotient                       -1.00142822
 !RHF STATE 1.1 Dipole moment           0.00000000     0.00000000     0.00000000
 Dipole moment /Debye                   0.00000000     0.00000000     0.00000000

 Orbital energies:

         1.1          2.1          3.1          4.1          5.1          6.1          7.1          8.1          9.1         10.1
    -20.525487   -15.577025   -11.359274    -1.378494    -1.201865    -0.851950    -0.739871    -0.634811    -0.610477    -0.443471

        11.1         12.1
      0.186192     0.231761

         1.2          2.2          3.2          4.2
     -0.564957    -0.400983     0.194351     0.673790

         1.3          2.3          3.3          4.3          5.3          6.3          7.3          8.3          9.3         10.3
    -20.525487   -15.577024   -11.359274    -1.373769    -1.208000    -0.826791    -0.731185    -0.695800    -0.584190    -0.418695

        11.3         12.3
      0.188116     0.241760

         1.4          2.4          3.4          4.4
     -0.557487    -0.410539     0.201245     0.689655


 **********************************************************************************************************************************
 DATASETS  * FILE   NREC   LENGTH (MB)   RECORD NAMES
              1      19       50.04       500      610      700      900      950      970     1000      129      960     1100   
                                          VAR    BASINP    GEOM    SYMINP    ZMAT    AOBASIS   BASIS     P2S    ABASIS      S 
                                         1400     1410     1200     1210     1080     1600     1650     1300     1700   
                                           T        V       H0       H01     AOSYM     SMH    MOLCAS    ERIS     OPER   

              2       3        0.54       700     1000     2100   
                                         GEOM     BASIS     RHF  

 PROGRAMS   *        TOTAL       RHF       INT
 CPU TIMES  *         2.71      0.39      2.19
 REAL TIME  *         3.47 SEC
 DISK USED  *       178.56 MB      
 GA USED    *         0.00 MB       (max)       0.00 MB       (current)
 **********************************************************************************************************************************


1PROGRAM * CCSD (Closed-shell coupled cluster)     Authors: C. Hampel, H.-J. Werner, 1991, M. Deegan, P.J. Knowles, 1992


 Convergence thresholds:  THRVAR = 1.00D-08  THRDEN = 1.00D-12

 CCSD(T)     terms to be evaluated (factor= 1.000)


 Number of core orbitals:           6 (   3   0   3   0 )
 Number of closed-shell orbitals:  18 (   7   2   7   2 )
 Number of external orbitals:      90 (  32  13  32  13 )

 Molecular orbitals read from record     2100.2  Type=RHF/CANONICAL (state 1.1)

 Number of N-1 electron functions:              18
 Number of N-2 electron functions:             171
 Number of singly external CSFs:               500
 Number of doubly external CSFs:            346910
 Total number of CSFs:                      347411

 Length of J-op  integral file:               0.00 MB
 Length of K-op  integral file:               0.31 MB
 Length of 3-ext integral record:             0.00 MB

 Memory could be reduced to 5.11 Mwords without degradation in triples

 Integral transformation finished. Total CPU:   0.20 sec, npass=  1  Memory used:   2.18 MW

 Reference energy:                   -337.91602898

 MP2 singlet pair energy:              -0.58954289
 MP2 triplet pair energy:              -0.38302378
 MP2 correlation energy:               -0.97256667
 MP2 total energy:                   -338.88859565

 SCS-MP2 correlation energy:           -0.94577738   (PS=  1.200000  PT=  0.333333)
 SCS-MP2 total energy:               -338.86180636

 ITER.      SQ.NORM     CORR.ENERGY   TOTAL ENERGY   ENERGY CHANGE        DEN1      VAR(S)    VAR(P)  DIIS     TIME
   1      1.29758810    -1.00457182  -338.92060081    -0.03200515    -0.00236640  0.96D-02  0.55D-02  1  1     0.64
   2      1.32248036    -1.00721207  -338.92324106    -0.00264025    -0.02514225  0.22D-03  0.11D-02  2  2     1.10
   3      1.33512272    -1.00818538  -338.92421437    -0.00097331    -0.00560121  0.22D-03  0.47D-04  3  3     1.55
   4      1.34048621    -1.00795647  -338.92398546     0.00022891    -0.00169554  0.20D-04  0.81D-05  4  4     2.00
   5      1.34259638    -1.00789271  -338.92392169     0.00006377    -0.00043481  0.19D-05  0.10D-05  5  5     2.44
   6      1.34306427    -1.00786199  -338.92389097     0.00003072    -0.00004145  0.15D-06  0.13D-06  6  6     2.88
   7      1.34316961    -1.00785231  -338.92388129     0.00000968    -0.00000531  0.14D-07  0.15D-07  6  2     3.32
   8      1.34318758    -1.00785241  -338.92388139    -0.00000010    -0.00000001  0.17D-08  0.17D-08  6  1     3.76
   9      1.34318909    -1.00785210  -338.92388109     0.00000030     0.00000150  0.31D-09  0.22D-09  6  4     4.20
  10      1.34319214    -1.00785206  -338.92388105     0.00000004    -0.00000044  0.78D-10  0.21D-10  6  3     4.64
  11      1.34319205    -1.00785214  -338.92388112    -0.00000007     0.00000017  0.16D-10  0.52D-11  6  5     5.08
  12      1.34319186    -1.00785216  -338.92388114    -0.00000002     0.00000008  0.34D-11  0.13D-11  6  6     5.52
  13      1.34319161    -1.00785219  -338.92388118    -0.00000003     0.00000010  0.44D-12  0.21D-12  6  2     5.96
  14      1.34319150    -1.00785220  -338.92388118    -0.00000001     0.00000003  0.97D-13  0.33D-13  6  1     6.40
  15      1.34319148    -1.00785220  -338.92388118    -0.00000000     0.00000000  0.14D-13  0.85D-14  6  4     6.84
  16      1.34319146    -1.00785220  -338.92388118    -0.00000000     0.00000000  0.37D-14  0.14D-14  6  3     7.28
  17      1.34319146    -1.00785220  -338.92388119    -0.00000000    -0.00000000  0.86D-15  0.20D-15  6  5     7.72
  18      1.34319146    -1.00785220  -338.92388119    -0.00000000     0.00000000  0.62D-16  0.60D-16  6  6     8.17
  19      1.34319146    -1.00785220  -338.92388119    -0.00000000     0.00000000  0.19D-16  0.66D-17  6  2     8.61
  20      1.34319146    -1.00785220  -338.92388119    -0.00000000     0.00000000  0.23D-17  0.11D-17  6  1     9.06
  21      1.34319146    -1.00785220  -338.92388119    -0.00000000     0.00000000  0.26D-18  0.26D-18  6  4     9.50
  22      1.34319146    -1.00785220  -338.92388119     0.00000000     0.00000000  0.93D-19  0.29D-19  6  3     9.94
  23      1.34319146    -1.00785220  -338.92388119    -0.00000000     0.00000000  0.73D-20  0.46D-20  6  5    10.38
  24      1.34319146    -1.00785220  -338.92388119     0.00000000    -0.00000000  0.13D-20  0.93D-21  6  6    10.82
  25      1.34319146    -1.00785220  -338.92388119     0.00000000    -0.00000000  0.33D-21  0.12D-21  6  2    11.26

 Norm of t1 vector:      0.14897884      S-energy:     0.00000000      T1 diagnostic:  0.01755732
                                                                       D1 diagnostic:  0.06222826

 Singles amplitudes (print threshold =  0.500E-01):

         I         SYM. A    A   T(IA)

         8         2         1      0.05773451
        17         4         1      0.05866972


 Total CPU time for triples:      8.30 sec


 RESULTS
 =======

  Reference energy                   -337.916028983462
  CCSD singlet pair energy             -0.667823122454
  CCSD triplet pair energy             -0.340029079582
  CCSD correlation energy              -1.007852202035

  Triples (T) contribution             -0.032223654927
  Total correlation energy             -1.040075856961

  CCSD total energy                  -338.923881185497
  CCSD[T] energy                     -338.959099679991
  CCSD-T energy                      -338.955125992355
 !CCSD(T) total energy               -338.956104840424

 Timing summary (sec):

 STEP                 CPU(USER)    SYS     CPU(TOT)    WALL
 Transformation          0.21      0.05      0.26      0.24
 CCSD iterations        11.05      0.61     11.66     11.72
 Triples                 8.30      0.18      8.48      8.49

 Program statistics:

 Available memory in ccsd:               999998604
 Min. memory needed in ccsd:                956954
 Max. memory used in ccsd:                 1266776
 Max. memory used in cckext:               1354904 (25 integral passes)



 **********************************************************************************************************************************
 DATASETS  * FILE   NREC   LENGTH (MB)   RECORD NAMES
              1      20       71.48       500      610      700      900      950      970     1000      129      960     1100   
                                          VAR    BASINP    GEOM    SYMINP    ZMAT    AOBASIS   BASIS     P2S    ABASIS      S 
                                         1400     1410     1200     1210     1080     1600     1650     1300     1700     1380   
                                           T        V       H0       H01     AOSYM     SMH    MOLCAS    ERIS     OPER     JKOP   

              2       3        0.54       700     1000     2100   
                                         GEOM     BASIS     RHF  

 PROGRAMS   *        TOTAL   CCSD(T)       RHF       INT
 CPU TIMES  *        22.28     19.57      0.39      2.19
 REAL TIME  *        23.94 SEC
 DISK USED  *       190.21 MB      
 GA USED    *         0.00 MB       (max)       0.00 MB       (current)
 **********************************************************************************************************************************

        CCSD(T)         RHF-SCF 
   -338.95610484   -337.91602898
 **********************************************************************************************************************************
 Variable memory released
