
 Primary working directories    : /tmp/1049102.1101.gen5.q
 Secondary working directories  : /tmp/1049102.1101.gen5.q
 Wavefunction directory         : /home/vulcan/mel64643/wfu/
 Main file repository           : /tmp/1049102.1101.gen5.q/

 ARCHNAME  : Linux/x86_64
 FC        : /opt/intel/compilers_and_libraries_2016.1.150/linux/bin/intel64/ifort
 FCVERSION : 16.0.1
 BLASLIB   : -mkl
 id        : ccgc

 Nodes     nprocs
 n072         1
 ga_uses_ma=false, calling ma_init with nominal heap.
 GA-space will be limited to   8.0 MW (determined by -G option)

 Using customized tuning parameters: mindgm=10; mindgv=16; mindgc=4; mindgr=1; noblas=0; mincuda=1000; minvec=7
 default implementation of scratch files=df  

 ***,Optimization of h2o_3
 memory,1000,m
 gthresh,energy=1.0d-12,orbital=1.0d-10,oneint=1.0d-16,twoint=1.0d-16,optgrad=1.0d-6,compress=1.0d-13
 geomtyp=xyz
 
 
 
 bohr
 geometry = {
  C    0.9130713121    1.4053781408   -2.2728330720
  C    0.7373513506    2.7091400134    0.0186800073
  C    0.9959307059    1.4057039899    2.3026751858
  C    1.4286318513   -1.2015460768    2.2951585604
  C    1.6050791419   -2.5048165267    0.0036876686
  C    1.3465582726   -1.2011568642   -2.2801033776
  H    0.6919019194    2.4126506350   -4.0423269154
  H    0.3923166578    4.7277033393    0.0244440603
  H    0.8603263442    2.4166636033    4.0789098743
  H    1.6147468649   -2.2137813764    4.0662693041
  H    1.9442636378   -4.5248500633   -0.0022786193
  H    1.4867341901   -2.2107850632   -4.0570265345
  N   -5.4353085538   -0.3565258828   -0.0707215321
  H   -5.5841380927   -1.5678712194   -1.5511897722
  H   -6.0619461430   -1.3146232401    1.4689262558
  H   -3.5545875920   -0.0730730069    0.1978065836
 }
 
 basis=aug-cc-pvdz, H=cc-pvdz
 {rhf;maxit,200}
 {ccsd(t)}

 Variables initialized (661), CPU time= 0.00 sec
 Commands  initialized (458), CPU time= 0.01 sec, 486 directives.
 Default parameters read. Elapsed time= 0.04 sec

 Checking input...
 Passed
1


                                         ***  PROGRAM SYSTEM MOLPRO  ***
                         Copyright, University College Cardiff Consultants Limited, 2008

                                    Version 2010.1 linked May 16 2016 07:17:05


 **********************************************************************************************************************************
 LABEL *   Optimization of h2o_3                                                         
 Linux-4.4.3/n072(x86_64) 64 bit mpp version                                             DATE: 20-Mar-24          TIME: 11:58:22  
 **********************************************************************************************************************************

 SHA1:             9e8077add272b0f3cad6f7df79ec5211205f459d
 **********************************************************************************************************************************

 THRESHOLDS:

 ZERO    =  1.00D-12  ONEINT  =  1.00D-16  TWOINT  =  1.00D-16  PREFAC  =  1.00D-14  LOCALI  =  1.00D-09  EORDER  =  1.00D-04
 ENERGY  =  1.00D-12  ETEST   =  0.00D+00  EDENS   =  0.00D+00  THRDEDEF=  1.00D-06  GRADIENT=  1.00D-02  STEP    =  1.00D-03
 ORBITAL =  1.00D-10  CIVEC   =  1.00D-05  COEFF   =  1.00D-04  PRINTCI =  5.00D-02  PUNCHCI =  9.90D+01  OPTGRAD =  1.00D-06
 OPTENERG=  1.00D-06  OPTSTEP =  3.00D-04  THRGRAD =  1.00D-10  COMPRESS=  1.00D-13  VARMIN  =  1.00D-07  VARMAX  =  1.00D-03
 THRDOUB =  0.00D+00  THRDIV  =  1.00D-05  THRRED  =  1.00D-07  THRPSP  =  1.00D+00  THRDC   =  1.00D-10  THRCS   =  1.00D-10
 THRNRM  =  1.00D-08  THREQ   =  0.00D+00  THRDE   =  1.00D+00  THRREF  =  1.00D-05  SPARFAC =  1.00D+00  THRDLP  =  1.00D-07
 THRDIA  =  1.00D-10  THRDLS  =  1.00D-07  THRGPS  =  0.00D+00  THRKEX  =  0.00D+00  THRDIS  =  2.00D-01  THRVAR  =  1.00D-10
 THRLOC  =  1.00D-06  THRGAP  =  1.00D-06  THRLOCT = -1.00D+00  THRGAPT = -1.00D+00  THRORB  =  1.00D-06  THRMLTP =  0.00D+00
 THRCPQCI=  1.00D-10  KEXTA   =  0.00D+00  THRCOARS=  0.00D+00  SYMTOL  =  1.00D-06  GRADTOL =  1.00D-06  THROVL  =  1.00D-08
 THRORTH =  1.00D-08  GRID    =  1.00D-06  GRIDMAX =  1.00D-03  DTMAX   =  0.00D+00

 SETTING GEOMTYP        =    XYZ
 ZUNIT=BOHR
 

 Variable memory set to 1000000000 words,  buffer space   230000 words

 SETTING BASIS          =    AUG-CC-PVDZ,H=CC-PVDZ


 Recomputing integrals since basis changed


 Using spherical harmonics

 Library entry C      S aug-cc-pVDZ          selected for orbital group  1
 Library entry C      P aug-cc-pVDZ          selected for orbital group  1
 Library entry C      D aug-cc-pVDZ          selected for orbital group  1
 Library entry H      S cc-pVDZ              selected for orbital group  2
 Library entry H      P cc-pVDZ              selected for orbital group  2
 Library entry N      S aug-cc-pVDZ          selected for orbital group  3
 Library entry N      P aug-cc-pVDZ          selected for orbital group  3
 Library entry N      D aug-cc-pVDZ          selected for orbital group  3

1PROGRAM * SEWARD (Integral evaluation for generally contracted gaussian basis sets)     Author: Roland Lindh, 1990

 Geometry written to block  1 of record 700


 Point group  C1  



 ATOMIC COORDINATES

 NR  ATOM    CHARGE       X              Y              Z

   1  C       6.00    0.913071312    1.405378141   -2.272833072
   2  C       6.00    0.737351351    2.709140013    0.018680007
   3  C       6.00    0.995930706    1.405703990    2.302675186
   4  C       6.00    1.428631851   -1.201546077    2.295158560
   5  C       6.00    1.605079142   -2.504816527    0.003687669
   6  C       6.00    1.346558273   -1.201156864   -2.280103378
   7  H       1.00    0.691901919    2.412650635   -4.042326915
   8  H       1.00    0.392316658    4.727703339    0.024444060
   9  H       1.00    0.860326344    2.416663603    4.078909874
  10  H       1.00    1.614746865   -2.213781376    4.066269304
  11  H       1.00    1.944263638   -4.524850063   -0.002278619
  12  H       1.00    1.486734190   -2.210785063   -4.057026535
  13  N       7.00   -5.435308554   -0.356525883   -0.070721532
  14  H       1.00   -5.584138093   -1.567871219   -1.551189772
  15  H       1.00   -6.061946143   -1.314623240    1.468926256
  16  H       1.00   -3.554587592   -0.073073007    0.197806584

 Bond lengths in Bohr (Angstrom)

 1-2  2.642291566  1-6  2.642345272  1-7  2.048077694  2-3  2.642431215  2-8  2.047847666
     ( 1.398240476)     ( 1.398268896)     ( 1.083796038)     ( 1.398314375)     ( 1.083674312)

  3- 4  2.642922566   3- 9  2.048276727   4- 5  2.642061006   4-10  2.048436566   5- 6  2.642359381
       ( 1.398574387)       ( 1.083901362)       ( 1.398118469)       ( 1.083985945)       ( 1.398276362)

  5-11  2.048320582   6-12  2.048524907  13-14  1.918669843  13-15  1.918629856  13-16  1.920823838
       ( 1.083924569)       ( 1.084032693)       ( 1.015316352)       ( 1.015295192)       ( 1.016456198)

 Bond angles

  1- 2- 3  119.98067374   1- 2- 8  120.00071502   1- 6- 5  120.02353284   1- 6-12  119.98605995

  2-1-6  120.00198958   2-1-7  119.96212945   2-3-4  120.01167908   2-3-9  119.97446347

  3- 2- 8  120.01801856   3- 4- 5  120.00136165   3- 4-10  119.99316100   4- 3- 9  120.01385485

  4- 5- 6  119.98073518   4- 5-11  120.00337182   5- 4-10  120.00422585   5- 6-12  119.99024372

  6- 1- 7  120.03223206   6- 5-11  120.01585785  14-13-15  106.17607583  14-13-16  106.08043224

 15-13-16  106.33745550

 NUCLEAR CHARGE:                   52
 NUMBER OF PRIMITIVE AOS:         322
 NUMBER OF SYMMETRY AOS:          308
 NUMBER OF CONTRACTIONS:          206   ( 206A   )
 NUMBER OF CORE ORBITALS:           7   (   7A   )
 NUMBER OF VALENCE ORBITALS:       37   (  37A   )


 NUCLEAR REPULSION ENERGY  273.78560362


 Eigenvalues of metric

         1 0.861E-05 0.184E-04 0.228E-04 0.532E-04 0.643E-04 0.644E-04 0.107E-03 0.107E-03


 Contracted 2-electron integrals neglected if value below      1.0D-16
 AO integral compression algorithm  1   Integral accuracy      1.0D-16

     1892.680 MB (compressed) written to integral file ( 94.6%)

     Node minimum: 1892.680 MB, node maximum: 1892.680 MB


 NUMBER OF SORTED TWO-ELECTRON INTEGRALS:  227303181.     BUFFER LENGTH:  32768
 NUMBER OF SEGMENTS:  15  SEGMENT LENGTH:   15999503      RECORD LENGTH: 524288

 Memory used in sort:      16.56 MW

 SORT1 READ   250231021. AND WROTE   226415270. INTEGRALS IN    654 RECORDS. CPU TIME:     2.52 SEC, REAL TIME:     3.94 SEC
 SORT2 READ   226415270. AND WROTE   227303181. INTEGRALS IN   7220 RECORDS. CPU TIME:     1.56 SEC, REAL TIME:     2.53 SEC

 FILE SIZES:   FILE 1:  1743.6 MBYTE,  FILE 4:  2743.1 MBYTE,   TOTAL:   4486.7 MBYTE

 OPERATOR DM      FOR CENTER  0  COORDINATES:    0.000000    0.000000    0.000000


 **********************************************************************************************************************************
 DATASETS  * FILE   NREC   LENGTH (MB)   RECORD NAMES
              1      19     1744.13       500      610      700      900      950      970     1000      129      960     1100   
                                          VAR    BASINP    GEOM    SYMINP    ZMAT    AOBASIS   BASIS     P2S    ABASIS      S 
                                         1400     1410     1200     1210     1080     1600     1650     1300     1700   
                                           T        V       H0       H01     AOSYM     SMH    MOLCAS    ERIS     OPER   

 PROGRAMS   *        TOTAL       INT
 CPU TIMES  *        15.09     15.05
 REAL TIME  *        18.91 SEC
 DISK USED  *         6.38 GB      
 GA USED    *         0.01 MB       (max)       0.00 MB       (current)
 **********************************************************************************************************************************

1PROGRAM * RHF-SCF (CLOSED SHELL)       Authors: W. Meyer, H.-J. Werner


 NUMBER OF ELECTRONS:      26+   26-    SPACE SYMMETRY=1    SPIN SYMMETRY: Singlet 
 CONVERGENCE THRESHOLDS:    1.00E-10 (Density)    1.00E-13 (Energy)
 MAX. NUMBER OF ITERATIONS:      200
 INTERPOLATION TYPE:            DIIS
 INTERPOLATION STEPS:              2 (START)      1 (STEP)
 LEVEL SHIFTS:                  0.00 (CLOSED)  0.00 (OPEN) 



 Orbital guess generated from atomic densities. Full valence occupancy:   44

 Molecular orbital dump at record        2100.2

 ITERATION    DDIFF          GRAD             ENERGY        2-EL.EN.            DIPOLE MOMENTS         DIIS
    1      0.000D+00      0.000D+00      -286.85320381    741.032768    0.52002   -0.76789    0.13625    0
    2      0.000D+00      0.322D-02      -286.92076223    735.243898    0.43543   -0.38398    0.06230    1
    3      0.826D-02      0.133D-02      -286.93008872    737.875101    0.45198   -0.52270    0.09238    2
    4      0.218D-02      0.381D-03      -286.93130658    737.355438    0.45047   -0.49586    0.08459    3
    5      0.783D-03      0.526D-04      -286.93133039    737.344163    0.45632   -0.50601    0.08857    4
    6      0.135D-03      0.177D-04      -286.93133283    737.359060    0.45516   -0.50049    0.08648    5
    7      0.511D-04      0.554D-05      -286.93133311    737.355990    0.45581   -0.50271    0.08723    6
    8      0.150D-04      0.129D-05      -286.93133313    737.354983    0.45596   -0.50235    0.08709    7
    9      0.418D-05      0.541D-06      -286.93133313    737.355441    0.45600   -0.50244    0.08712    7
   10      0.148D-05      0.143D-06      -286.93133313    737.355390    0.45600   -0.50245    0.08712    7
   11      0.518D-06      0.413D-07      -286.93133313    737.355376    0.45601   -0.50244    0.08712    7
   12      0.143D-06      0.177D-07      -286.93133313    737.355390    0.45601   -0.50245    0.08712    8
   13      0.625D-07      0.777D-08      -286.93133313    737.355384    0.45601   -0.50245    0.08712    8
   14      0.349D-07      0.369D-08      -286.93133313    737.355387    0.45601   -0.50245    0.08712    8
   15      0.206D-07      0.139D-08      -286.93133313    737.355386    0.45601   -0.50245    0.08712    8
   16      0.722D-08      0.458D-09      -286.93133313    737.355386    0.45601   -0.50245    0.08712    9
   17      0.211D-08      0.125D-09      -286.93133313    737.355386    0.45601   -0.50245    0.08712    9
   18      0.397D-09      0.387D-10      -286.93133313    737.355386    0.45601   -0.50245    0.08712    9
   19      0.308D-09      0.165D-10      -286.93133313    737.355386    0.45601   -0.50245    0.08712    9
   20      0.210D-09      0.868D-11      -286.93133313    737.355386    0.45601   -0.50245    0.08712    9
   21      0.141D-09      0.414D-11      -286.93133313    737.355386    0.45601   -0.50245    0.08712    9
   22      0.156D-09      0.121D-11      -286.93133313    737.355386    0.45601   -0.50245    0.08712    9
   23      0.116D-09      0.759D-12      -286.93133313    737.355386    0.45601   -0.50245    0.08712    9
   24      0.731D-10      0.655D-12      -286.93133313    737.355386    0.45601   -0.50245    0.08712    9
   25      0.709D-10      0.627D-12      -286.93133313    737.355386    0.45601   -0.50245    0.08712    9
   26      0.466D-10      0.582D-12      -286.93133313    737.355386    0.45601   -0.50245    0.08712    0

 Final occupancy:  26

 !RHF STATE 1.1 Energy               -286.931333129993
 Nuclear energy                       273.78560362
 One-electron energy                 -929.39462961
 Two-electron energy                  368.67769286
 Virial quotient                       -1.00146416
 !RHF STATE 1.1 Dipole moment           0.45600834    -0.50244592     0.08711903
 Dipole moment /Debye                   1.15898168    -1.27700651     0.22141998

 Orbital energies:

         1.1          2.1          3.1          4.1          5.1          6.1          7.1          8.1          9.1         10.1
    -15.534930   -11.250641   -11.250035   -11.249680   -11.248813   -11.248667   -11.247837    -1.157525    -1.125498    -1.022067

        11.1         12.1         13.1         14.1         15.1         16.1         17.1         18.1         19.1         20.1
     -1.021962    -0.830645    -0.830547    -0.714513    -0.650461    -0.623929    -0.611672    -0.609766    -0.593587    -0.593464

        21.1         22.1         23.1         24.1         25.1         26.1         27.1         28.1
     -0.504937    -0.500074    -0.500004    -0.413379    -0.342994    -0.341995     0.063886     0.066421


 **********************************************************************************************************************************
 DATASETS  * FILE   NREC   LENGTH (MB)   RECORD NAMES
              1      19     1744.13       500      610      700      900      950      970     1000      129      960     1100   
                                          VAR    BASINP    GEOM    SYMINP    ZMAT    AOBASIS   BASIS     P2S    ABASIS      S 
                                         1400     1410     1200     1210     1080     1600     1650     1300     1700   
                                           T        V       H0       H01     AOSYM     SMH    MOLCAS    ERIS     OPER   

              2       3        1.40       700     1000     2100   
                                         GEOM     BASIS     RHF  

 PROGRAMS   *        TOTAL       RHF       INT
 CPU TIMES  *        62.38     47.29     15.05
 REAL TIME  *        71.40 SEC
 DISK USED  *         6.38 GB      
 GA USED    *         0.01 MB       (max)       0.00 MB       (current)
 **********************************************************************************************************************************


1PROGRAM * CCSD (Closed-shell coupled cluster)     Authors: C. Hampel, H.-J. Werner, 1991, M. Deegan, P.J. Knowles, 1992


 Convergence thresholds:  THRVAR = 1.00D-08  THRDEN = 1.00D-12

 CCSD(T)     terms to be evaluated (factor= 1.000)


 Number of core orbitals:           7 (   7 )
 Number of closed-shell orbitals:  19 (  19 )
 Number of external orbitals:     180 ( 180 )

 Molecular orbitals read from record     2100.2  Type=RHF/CANONICAL (state 1.1)

 Number of N-1 electron functions:              19
 Number of N-2 electron functions:             190
 Number of singly external CSFs:              3420
 Number of doubly external CSFs:           5849910
 Total number of CSFs:                     5853331

 Length of J-op  integral file:               0.00 MB
 Length of K-op  integral file:               2.96 MB
 Length of 3-ext integral record:             0.00 MB

 Memory could be reduced to 140.12 Mwords without degradation in triples

 Integral transformation finished. Total CPU:  14.36 sec, npass=  1  Memory used: 101.90 MW

 Reference energy:                   -286.93133313

 MP2 singlet pair energy:              -0.62064467
 MP2 triplet pair energy:              -0.38986140
 MP2 correlation energy:               -1.01050607
 MP2 total energy:                   -287.94183920

 SCS-MP2 correlation energy:           -0.98735403   (PS=  1.200000  PT=  0.333333)
 SCS-MP2 total energy:               -287.91868716

 ITER.      SQ.NORM     CORR.ENERGY   TOTAL ENERGY   ENERGY CHANGE        DEN1      VAR(S)    VAR(P)  DIIS     TIME
   1      1.38488648    -1.05478898  -287.98612211    -0.04428292    -0.01720317  0.36D-02  0.80D-02  1  1    50.52
   2      1.41439950    -1.06065105  -287.99198418    -0.00586206    -0.02705370  0.63D-04  0.10D-02  2  2    87.16
   3      1.42352985    -1.06074664  -287.99207977    -0.00009560    -0.00464300  0.27D-04  0.84D-04  3  3   123.84
   4      1.42746682    -1.06091534  -287.99224847    -0.00016870    -0.00121405  0.22D-05  0.11D-04  4  4   160.66
   5      1.42868059    -1.06094629  -287.99227942    -0.00003095    -0.00027329  0.27D-06  0.13D-05  5  5   197.46
   6      1.42898333    -1.06093605  -287.99226918     0.00001024    -0.00004353  0.23D-07  0.79D-07  6  6   234.28
   7      1.42902408    -1.06093768  -287.99227081    -0.00000163    -0.00000103  0.35D-08  0.82D-08  6  2   271.11
   8      1.42903330    -1.06093754  -287.99227067     0.00000014    -0.00000118  0.75D-09  0.76D-09  6  1   307.93
   9      1.42903313    -1.06093767  -287.99227080    -0.00000013     0.00000123  0.21D-09  0.92D-10  6  4   344.78
  10      1.42903433    -1.06093769  -287.99227082    -0.00000001    -0.00000018  0.57D-10  0.15D-10  6  3   381.62
  11      1.42903428    -1.06093770  -287.99227083    -0.00000002     0.00000013  0.14D-10  0.37D-11  6  5   418.45
  12      1.42903423    -1.06093771  -287.99227084    -0.00000000     0.00000003  0.15D-11  0.10D-11  6  6   455.29
  13      1.42903406    -1.06093771  -287.99227084    -0.00000000     0.00000006  0.69D-13  0.20D-12  6  2   492.14
  14      1.42903396    -1.06093771  -287.99227084    -0.00000000     0.00000003  0.81D-14  0.40D-13  6  1   528.96
  15      1.42903390    -1.06093771  -287.99227084    -0.00000000     0.00000001  0.89D-15  0.53D-14  6  3   565.82
  16      1.42903388    -1.06093771  -287.99227084    -0.00000000     0.00000000  0.12D-15  0.37D-15  6  4   602.66
  17      1.42903387    -1.06093771  -287.99227084    -0.00000000     0.00000000  0.31D-16  0.44D-16  6  5   639.49
  18      1.42903387    -1.06093771  -287.99227084    -0.00000000     0.00000000  0.81D-17  0.71D-17  6  6   676.33
  19      1.42903387    -1.06093771  -287.99227084    -0.00000000     0.00000000  0.23D-17  0.76D-18  6  2   713.14
  20      1.42903387    -1.06093771  -287.99227084    -0.00000000     0.00000000  0.75D-18  0.18D-18  6  1   749.96
  21      1.42903387    -1.06093771  -287.99227084    -0.00000000     0.00000000  0.29D-18  0.77D-19  6  3   786.82
  22      1.42903387    -1.06093771  -287.99227084    -0.00000000     0.00000000  0.12D-18  0.36D-19  6  4   823.63
  23      1.42903387    -1.06093771  -287.99227084    -0.00000000     0.00000000  0.51D-19  0.19D-19  6  5   860.46

 Norm of t1 vector:      0.08385859      S-energy:    -0.00000000      T1 diagnostic:  0.00961924
                                                                       D1 diagnostic:  0.02620638

 Doubles amplitudes (print threshold =  0.500E-01):

         I         J         SYM. A    SYM. B    A         B      T(IJ, AB)

        18        18         1         1         6         6     -0.05127167
        19        19         1         1         7         7     -0.05460109


 Total CPU time for triples:    762.63 sec


 RESULTS
 =======

  Reference energy                   -286.931333129994
  CCSD singlet pair energy             -0.711163810533
  CCSD triplet pair energy             -0.349773899746
  CCSD correlation energy              -1.060937710280

  Triples (T) contribution             -0.045607977218
  Total correlation energy             -1.106545687498

  CCSD total energy                  -287.992270840274
  CCSD[T] energy                     -288.038749169762
  CCSD-T energy                      -288.037490175300
 !CCSD(T) total energy               -288.037878817492

 Timing summary (sec):

 STEP                 CPU(USER)    SYS     CPU(TOT)    WALL
 Transformation         14.79      0.92     15.71     15.72
 CCSD iterations       845.70     13.14    858.84    858.94
 Triples               762.63     13.11    775.74    775.77

 Program statistics:

 Available memory in ccsd:               999998456
 Min. memory needed in ccsd:              14392275
 Max. memory used in ccsd:                19775697
 Max. memory used in cckext:              16737545 (23 integral passes)



 **********************************************************************************************************************************
 DATASETS  * FILE   NREC   LENGTH (MB)   RECORD NAMES
              1      20     2287.73       500      610      700      900      950      970     1000      129      960     1100   
                                          VAR    BASINP    GEOM    SYMINP    ZMAT    AOBASIS   BASIS     P2S    ABASIS      S 
                                         1400     1410     1200     1210     1080     1600     1650     1300     1700     1380   
                                           T        V       H0       H01     AOSYM     SMH    MOLCAS    ERIS     OPER     JKOP   

              2       3        1.40       700     1000     2100   
                                         GEOM     BASIS     RHF  

 PROGRAMS   *        TOTAL   CCSD(T)       RHF       INT
 CPU TIMES  *      1685.51   1623.13     47.29     15.05
 REAL TIME  *      1721.94 SEC
 DISK USED  *         6.38 GB      
 GA USED    *         0.01 MB       (max)       0.00 MB       (current)
 **********************************************************************************************************************************

        CCSD(T)         RHF-SCF 
   -288.03787882   -286.93133313
 **********************************************************************************************************************************
 Variable memory released
