
 Primary working directories    : /tmp/984684.207.gen4.q
 Secondary working directories  : /tmp/984684.207.gen4.q
 Wavefunction directory         : /home/vulcan/mel64643/wfu/
 Main file repository           : /tmp/984684.207.gen4.q/

 ARCHNAME  : Linux/x86_64
 FC        : /opt/intel/compilers_and_libraries_2016.1.150/linux/bin/intel64/ifort
 FCVERSION : 16.0.1
 BLASLIB   : -mkl
 id        : ccgc

 Nodes     nprocs
 n056         1
 ga_uses_ma=false, calling ma_init with nominal heap.
 GA-space will be limited to   8.0 MW (determined by -G option)

 Using customized tuning parameters: mindgm=10; mindgv=16; mindgc=4; mindgr=1; noblas=0; mincuda=1000; minvec=7
 default implementation of scratch files=df  

 ***,Optimization of nh3_h20
 memory,1000,m
 gthresh,energy=1.0d-12,orbital=1.0d-10,oneint=1.0d-16,twoint=1.0d-16,optgrad=1.0d-6,compress=1.0d-13
 geomtyp=xyz
 
 
 
 bohr
 geometry = {
  O   -3.2274892225    0.0716799193    0.0068159676
  H   -1.4014441907   -0.1482794203   -0.0029056553
  H   -3.8962211502   -1.6160168095   -0.0036698437
  N    2.3269301064   -0.0232835307   -0.0003658190
  H    2.7058693497    1.8576854956   -0.0013701502
  H    3.2046770598   -0.7590821083   -1.5386451624
  H    3.2025099196   -0.7570017109    1.5401406630
 }
 
 basis=cc-pvdz
 {rhf;maxit,200}
 {mp2}

 Variables initialized (661), CPU time= 0.01 sec
 Commands  initialized (458), CPU time= 0.00 sec, 486 directives.
 Default parameters read. Elapsed time= 0.05 sec

 Checking input...
 Passed
1


                                         ***  PROGRAM SYSTEM MOLPRO  ***
                         Copyright, University College Cardiff Consultants Limited, 2008

                                    Version 2010.1 linked May 16 2016 07:17:05


 **********************************************************************************************************************************
 LABEL *   Optimization of nh3_h20                                                       
 Linux-4.4.3/n056(x86_64) 64 bit mpp version                                             DATE: 22-Jan-24          TIME: 10:57:00  
 **********************************************************************************************************************************

 SHA1:             9e8077add272b0f3cad6f7df79ec5211205f459d
 **********************************************************************************************************************************

 THRESHOLDS:

 ZERO    =  1.00D-12  ONEINT  =  1.00D-16  TWOINT  =  1.00D-16  PREFAC  =  1.00D-14  LOCALI  =  1.00D-09  EORDER  =  1.00D-04
 ENERGY  =  1.00D-12  ETEST   =  0.00D+00  EDENS   =  0.00D+00  THRDEDEF=  1.00D-06  GRADIENT=  1.00D-02  STEP    =  1.00D-03
 ORBITAL =  1.00D-10  CIVEC   =  1.00D-05  COEFF   =  1.00D-04  PRINTCI =  5.00D-02  PUNCHCI =  9.90D+01  OPTGRAD =  1.00D-06
 OPTENERG=  1.00D-06  OPTSTEP =  3.00D-04  THRGRAD =  1.00D-10  COMPRESS=  1.00D-13  VARMIN  =  1.00D-07  VARMAX  =  1.00D-03
 THRDOUB =  0.00D+00  THRDIV  =  1.00D-05  THRRED  =  1.00D-07  THRPSP  =  1.00D+00  THRDC   =  1.00D-10  THRCS   =  1.00D-10
 THRNRM  =  1.00D-08  THREQ   =  0.00D+00  THRDE   =  1.00D+00  THRREF  =  1.00D-05  SPARFAC =  1.00D+00  THRDLP  =  1.00D-07
 THRDIA  =  1.00D-10  THRDLS  =  1.00D-07  THRGPS  =  0.00D+00  THRKEX  =  0.00D+00  THRDIS  =  2.00D-01  THRVAR  =  1.00D-10
 THRLOC  =  1.00D-06  THRGAP  =  1.00D-06  THRLOCT = -1.00D+00  THRGAPT = -1.00D+00  THRORB  =  1.00D-06  THRMLTP =  0.00D+00
 THRCPQCI=  1.00D-10  KEXTA   =  0.00D+00  THRCOARS=  0.00D+00  SYMTOL  =  1.00D-06  GRADTOL =  1.00D-06  THROVL  =  1.00D-08
 THRORTH =  1.00D-08  GRID    =  1.00D-06  GRIDMAX =  1.00D-03  DTMAX   =  0.00D+00

 SETTING GEOMTYP        =    XYZ
 ZUNIT=BOHR
 

 Variable memory set to 1000000000 words,  buffer space   230000 words

 SETTING BASIS          =    CC-PVDZ


 Recomputing integrals since basis changed


 Using spherical harmonics

 Library entry O      S cc-pVDZ              selected for orbital group  1
 Library entry O      P cc-pVDZ              selected for orbital group  1
 Library entry O      D cc-pVDZ              selected for orbital group  1
 Library entry H      S cc-pVDZ              selected for orbital group  2
 Library entry H      P cc-pVDZ              selected for orbital group  2
 Library entry N      S cc-pVDZ              selected for orbital group  3
 Library entry N      P cc-pVDZ              selected for orbital group  3
 Library entry N      D cc-pVDZ              selected for orbital group  3

1PROGRAM * SEWARD (Integral evaluation for generally contracted gaussian basis sets)     Author: Roland Lindh, 1990

 Geometry written to block  1 of record 700


 Point group  C1  



 ATOMIC COORDINATES

 NR  ATOM    CHARGE       X              Y              Z

   1  O       8.00   -3.227489223    0.071679919    0.006815968
   2  H       1.00   -1.401444191   -0.148279420   -0.002905655
   3  H       1.00   -3.896221150   -1.616016810   -0.003669844
   4  N       7.00    2.326930106   -0.023283531   -0.000365819
   5  H       1.00    2.705869350    1.857685496   -0.001370150
   6  H       1.00    3.204677060   -0.759082108   -1.538645162
   7  H       1.00    3.202509920   -0.757001711    1.540140663

 Bond lengths in Bohr (Angstrom)

 1-2  1.839270801  1-3  1.815387725  4-5  1.918760130  4-6  1.917848430  4-7  1.917848429
     ( 0.973300189)     ( 0.960661810)     ( 1.015364130)     ( 1.014881679)     ( 1.014881679)

 Bond angles

  2-1-3  104.74458362   5-4-6  106.57651697   5-4-7  106.57651977   6-4-7  106.77108431

 NUCLEAR CHARGE:                   20
 NUMBER OF PRIMITIVE AOS:          89
 NUMBER OF SYMMETRY AOS:           87
 NUMBER OF CONTRACTIONS:           53   (  53A   )
 NUMBER OF CORE ORBITALS:           2   (   2A   )
 NUMBER OF VALENCE ORBITALS:       13   (  13A   )


 NUCLEAR REPULSION ENERGY   38.79837889


 Eigenvalues of metric

         1 0.154E-01 0.165E-01 0.391E-01 0.406E-01 0.423E-01 0.453E-01 0.465E-01 0.664E-01


 Contracted 2-electron integrals neglected if value below      1.0D-16
 AO integral compression algorithm  1   Integral accuracy      1.0D-16

     8.651 MB (compressed) written to integral file ( 90.3%)

     Node minimum: 8.651 MB, node maximum: 8.651 MB


 NUMBER OF SORTED TWO-ELECTRON INTEGRALS:    1024596.     BUFFER LENGTH:  32768
 NUMBER OF SEGMENTS:   1  SEGMENT LENGTH:    1024596      RECORD LENGTH: 524288

 Memory used in sort:       1.58 MW

 SORT1 READ     1216809. AND WROTE     1013181. INTEGRALS IN      3 RECORDS. CPU TIME:     0.02 SEC, REAL TIME:     0.01 SEC
 SORT2 READ     1013181. AND WROTE     1024596. INTEGRALS IN     33 RECORDS. CPU TIME:     0.02 SEC, REAL TIME:     0.03 SEC

 FILE SIZES:   FILE 1:    10.0 MBYTE,  FILE 4:    12.6 MBYTE,   TOTAL:     22.6 MBYTE

 OPERATOR DM      FOR CENTER  0  COORDINATES:    0.000000    0.000000    0.000000


 **********************************************************************************************************************************
 DATASETS  * FILE   NREC   LENGTH (MB)   RECORD NAMES
              1      19       10.01       500      610      700      900      950      970     1000      129      960     1100   
                                          VAR    BASINP    GEOM    SYMINP    ZMAT    AOBASIS   BASIS     P2S    ABASIS      S 
                                         1400     1410     1200     1210     1080     1600     1650     1300     1700   
                                           T        V       H0       H01     AOSYM     SMH    MOLCAS    ERIS     OPER   

 PROGRAMS   *        TOTAL       INT
 CPU TIMES  *         0.28      0.23
 REAL TIME  *         0.46 SEC
 DISK USED  *        31.90 MB      
 GA USED    *         0.00 MB       (max)       0.00 MB       (current)
 **********************************************************************************************************************************

1PROGRAM * RHF-SCF (CLOSED SHELL)       Authors: W. Meyer, H.-J. Werner


 NUMBER OF ELECTRONS:      10+   10-    SPACE SYMMETRY=1    SPIN SYMMETRY: Singlet 
 CONVERGENCE THRESHOLDS:    1.00E-10 (Density)    1.00E-13 (Energy)
 MAX. NUMBER OF ITERATIONS:      200
 INTERPOLATION TYPE:            DIIS
 INTERPOLATION STEPS:              2 (START)      1 (STEP)
 LEVEL SHIFTS:                  0.00 (CLOSED)  0.00 (OPEN) 



 Orbital guess generated from atomic densities. Full valence occupancy:   15

 Molecular orbital dump at record        2100.2

 ITERATION    DDIFF          GRAD             ENERGY        2-EL.EN.            DIPOLE MOMENTS         DIIS
    1      0.000D+00      0.000D+00      -132.17172079    177.625249    1.78184   -0.80975   -0.00992    0
    2      0.000D+00      0.136D-01      -132.21977933    172.701361    1.38881   -0.48149   -0.00626    1
    3      0.257D-01      0.674D-02      -132.23124079    174.643654    1.42694   -0.55389   -0.00704    2
    4      0.826D-02      0.950D-03      -132.23170897    174.493984    1.40517   -0.54226   -0.00691    3
    5      0.198D-02      0.229D-03      -132.23173752    174.491272    1.39791   -0.54084   -0.00689    4
    6      0.479D-03      0.673D-04      -132.23173949    174.499075    1.39685   -0.54014   -0.00688    5
    7      0.125D-03      0.211D-04      -132.23173975    174.496757    1.39615   -0.54012   -0.00688    6
    8      0.414D-04      0.310D-05      -132.23173976    174.496735    1.39601   -0.54007   -0.00688    7
    9      0.885D-05      0.499D-06      -132.23173976    174.496722    1.39599   -0.54007   -0.00688    6
   10      0.113D-05      0.127D-06      -132.23173976    174.496719    1.39599   -0.54007   -0.00688    6
   11      0.301D-06      0.358D-07      -132.23173976    174.496724    1.39599   -0.54007   -0.00688    6
   12      0.955D-07      0.100D-07      -132.23173976    174.496721    1.39599   -0.54007   -0.00688    6
   13      0.214D-07      0.380D-08      -132.23173976    174.496722    1.39599   -0.54007   -0.00688    6
   14      0.719D-08      0.826D-09      -132.23173976    174.496722    1.39599   -0.54007   -0.00688    7
   15      0.181D-08      0.272D-09      -132.23173976    174.496722    1.39599   -0.54007   -0.00688    7
   16      0.534D-09      0.901D-10      -132.23173976    174.496722    1.39599   -0.54007   -0.00688    7
   17      0.197D-09      0.183D-10      -132.23173976    174.496722    1.39599   -0.54007   -0.00688    7
   18      0.533D-10      0.292D-11      -132.23173976    174.496722    1.39599   -0.54007   -0.00688    7
   19      0.620D-11      0.657D-12      -132.23173976    174.496722    1.39599   -0.54007   -0.00688    6
   20      0.132D-11      0.182D-12      -132.23173976    174.496722    1.39599   -0.54007   -0.00688    7
   21      0.368D-12      0.652D-13      -132.23173976    174.496722    1.39599   -0.54007   -0.00688    0

 Final occupancy:  10

 !RHF STATE 1.1 Energy               -132.231739756886
 Nuclear energy                        38.79837889
 One-electron energy                 -258.27847969
 Two-electron energy                   87.24836105
 Virial quotient                       -1.00119991
 !RHF STATE 1.1 Dipole moment           1.39599364    -0.54007249    -0.00687846
 Dipole moment /Debye                   3.54802953    -1.37263744    -0.01748216

 Orbital energies:

         1.1          2.1          3.1          4.1          5.1          6.1          7.1          8.1          9.1         10.1
    -20.502769   -15.568320    -1.288194    -1.161274    -0.658202    -0.645079    -0.642503    -0.529104    -0.449156    -0.446278

        11.1         12.1
      0.166138     0.237541


 **********************************************************************************************************************************
 DATASETS  * FILE   NREC   LENGTH (MB)   RECORD NAMES
              1      19       10.01       500      610      700      900      950      970     1000      129      960     1100   
                                          VAR    BASINP    GEOM    SYMINP    ZMAT    AOBASIS   BASIS     P2S    ABASIS      S 
                                         1400     1410     1200     1210     1080     1600     1650     1300     1700   
                                           T        V       H0       H01     AOSYM     SMH    MOLCAS    ERIS     OPER   

              2       3        0.42       700     1000     2100   
                                         GEOM     BASIS     RHF  

 PROGRAMS   *        TOTAL       RHF       INT
 CPU TIMES  *         0.46      0.17      0.23
 REAL TIME  *         0.67 SEC
 DISK USED  *        31.90 MB      
 GA USED    *         0.00 MB       (max)       0.00 MB       (current)
 **********************************************************************************************************************************


1PROGRAM * MP2 (Closed-shell)     Authors: C. Hampel, H.-J. Werner, 1991, M. Deegan, P.J. Knowles, 1992


 Convergence thresholds:  THRVAR = 1.00D-08  THRDEN = 1.00D-12

 Number of core orbitals:           2 (   2 )
 Number of closed-shell orbitals:   8 (   8 )
 Number of external orbitals:      43 (  43 )

 Molecular orbitals read from record     2100.2  Type=RHF/CANONICAL (state 1.1)

 Number of N-1 electron functions:               8
 Number of N-2 electron functions:              36
 Number of singly external CSFs:               344
 Number of doubly external CSFs:             59340
 Total number of CSFs:                       59685

 Length of J-op  integral file:               0.00 MB
 Length of K-op  integral file:               0.22 MB

 Integral transformation finished. Total CPU:   0.01 sec, npass=  1  Memory used:   0.28 MW

 Memory needed for MP2:                      0.01 MW

 SCS-MP2 correlation energy:           -0.387753316929   (PS=  1.200000  PT=  0.333333)
 SCS-MP2 total energy:               -132.619493073814


  Reference energy                   -132.231739756886
  MP2 singlet pair energy              -0.249281115659
  MP2 triplet pair energy              -0.142418536293
  MP2 correlation energy               -0.391699651952

 !MP2 total energy                   -132.623439408838


 **********************************************************************************************************************************
 DATASETS  * FILE   NREC   LENGTH (MB)   RECORD NAMES
              1      20       11.28       500      610      700      900      950      970     1000      129      960     1100   
                                          VAR    BASINP    GEOM    SYMINP    ZMAT    AOBASIS   BASIS     P2S    ABASIS      S 
                                         1400     1410     1200     1210     1080     1600     1650     1300     1700     1380   
                                           T        V       H0       H01     AOSYM     SMH    MOLCAS    ERIS     OPER     JKOP   

              2       3        0.42       700     1000     2100   
                                         GEOM     BASIS     RHF  

 PROGRAMS   *        TOTAL       MP2       RHF       INT
 CPU TIMES  *         0.49      0.03      0.17      0.23
 REAL TIME  *         0.73 SEC
 DISK USED  *        31.90 MB      
 GA USED    *         0.00 MB       (max)       0.00 MB       (current)
 **********************************************************************************************************************************

        MP2             RHF-SCF 
   -132.62343941   -132.23173976
 **********************************************************************************************************************************
 Variable memory released
