
 Primary working directories    : /tmp/1049102.263.gen6.q
 Secondary working directories  : /tmp/1049102.263.gen6.q
 Wavefunction directory         : /home/vulcan/mel64643/wfu/
 Main file repository           : /tmp/1049102.263.gen6.q/

 ARCHNAME  : Linux/x86_64
 FC        : /opt/intel/compilers_and_libraries_2016.1.150/linux/bin/intel64/ifort
 FCVERSION : 16.0.1
 BLASLIB   : -mkl
 id        : ccgc

 Nodes     nprocs
 n090         1
 ga_uses_ma=false, calling ma_init with nominal heap.
 GA-space will be limited to   8.0 MW (determined by -G option)

 Using customized tuning parameters: mindgm=10; mindgv=16; mindgc=4; mindgr=1; noblas=0; mincuda=1000; minvec=7
 default implementation of scratch files=df  

 ***,Optimization of h2o_3
 memory,1000,m
 gthresh,energy=1.0d-12,orbital=1.0d-10,oneint=1.0d-16,twoint=1.0d-16,optgrad=1.0d-6,compress=1.0d-13
 geomtyp=xyz
 
 
 
 bohr
 geometry = {
  C    0.9148444816    1.4084595884   -2.2735751734
  C    0.7400850214    2.7072998370    0.0208044491
  C    0.9987675903    1.4039024951    2.2990235448
  C    1.4308275932   -1.1983923347    2.2943993581
  C    1.6080600296   -2.5066056411    0.0058074378
  C    1.3492225543   -1.2029861658   -2.2837538696
  H    0.7053113621    2.4177019234   -4.0366781738
  H    0.3886970287    4.7276841354    0.0300466024
  H    0.8571996338    2.4153221274    4.0778603719
  H    1.6277716295   -2.2029743797    4.0620249839
  H    1.9420388715   -4.5304394676    0.0032970153
  H    1.4836872360   -2.2150224282   -4.0630772366
  N   -5.4427380306   -0.3574536060   -0.0709470161
  H   -5.5915280190   -1.5688092789   -1.5514107742
  H   -6.0692871447   -1.3155858734    1.4687150541
  H   -3.5620279707   -0.0738905295    0.1975411034
 }
 
 basis=aug-cc-pvdz, H=cc-pvdz
 {rhf;maxit,200}
 {ccsd(t)}

 Variables initialized (661), CPU time= 0.00 sec
 Commands  initialized (458), CPU time= 0.01 sec, 486 directives.
 Default parameters read. Elapsed time= 0.04 sec

 Checking input...
 Passed
1


                                         ***  PROGRAM SYSTEM MOLPRO  ***
                         Copyright, University College Cardiff Consultants Limited, 2008

                                    Version 2010.1 linked May 16 2016 07:17:05


 **********************************************************************************************************************************
 LABEL *   Optimization of h2o_3                                                         
 Linux-4.4.3/n090(x86_64) 64 bit mpp version                                             DATE: 18-Mar-24          TIME: 22:18:06  
 **********************************************************************************************************************************

 SHA1:             9e8077add272b0f3cad6f7df79ec5211205f459d
 **********************************************************************************************************************************

 THRESHOLDS:

 ZERO    =  1.00D-12  ONEINT  =  1.00D-16  TWOINT  =  1.00D-16  PREFAC  =  1.00D-14  LOCALI  =  1.00D-09  EORDER  =  1.00D-04
 ENERGY  =  1.00D-12  ETEST   =  0.00D+00  EDENS   =  0.00D+00  THRDEDEF=  1.00D-06  GRADIENT=  1.00D-02  STEP    =  1.00D-03
 ORBITAL =  1.00D-10  CIVEC   =  1.00D-05  COEFF   =  1.00D-04  PRINTCI =  5.00D-02  PUNCHCI =  9.90D+01  OPTGRAD =  1.00D-06
 OPTENERG=  1.00D-06  OPTSTEP =  3.00D-04  THRGRAD =  1.00D-10  COMPRESS=  1.00D-13  VARMIN  =  1.00D-07  VARMAX  =  1.00D-03
 THRDOUB =  0.00D+00  THRDIV  =  1.00D-05  THRRED  =  1.00D-07  THRPSP  =  1.00D+00  THRDC   =  1.00D-10  THRCS   =  1.00D-10
 THRNRM  =  1.00D-08  THREQ   =  0.00D+00  THRDE   =  1.00D+00  THRREF  =  1.00D-05  SPARFAC =  1.00D+00  THRDLP  =  1.00D-07
 THRDIA  =  1.00D-10  THRDLS  =  1.00D-07  THRGPS  =  0.00D+00  THRKEX  =  0.00D+00  THRDIS  =  2.00D-01  THRVAR  =  1.00D-10
 THRLOC  =  1.00D-06  THRGAP  =  1.00D-06  THRLOCT = -1.00D+00  THRGAPT = -1.00D+00  THRORB  =  1.00D-06  THRMLTP =  0.00D+00
 THRCPQCI=  1.00D-10  KEXTA   =  0.00D+00  THRCOARS=  0.00D+00  SYMTOL  =  1.00D-06  GRADTOL =  1.00D-06  THROVL  =  1.00D-08
 THRORTH =  1.00D-08  GRID    =  1.00D-06  GRIDMAX =  1.00D-03  DTMAX   =  0.00D+00

 SETTING GEOMTYP        =    XYZ
 ZUNIT=BOHR
 

 Variable memory set to 1000000000 words,  buffer space   230000 words

 SETTING BASIS          =    AUG-CC-PVDZ,H=CC-PVDZ


 Recomputing integrals since basis changed


 Using spherical harmonics

 Library entry C      S aug-cc-pVDZ          selected for orbital group  1
 Library entry C      P aug-cc-pVDZ          selected for orbital group  1
 Library entry C      D aug-cc-pVDZ          selected for orbital group  1
 Library entry H      S cc-pVDZ              selected for orbital group  2
 Library entry H      P cc-pVDZ              selected for orbital group  2
 Library entry N      S aug-cc-pVDZ          selected for orbital group  3
 Library entry N      P aug-cc-pVDZ          selected for orbital group  3
 Library entry N      D aug-cc-pVDZ          selected for orbital group  3

1PROGRAM * SEWARD (Integral evaluation for generally contracted gaussian basis sets)     Author: Roland Lindh, 1990

 Geometry written to block  1 of record 700


 Point group  C1  



 ATOMIC COORDINATES

 NR  ATOM    CHARGE       X              Y              Z

   1  C       6.00    0.914844482    1.408459588   -2.273575173
   2  C       6.00    0.740085021    2.707299837    0.020804449
   3  C       6.00    0.998767590    1.403902495    2.299023545
   4  C       6.00    1.430827593   -1.198392335    2.294399358
   5  C       6.00    1.608060030   -2.506605641    0.005807438
   6  C       6.00    1.349222554   -1.202986166   -2.283753870
   7  H       1.00    0.705311362    2.417701923   -4.036678174
   8  H       1.00    0.388697029    4.727684135    0.030046602
   9  H       1.00    0.857199634    2.415322127    4.077860372
  10  H       1.00    1.627771629   -2.202974380    4.062024984
  11  H       1.00    1.942038872   -4.530439468    0.003297015
  12  H       1.00    1.483687236   -2.215022428   -4.063077237
  13  N       7.00   -5.442738031   -0.357453606   -0.070947016
  14  H       1.00   -5.591528019   -1.568809279   -1.551410774
  15  H       1.00   -6.069287145   -1.315585873    1.468715054
  16  H       1.00   -3.562027971   -0.073890529    0.197541103

 Bond lengths in Bohr (Angstrom)

 1-2  2.642291565  1-6  2.647345244  1-7  2.042304191  2-3  2.637431241  2-8  2.050734418
     ( 1.398240476)     ( 1.400914768)     ( 1.080740832)     ( 1.395668503)     ( 1.085201916)

  3- 4  2.637922594   3- 9  2.051163479   4- 5  2.642061008   4-10  2.042663064   5- 6  2.647359355
       ( 1.395928516)       ( 1.085428965)       ( 1.398118470)       ( 1.080930739)       ( 1.400922235)

  5-11  2.051207334   6-12  2.051411658  13-14  1.918669843  13-15  1.918629856  13-16  1.920823838
       ( 1.085452172)       ( 1.085560296)       ( 1.015316352)       ( 1.015295192)       ( 1.016456198)

 Bond angles

  1- 2- 3  120.04326367   1- 2- 8  119.96887894   1- 6- 5  119.89831815   1- 6-12  120.04874174

  2-1-6  119.93936719   2-1-7  119.99489467   2-3-4  120.13689461   2-3-9  119.91169156

  3- 2- 8  119.98618250   3- 4- 5  120.06398618   3- 4-10  119.96247213   4- 3- 9  119.95108294

  4- 5- 6  119.91814229   4- 5-11  120.03462877   5- 4-10  119.97353698   5- 6-12  120.05292553

  6- 1- 7  120.06499731   6- 5-11  120.04711480  14-13-15  106.17607583  14-13-16  106.08043224

 15-13-16  106.33745550

 NUCLEAR CHARGE:                   52
 NUMBER OF PRIMITIVE AOS:         322
 NUMBER OF SYMMETRY AOS:          308
 NUMBER OF CONTRACTIONS:          206   ( 206A   )
 NUMBER OF CORE ORBITALS:           7   (   7A   )
 NUMBER OF VALENCE ORBITALS:       37   (  37A   )


 NUCLEAR REPULSION ENERGY  273.71093701


 Eigenvalues of metric

         1 0.862E-05 0.184E-04 0.228E-04 0.531E-04 0.642E-04 0.644E-04 0.107E-03 0.107E-03


 Contracted 2-electron integrals neglected if value below      1.0D-16
 AO integral compression algorithm  1   Integral accuracy      1.0D-16

     1893.204 MB (compressed) written to integral file ( 94.6%)

     Node minimum: 1893.204 MB, node maximum: 1893.204 MB


 NUMBER OF SORTED TWO-ELECTRON INTEGRALS:  227303181.     BUFFER LENGTH:  32768
 NUMBER OF SEGMENTS:  15  SEGMENT LENGTH:   15999503      RECORD LENGTH: 524288

 Memory used in sort:      16.56 MW

 SORT1 READ   250230049. AND WROTE   226408371. INTEGRALS IN    654 RECORDS. CPU TIME:     2.16 SEC, REAL TIME:     3.41 SEC
 SORT2 READ   226408371. AND WROTE   227303181. INTEGRALS IN   7222 RECORDS. CPU TIME:     1.30 SEC, REAL TIME:     2.19 SEC

 FILE SIZES:   FILE 1:  1743.8 MBYTE,  FILE 4:  2743.1 MBYTE,   TOTAL:   4486.9 MBYTE

 OPERATOR DM      FOR CENTER  0  COORDINATES:    0.000000    0.000000    0.000000


 **********************************************************************************************************************************
 DATASETS  * FILE   NREC   LENGTH (MB)   RECORD NAMES
              1      19     1744.30       500      610      700      900      950      970     1000      129      960     1100   
                                          VAR    BASINP    GEOM    SYMINP    ZMAT    AOBASIS   BASIS     P2S    ABASIS      S 
                                         1400     1410     1200     1210     1080     1600     1650     1300     1700   
                                           T        V       H0       H01     AOSYM     SMH    MOLCAS    ERIS     OPER   

 PROGRAMS   *        TOTAL       INT
 CPU TIMES  *        12.27     12.23
 REAL TIME  *        15.39 SEC
 DISK USED  *         6.38 GB      
 GA USED    *         0.01 MB       (max)       0.00 MB       (current)
 **********************************************************************************************************************************

1PROGRAM * RHF-SCF (CLOSED SHELL)       Authors: W. Meyer, H.-J. Werner


 NUMBER OF ELECTRONS:      26+   26-    SPACE SYMMETRY=1    SPIN SYMMETRY: Singlet 
 CONVERGENCE THRESHOLDS:    1.00E-10 (Density)    1.00E-13 (Energy)
 MAX. NUMBER OF ITERATIONS:      200
 INTERPOLATION TYPE:            DIIS
 INTERPOLATION STEPS:              2 (START)      1 (STEP)
 LEVEL SHIFTS:                  0.00 (CLOSED)  0.00 (OPEN) 



 Orbital guess generated from atomic densities. Full valence occupancy:   44

 Molecular orbital dump at record        2100.2

 ITERATION    DDIFF          GRAD             ENERGY        2-EL.EN.            DIPOLE MOMENTS         DIIS
    1      0.000D+00      0.000D+00      -286.85319778    740.884260    0.51993   -0.77220    0.12879    0
    2      0.000D+00      0.322D-02      -286.92075480    735.093347    0.43460   -0.38032    0.06939    1
    3      0.826D-02      0.133D-02      -286.93008717    737.725336    0.45183   -0.52442    0.08960    2
    4      0.218D-02      0.381D-03      -286.93130592    737.205818    0.45009   -0.49514    0.08631    3
    5      0.784D-03      0.530D-04      -286.93132989    737.194345    0.45608   -0.50654    0.08791    4
    6      0.135D-03      0.181D-04      -286.93133241    737.209187    0.45487   -0.50045    0.08706    5
    7      0.514D-04      0.558D-05      -286.93133269    737.206270    0.45553   -0.50279    0.08741    6
    8      0.152D-04      0.130D-05      -286.93133271    737.205222    0.45569   -0.50242    0.08735    7
    9      0.418D-05      0.541D-06      -286.93133272    737.205685    0.45572   -0.50251    0.08736    7
   10      0.149D-05      0.143D-06      -286.93133272    737.205634    0.45572   -0.50252    0.08736    7
   11      0.515D-06      0.408D-07      -286.93133272    737.205619    0.45573   -0.50252    0.08736    7
   12      0.141D-06      0.173D-07      -286.93133272    737.205633    0.45573   -0.50252    0.08736    8
   13      0.603D-07      0.751D-08      -286.93133272    737.205628    0.45573   -0.50252    0.08736    8
   14      0.330D-07      0.359D-08      -286.93133272    737.205630    0.45573   -0.50252    0.08736    8
   15      0.198D-07      0.138D-08      -286.93133272    737.205630    0.45573   -0.50252    0.08736    8
   16      0.707D-08      0.464D-09      -286.93133272    737.205629    0.45573   -0.50252    0.08736    9
   17      0.214D-08      0.132D-09      -286.93133272    737.205630    0.45573   -0.50252    0.08736    9
   18      0.409D-09      0.421D-10      -286.93133272    737.205630    0.45573   -0.50252    0.08736    9
   19      0.185D-09      0.229D-10      -286.93133272    737.205630    0.45573   -0.50252    0.08736    9
   20      0.108D-09      0.929D-11      -286.93133272    737.205630    0.45573   -0.50252    0.08736    9
   21      0.138D-09      0.426D-11      -286.93133272    737.205630    0.45573   -0.50252    0.08736    9
   22      0.157D-09      0.142D-11      -286.93133272    737.205630    0.45573   -0.50252    0.08736    9
   23      0.919D-10      0.722D-12      -286.93133272    737.205630    0.45573   -0.50252    0.08736    9
   24      0.898D-10      0.603D-12      -286.93133272    737.205630    0.45573   -0.50252    0.08736    9
   25      0.702D-10      0.520D-12      -286.93133272    737.205630    0.45573   -0.50252    0.08736    9
   26      0.434D-10      0.571D-12      -286.93133272    737.205630    0.45573   -0.50252    0.08736    9
   27      0.398D-10      0.505D-12      -286.93133272    737.205630    0.45573   -0.50252    0.08736    9
   28      0.229D-10      0.502D-12      -286.93133272    737.205630    0.45573   -0.50252    0.08736    9
   29      0.155D-10      0.458D-12      -286.93133272    737.205630    0.45573   -0.50252    0.08736    9
   30      0.191D-10      0.435D-12      -286.93133272    737.205630    0.45573   -0.50252    0.08736    9
   31      0.140D-10      0.480D-12      -286.93133272    737.205630    0.45573   -0.50252    0.08736    0

 Final occupancy:  26

 !RHF STATE 1.1 Energy               -286.931332715951
 Nuclear energy                       273.71093701
 One-electron energy                 -929.24508452
 Two-electron energy                  368.60281480
 Virial quotient                       -1.00146464
 !RHF STATE 1.1 Dipole moment           0.45573031    -0.50251882     0.08736357
 Dipole moment /Debye                   1.15827504    -1.27719177     0.22204149

 Orbital energies:

         1.1          2.1          3.1          4.1          5.1          6.1          7.1          8.1          9.1         10.1
    -15.535008   -11.251025   -11.250085   -11.249563   -11.248903   -11.248413   -11.247632    -1.157511    -1.125561    -1.022178

        11.1         12.1         13.1         14.1         15.1         16.1         17.1         18.1         19.1         20.1
     -1.021826    -0.830918    -0.830265    -0.714503    -0.650464    -0.623921    -0.611683    -0.609821    -0.593885    -0.593140

        21.1         22.1         23.1         24.1         25.1         26.1         27.1         28.1
     -0.504903    -0.500355    -0.499761    -0.413440    -0.342972    -0.341990     0.063899     0.066418


 **********************************************************************************************************************************
 DATASETS  * FILE   NREC   LENGTH (MB)   RECORD NAMES
              1      19     1744.30       500      610      700      900      950      970     1000      129      960     1100   
                                          VAR    BASINP    GEOM    SYMINP    ZMAT    AOBASIS   BASIS     P2S    ABASIS      S 
                                         1400     1410     1200     1210     1080     1600     1650     1300     1700   
                                           T        V       H0       H01     AOSYM     SMH    MOLCAS    ERIS     OPER   

              2       3        1.40       700     1000     2100   
                                         GEOM     BASIS     RHF  

 PROGRAMS   *        TOTAL       RHF       INT
 CPU TIMES  *        53.06     40.79     12.23
 REAL TIME  *        61.24 SEC
 DISK USED  *         6.38 GB      
 GA USED    *         0.01 MB       (max)       0.00 MB       (current)
 **********************************************************************************************************************************


1PROGRAM * CCSD (Closed-shell coupled cluster)     Authors: C. Hampel, H.-J. Werner, 1991, M. Deegan, P.J. Knowles, 1992


 Convergence thresholds:  THRVAR = 1.00D-08  THRDEN = 1.00D-12

 CCSD(T)     terms to be evaluated (factor= 1.000)


 Number of core orbitals:           7 (   7 )
 Number of closed-shell orbitals:  19 (  19 )
 Number of external orbitals:     180 ( 180 )

 Molecular orbitals read from record     2100.2  Type=RHF/CANONICAL (state 1.1)

 Number of N-1 electron functions:              19
 Number of N-2 electron functions:             190
 Number of singly external CSFs:              3420
 Number of doubly external CSFs:           5849910
 Total number of CSFs:                     5853331

 Length of J-op  integral file:               0.00 MB
 Length of K-op  integral file:               2.96 MB
 Length of 3-ext integral record:             0.00 MB

 Memory could be reduced to 140.12 Mwords without degradation in triples

 Integral transformation finished. Total CPU:  10.30 sec, npass=  1  Memory used: 101.90 MW

 Reference energy:                   -286.93133272

 MP2 singlet pair energy:              -0.62063202
 MP2 triplet pair energy:              -0.38983375
 MP2 correlation energy:               -1.01046577
 MP2 total energy:                   -287.94179849

 SCS-MP2 correlation energy:           -0.98732165   (PS=  1.200000  PT=  0.333333)
 SCS-MP2 total energy:               -287.91865437

 ITER.      SQ.NORM     CORR.ENERGY   TOTAL ENERGY   ENERGY CHANGE        DEN1      VAR(S)    VAR(P)  DIIS     TIME
   1      1.38488299    -1.05475805  -287.98609077    -0.04429228    -0.01721343  0.36D-02  0.80D-02  1  1    42.58
   2      1.41439564    -1.06062069  -287.99195340    -0.00586263    -0.02705262  0.63D-04  0.10D-02  2  2    75.11
   3      1.42352733    -1.06071649  -287.99204921    -0.00009580    -0.00464391  0.27D-04  0.84D-04  3  3   107.64
   4      1.42746509    -1.06088523  -287.99221794    -0.00016874    -0.00121434  0.22D-05  0.11D-04  4  4   140.14
   5      1.42867868    -1.06091619  -287.99224890    -0.00003096    -0.00027317  0.27D-06  0.13D-05  5  5   172.72
   6      1.42898123    -1.06090595  -287.99223867     0.00001023    -0.00004347  0.23D-07  0.79D-07  6  6   205.31
   7      1.42902197    -1.06090758  -287.99224030    -0.00000163    -0.00000102  0.35D-08  0.82D-08  6  2   237.87
   8      1.42903115    -1.06090744  -287.99224016     0.00000014    -0.00000117  0.75D-09  0.76D-09  6  1   270.46
   9      1.42903098    -1.06090758  -287.99224029    -0.00000014     0.00000123  0.21D-09  0.92D-10  6  4   303.05
  10      1.42903218    -1.06090759  -287.99224030    -0.00000001    -0.00000018  0.57D-10  0.15D-10  6  3   335.65
  11      1.42903212    -1.06090760  -287.99224032    -0.00000002     0.00000013  0.14D-10  0.37D-11  6  5   368.26
  12      1.42903208    -1.06090761  -287.99224032    -0.00000000     0.00000003  0.15D-11  0.10D-11  6  6   400.83
  13      1.42903191    -1.06090761  -287.99224033    -0.00000000     0.00000006  0.69D-13  0.20D-12  6  2   433.44
  14      1.42903180    -1.06090761  -287.99224033    -0.00000000     0.00000003  0.81D-14  0.40D-13  6  1   466.04
  15      1.42903175    -1.06090761  -287.99224033    -0.00000000     0.00000001  0.89D-15  0.54D-14  6  3   498.64
  16      1.42903172    -1.06090761  -287.99224033    -0.00000000     0.00000000  0.12D-15  0.37D-15  6  4   531.26
  17      1.42903172    -1.06090761  -287.99224033    -0.00000000     0.00000000  0.31D-16  0.44D-16  6  5   563.86
  18      1.42903172    -1.06090761  -287.99224033    -0.00000000     0.00000000  0.83D-17  0.71D-17  6  6   596.46
  19      1.42903172    -1.06090761  -287.99224033    -0.00000000     0.00000000  0.24D-17  0.78D-18  6  2   629.08
  20      1.42903172    -1.06090761  -287.99224033    -0.00000000     0.00000000  0.78D-18  0.19D-18  6  1   661.69
  21      1.42903172    -1.06090761  -287.99224033    -0.00000000     0.00000000  0.29D-18  0.77D-19  6  3   694.30
  22      1.42903172    -1.06090761  -287.99224033    -0.00000000     0.00000000  0.12D-18  0.37D-19  6  4   726.88
  23      1.42903172    -1.06090761  -287.99224033    -0.00000000     0.00000000  0.54D-19  0.20D-19  6  6   759.48

 Norm of t1 vector:      0.08385807      S-energy:    -0.00000000      T1 diagnostic:  0.00961918
                                                                       D1 diagnostic:  0.02620092

 Doubles amplitudes (print threshold =  0.500E-01):

         I         J         SYM. A    SYM. B    A         B      T(IJ, AB)

        18        18         1         1         6         6     -0.05120375
        19        19         1         1         7         7     -0.05458503


 Total CPU time for triples:    638.09 sec


 RESULTS
 =======

  Reference energy                   -286.931332715952
  CCSD singlet pair energy             -0.711156553543
  CCSD triplet pair energy             -0.349751057944
  CCSD correlation energy              -1.060907611487

  Triples (T) contribution             -0.045602851709
  Total correlation energy             -1.106510463196

  CCSD total energy                  -287.992240327439
  CCSD[T] energy                     -288.038713416676
  CCSD-T energy                      -288.037454627208
 !CCSD(T) total energy               -288.037843179148

 Timing summary (sec):

 STEP                 CPU(USER)    SYS     CPU(TOT)    WALL
 Transformation         10.64      0.74     11.38     11.38
 CCSD iterations       748.85     11.75    760.60    760.76
 Triples               638.09     10.46    648.55    648.64

 Program statistics:

 Available memory in ccsd:               999998456
 Min. memory needed in ccsd:              14392275
 Max. memory used in ccsd:                19775697
 Max. memory used in cckext:              16737545 (23 integral passes)



 **********************************************************************************************************************************
 DATASETS  * FILE   NREC   LENGTH (MB)   RECORD NAMES
              1      20     2287.91       500      610      700      900      950      970     1000      129      960     1100   
                                          VAR    BASINP    GEOM    SYMINP    ZMAT    AOBASIS   BASIS     P2S    ABASIS      S 
                                         1400     1410     1200     1210     1080     1600     1650     1300     1700     1380   
                                           T        V       H0       H01     AOSYM     SMH    MOLCAS    ERIS     OPER     JKOP   

              2       3        1.40       700     1000     2100   
                                         GEOM     BASIS     RHF  

 PROGRAMS   *        TOTAL   CCSD(T)       RHF       INT
 CPU TIMES  *      1450.66   1397.60     40.79     12.23
 REAL TIME  *      1482.12 SEC
 DISK USED  *         6.38 GB      
 GA USED    *         0.01 MB       (max)       0.00 MB       (current)
 **********************************************************************************************************************************

        CCSD(T)         RHF-SCF 
   -288.03784318   -286.93133272
 **********************************************************************************************************************************
 Variable memory released
