
 Primary working directories    : /tmp/1047041.660.gen5.q
 Secondary working directories  : /tmp/1047041.660.gen5.q
 Wavefunction directory         : /home/vulcan/mel64643/wfu/
 Main file repository           : /tmp/1047041.660.gen5.q/

 ARCHNAME  : Linux/x86_64
 FC        : /opt/intel/compilers_and_libraries_2016.1.150/linux/bin/intel64/ifort
 FCVERSION : 16.0.1
 BLASLIB   : -mkl
 id        : ccgc

 Nodes     nprocs
 n070         1
 ga_uses_ma=false, calling ma_init with nominal heap.
 GA-space will be limited to   8.0 MW (determined by -G option)

 Using customized tuning parameters: mindgm=10; mindgv=16; mindgc=4; mindgr=1; noblas=0; mincuda=1000; minvec=7
 default implementation of scratch files=df  

 ***,Optimization of ben_hcn
 memory,1000,m
 gthresh,energy=1.0d-12,orbital=1.0d-10,oneint=1.0d-16,twoint=1.0d-16,optgrad=1.0d-6,compress=1.0d-13
 geomtyp=xyz
 
 
 
 bohr
 geometry = {
  C   -1.8845871621    1.3683469832    2.2867479390
  C   -1.8577581517    2.6890703700   -0.0031202719
  C   -1.8751757517    1.3664873823   -2.2919907737
  C   -1.9193851071   -1.2766087227   -2.2909094626
  C   -1.9462003547   -2.5971494054   -0.0011717613
  C   -1.9287756829   -1.2747685859    2.2876068770
  H   -1.8652709020    2.3927878479    4.0599731396
  H   -1.8177672167    4.7416545618    0.0033752287
  H   -1.8484359086    2.3856831276   -4.0738969868
  H   -1.9264345922   -2.3012497117   -4.0640789326
  H   -1.9737179163   -4.6398879608   -0.0076138571
  H   -1.9430254990   -2.2892390770    4.0608183250
  N    6.6241511116   -0.1993292197    0.0075301592
  C    4.4344352442   -0.0764502601    0.0104833623
  H    2.4147491362    0.0371762183    0.0133475292
 }
 
 basis=aug-cc-pvdz, H=cc-pvdz
 {rhf;maxit,200}
 {ccsd(t)}

 Variables initialized (661), CPU time= 0.00 sec
 Commands  initialized (458), CPU time= 0.01 sec, 486 directives.
 Default parameters read. Elapsed time= 0.10 sec

 Checking input...
 Passed
1


                                         ***  PROGRAM SYSTEM MOLPRO  ***
                         Copyright, University College Cardiff Consultants Limited, 2008

                                    Version 2010.1 linked May 16 2016 07:17:05


 **********************************************************************************************************************************
 LABEL *   Optimization of ben_hcn                                                       
 Linux-4.4.3/n070(x86_64) 64 bit mpp version                                             DATE: 08-Mar-24          TIME: 00:58:39  
 **********************************************************************************************************************************

 SHA1:             9e8077add272b0f3cad6f7df79ec5211205f459d
 **********************************************************************************************************************************

 THRESHOLDS:

 ZERO    =  1.00D-12  ONEINT  =  1.00D-16  TWOINT  =  1.00D-16  PREFAC  =  1.00D-14  LOCALI  =  1.00D-09  EORDER  =  1.00D-04
 ENERGY  =  1.00D-12  ETEST   =  0.00D+00  EDENS   =  0.00D+00  THRDEDEF=  1.00D-06  GRADIENT=  1.00D-02  STEP    =  1.00D-03
 ORBITAL =  1.00D-10  CIVEC   =  1.00D-05  COEFF   =  1.00D-04  PRINTCI =  5.00D-02  PUNCHCI =  9.90D+01  OPTGRAD =  1.00D-06
 OPTENERG=  1.00D-06  OPTSTEP =  3.00D-04  THRGRAD =  1.00D-10  COMPRESS=  1.00D-13  VARMIN  =  1.00D-07  VARMAX  =  1.00D-03
 THRDOUB =  0.00D+00  THRDIV  =  1.00D-05  THRRED  =  1.00D-07  THRPSP  =  1.00D+00  THRDC   =  1.00D-10  THRCS   =  1.00D-10
 THRNRM  =  1.00D-08  THREQ   =  0.00D+00  THRDE   =  1.00D+00  THRREF  =  1.00D-05  SPARFAC =  1.00D+00  THRDLP  =  1.00D-07
 THRDIA  =  1.00D-10  THRDLS  =  1.00D-07  THRGPS  =  0.00D+00  THRKEX  =  0.00D+00  THRDIS  =  2.00D-01  THRVAR  =  1.00D-10
 THRLOC  =  1.00D-06  THRGAP  =  1.00D-06  THRLOCT = -1.00D+00  THRGAPT = -1.00D+00  THRORB  =  1.00D-06  THRMLTP =  0.00D+00
 THRCPQCI=  1.00D-10  KEXTA   =  0.00D+00  THRCOARS=  0.00D+00  SYMTOL  =  1.00D-06  GRADTOL =  1.00D-06  THROVL  =  1.00D-08
 THRORTH =  1.00D-08  GRID    =  1.00D-06  GRIDMAX =  1.00D-03  DTMAX   =  0.00D+00

 SETTING GEOMTYP        =    XYZ
 ZUNIT=BOHR
 

 Variable memory set to 1000000000 words,  buffer space   230000 words

 SETTING BASIS          =    AUG-CC-PVDZ,H=CC-PVDZ


 Recomputing integrals since basis changed


 Using spherical harmonics

 Library entry C      S aug-cc-pVDZ          selected for orbital group  1
 Library entry C      P aug-cc-pVDZ          selected for orbital group  1
 Library entry C      D aug-cc-pVDZ          selected for orbital group  1
 Library entry H      S cc-pVDZ              selected for orbital group  2
 Library entry H      P cc-pVDZ              selected for orbital group  2
 Library entry N      S aug-cc-pVDZ          selected for orbital group  3
 Library entry N      P aug-cc-pVDZ          selected for orbital group  3
 Library entry N      D aug-cc-pVDZ          selected for orbital group  3

1PROGRAM * SEWARD (Integral evaluation for generally contracted gaussian basis sets)     Author: Roland Lindh, 1990

 Geometry written to block  1 of record 700


 Point group  C1  



 ATOMIC COORDINATES

 NR  ATOM    CHARGE       X              Y              Z

   1  C       6.00   -1.884587162    1.368346983    2.286747939
   2  C       6.00   -1.857758152    2.689070370   -0.003120272
   3  C       6.00   -1.875175752    1.366487382   -2.291990774
   4  C       6.00   -1.919385107   -1.276608723   -2.290909463
   5  C       6.00   -1.946200355   -2.597149405   -0.001171761
   6  C       6.00   -1.928775683   -1.274768586    2.287606877
   7  H       1.00   -1.865270902    2.392787848    4.059973140
   8  H       1.00   -1.817767217    4.741654562    0.003375229
   9  H       1.00   -1.848435909    2.385683128   -4.073896987
  10  H       1.00   -1.926434592   -2.301249712   -4.064078933
  11  H       1.00   -1.973717916   -4.639887961   -0.007613857
  12  H       1.00   -1.943025499   -2.289239077    4.060818325
  13  N       7.00    6.624151112   -0.199329220    0.007530159
  14  C       6.00    4.434435244   -0.076450260    0.010483362
  15  H       1.00    2.414749136    0.037176218    0.013347529

 Bond lengths in Bohr (Angstrom)

 1-2  2.643582131  1-6  2.643485062  1-7  2.047969681  2-3  2.643569047  2-8  2.052984006
     ( 1.398923414)     ( 1.398872047)     ( 1.083738880)     ( 1.398916490)     ( 1.086392347)

  3- 4  2.643466031   3- 9  2.052964865   4- 5  2.643377667   4-10  2.047942582   5- 6  2.643388414
       ( 1.398861976)       ( 1.086382218)       ( 1.398815216)       ( 1.083724540)       ( 1.398820903)

  5-11  2.042934048   6-12  2.042946958  13-14  2.193162908  14-15  2.022881893
       ( 1.081074137)       ( 1.081080969)       ( 1.160571826)       ( 1.070462995)

 Bond angles

  1- 2- 3  119.99746549   1- 2- 8  119.79880922   1- 6- 5  120.00123548   1- 6-12  119.79520439

  2-1-6  119.99850417   2-1-7  119.99930035   2-3-4  119.99920943   2-3-9  120.20181968

  3- 2- 8  120.20347503   3- 4- 5  120.00130473   3- 4-10  119.99737974   4- 3- 9  119.79868541

  4- 5- 6  120.00228067   4- 5-11  119.79663509   5- 4-10  120.00098990   5- 6-12  120.20324188

  6- 1- 7  120.00192397   6- 5-11  120.20073267  13-14-15  179.99091354

 NUCLEAR CHARGE:                   56
 NUMBER OF PRIMITIVE AOS:         345
 NUMBER OF SYMMETRY AOS:          329
 NUMBER OF CONTRACTIONS:          219   ( 219A   )
 NUMBER OF CORE ORBITALS:           8   (   8A   )
 NUMBER OF VALENCE ORBITALS:       39   (  39A   )


 NUCLEAR REPULSION ENERGY  303.39347590


 Eigenvalues of metric

         1 0.864E-05 0.186E-04 0.229E-04 0.534E-04 0.628E-04 0.633E-04 0.929E-04 0.930E-04


 Contracted 2-electron integrals neglected if value below      1.0D-16
 AO integral compression algorithm  1   Integral accuracy      1.0D-16

     2340.422 MB (compressed) written to integral file ( 91.2%)

     Node minimum: 2340.422 MB, node maximum: 2340.422 MB


 NUMBER OF SORTED TWO-ELECTRON INTEGRALS:  290176095.     BUFFER LENGTH:  32768
 NUMBER OF SEGMENTS:  19  SEGMENT LENGTH:   15999762      RECORD LENGTH: 524288

 Memory used in sort:      16.56 MW

 SORT1 READ   320642736. AND WROTE   287602634. INTEGRALS IN    832 RECORDS. CPU TIME:     3.29 SEC, REAL TIME:     5.09 SEC
 SORT2 READ   287602634. AND WROTE   290176095. INTEGRALS IN   8928 RECORDS. CPU TIME:     1.96 SEC, REAL TIME:     3.25 SEC

 FILE SIZES:   FILE 1:  2151.3 MBYTE,  FILE 4:  3489.7 MBYTE,   TOTAL:   5641.0 MBYTE

 OPERATOR DM      FOR CENTER  0  COORDINATES:    0.000000    0.000000    0.000000


 **********************************************************************************************************************************
 DATASETS  * FILE   NREC   LENGTH (MB)   RECORD NAMES
              1      19     2151.88       500      610      700      900      950      970     1000      129      960     1100   
                                          VAR    BASINP    GEOM    SYMINP    ZMAT    AOBASIS   BASIS     P2S    ABASIS      S 
                                         1400     1410     1200     1210     1080     1600     1650     1300     1700   
                                           T        V       H0       H01     AOSYM     SMH    MOLCAS    ERIS     OPER   

 PROGRAMS   *        TOTAL       INT
 CPU TIMES  *        19.33     19.20
 REAL TIME  *        24.30 SEC
 DISK USED  *         7.98 GB      
 GA USED    *         0.01 MB       (max)       0.00 MB       (current)
 **********************************************************************************************************************************

1PROGRAM * RHF-SCF (CLOSED SHELL)       Authors: W. Meyer, H.-J. Werner


 NUMBER OF ELECTRONS:      28+   28-    SPACE SYMMETRY=1    SPIN SYMMETRY: Singlet 
 CONVERGENCE THRESHOLDS:    1.00E-10 (Density)    1.00E-13 (Energy)
 MAX. NUMBER OF ITERATIONS:      200
 INTERPOLATION TYPE:            DIIS
 INTERPOLATION STEPS:              2 (START)      1 (STEP)
 LEVEL SHIFTS:                  0.00 (CLOSED)  0.00 (OPEN) 



 Orbital guess generated from atomic densities. Full valence occupancy:   47

 Molecular orbital dump at record        2100.2

 ITERATION    DDIFF          GRAD             ENERGY        2-EL.EN.            DIPOLE MOMENTS         DIIS
    1      0.000D+00      0.000D+00      -323.54135783    822.123768   -1.89869    0.10955   -0.00194    0
    2      0.000D+00      0.292D-02      -323.59779835    819.103350   -1.36883    0.04663    0.00117    1
    3      0.781D-02      0.179D-02      -323.61439491    820.248501   -1.72962    0.07843    0.00091    2
    4      0.260D-02      0.576D-03      -323.61673129    820.450197   -1.63889    0.07080    0.00083    3
    5      0.963D-03      0.133D-03      -323.61686064    820.190214   -1.66284    0.07105    0.00107    4
    6      0.223D-03      0.229D-04      -323.61686677    820.217071   -1.66419    0.07109    0.00101    5
    7      0.845D-04      0.434D-05      -323.61686696    820.212197   -1.66454    0.07094    0.00105    6
    8      0.108D-04      0.124D-05      -323.61686698    820.213175   -1.66485    0.07106    0.00102    7
    9      0.346D-05      0.284D-06      -323.61686698    820.213225   -1.66482    0.07097    0.00104    6
   10      0.825D-06      0.107D-06      -323.61686698    820.213191   -1.66482    0.07102    0.00103    6
   11      0.210D-06      0.411D-07      -323.61686698    820.213213   -1.66482    0.07101    0.00103    7
   12      0.108D-06      0.891D-08      -323.61686698    820.213204   -1.66482    0.07101    0.00103    7
   13      0.273D-07      0.359D-08      -323.61686698    820.213208   -1.66482    0.07101    0.00103    7
   14      0.823D-08      0.106D-08      -323.61686698    820.213207   -1.66482    0.07101    0.00103    8
   15      0.239D-08      0.185D-09      -323.61686698    820.213207   -1.66482    0.07101    0.00103    8
   16      0.755D-09      0.766D-10      -323.61686698    820.213207   -1.66482    0.07101    0.00103    7
   17      0.362D-09      0.339D-10      -323.61686698    820.213207   -1.66482    0.07101    0.00103    7
   18      0.162D-09      0.173D-10      -323.61686698    820.213207   -1.66482    0.07101    0.00103    7
   19      0.205D-09      0.781D-11      -323.61686698    820.213207   -1.66482    0.07101    0.00103    8
   20      0.228D-09      0.356D-11      -323.61686698    820.213207   -1.66482    0.07101    0.00103    9
   21      0.157D-09      0.999D-12      -323.61686698    820.213207   -1.66482    0.07101    0.00103    9
   22      0.136D-09      0.727D-12      -323.61686698    820.213207   -1.66482    0.07101    0.00103    9
   23      0.949D-10      0.609D-12      -323.61686698    820.213207   -1.66482    0.07101    0.00103    9
   24      0.545D-10      0.603D-12      -323.61686698    820.213207   -1.66482    0.07101    0.00103    9
   25      0.286D-10      0.545D-12      -323.61686698    820.213207   -1.66482    0.07101    0.00103    9
   26      0.303D-10      0.548D-12      -323.61686698    820.213207   -1.66482    0.07101    0.00103    9
   27      0.238D-10      0.452D-12      -323.61686698    820.213207   -1.66482    0.07101    0.00103    9
   28      0.168D-10      0.463D-12      -323.61686698    820.213207   -1.66482    0.07101    0.00103    9
   29      0.229D-10      0.539D-12      -323.61686698    820.213207   -1.66482    0.07101    0.00103    9
   30      0.186D-10      0.386D-12      -323.61686698    820.213207   -1.66482    0.07101    0.00103    9
   31      0.116D-10      0.481D-12      -323.61686698    820.213207   -1.66482    0.07101    0.00103    9
   32      0.922D-11      0.425D-12      -323.61686698    820.213207   -1.66482    0.07101    0.00103    9
   33      0.149D-10      0.548D-12      -323.61686698    820.213207   -1.66482    0.07101    0.00103    9
   34      0.681D-11      0.403D-12      -323.61686698    820.213207   -1.66482    0.07101    0.00103    9
   35      0.193D-10      0.510D-12      -323.61686698    820.213207   -1.66482    0.07101    0.00103    9
   36      0.172D-10      0.381D-12      -323.61686698    820.213207   -1.66482    0.07101    0.00103    0

 Final occupancy:  28

 !RHF STATE 1.1 Energy               -323.616866981504
 Nuclear energy                       303.39347590
 One-electron energy                -1037.11694636
 Two-electron energy                  410.10660348
 Virial quotient                       -1.00170982
 !RHF STATE 1.1 Dipole moment          -1.66481846     0.07100805     0.00102975
 Dipole moment /Debye                  -4.23126930     0.18047264     0.00261720

 Orbital energies:

         1.1          2.1          3.1          4.1          5.1          6.1          7.1          8.1          9.1         10.1
    -15.591649   -11.283865   -11.266388   -11.265712   -11.265622   -11.264623   -11.264446   -11.263812    -1.218335    -1.173918

        11.1         12.1         13.1         14.1         15.1         16.1         17.1         18.1         19.1         20.1
     -1.037878    -1.037699    -0.845992    -0.845450    -0.789909    -0.729362    -0.664877    -0.639200    -0.608558    -0.608555

        21.1         22.1         23.1         24.1         25.1         26.1         27.1         28.1         29.1         30.1
     -0.565229    -0.520375    -0.515194    -0.514509    -0.475691    -0.475686    -0.359671    -0.359663     0.055870     0.060060


 **********************************************************************************************************************************
 DATASETS  * FILE   NREC   LENGTH (MB)   RECORD NAMES
              1      19     2151.88       500      610      700      900      950      970     1000      129      960     1100   
                                          VAR    BASINP    GEOM    SYMINP    ZMAT    AOBASIS   BASIS     P2S    ABASIS      S 
                                         1400     1410     1200     1210     1080     1600     1650     1300     1700   
                                           T        V       H0       H01     AOSYM     SMH    MOLCAS    ERIS     OPER   

              2       3        1.49       700     1000     2100   
                                         GEOM     BASIS     RHF  

 PROGRAMS   *        TOTAL       RHF       INT
 CPU TIMES  *       102.06     82.73     19.20
 REAL TIME  *       116.42 SEC
 DISK USED  *         7.98 GB      
 GA USED    *         0.01 MB       (max)       0.00 MB       (current)
 **********************************************************************************************************************************


1PROGRAM * CCSD (Closed-shell coupled cluster)     Authors: C. Hampel, H.-J. Werner, 1991, M. Deegan, P.J. Knowles, 1992


 Convergence thresholds:  THRVAR = 1.00D-08  THRDEN = 1.00D-12

 CCSD(T)     terms to be evaluated (factor= 1.000)


 Number of core orbitals:           8 (   8 )
 Number of closed-shell orbitals:  20 (  20 )
 Number of external orbitals:     191 ( 191 )

 Molecular orbitals read from record     2100.2  Type=RHF/CANONICAL (state 1.1)

 Number of N-1 electron functions:              20
 Number of N-2 electron functions:             210
 Number of singly external CSFs:              3820
 Number of doubly external CSFs:           7298110
 Total number of CSFs:                     7301931

 Length of J-op  integral file:               0.00 MB
 Length of K-op  integral file:               3.32 MB
 Length of 3-ext integral record:             0.00 MB

 Memory could be reduced to 174.82 Mwords without degradation in triples

 Integral transformation finished. Total CPU:  19.60 sec, npass=  1  Memory used: 128.13 MW

 Reference energy:                   -323.61686698

 MP2 singlet pair energy:              -0.67334339
 MP2 triplet pair energy:              -0.43519832
 MP2 correlation energy:               -1.10854170
 MP2 total energy:                   -324.72540868

 SCS-MP2 correlation energy:           -1.07880213   (PS=  1.200000  PT=  0.333333)
 SCS-MP2 total energy:               -324.69566911

 ITER.      SQ.NORM     CORR.ENERGY   TOTAL ENERGY   ENERGY CHANGE        DEN1      VAR(S)    VAR(P)  DIIS     TIME
   1      1.42873360    -1.14462379  -324.76149077    -0.03608209    -0.00288968  0.51D-02  0.99D-02  1  1    69.82
   2      1.46305609    -1.15049728  -324.76736426    -0.00587348    -0.03103151  0.83D-04  0.13D-02  2  2   120.48
   3      1.47634791    -1.15094498  -324.76781196    -0.00044771    -0.00655955  0.40D-04  0.12D-03  3  3   171.32
   4      1.48204017    -1.15119467  -324.76806165    -0.00024969    -0.00178589  0.22D-05  0.15D-04  4  4   221.99
   5      1.48356946    -1.15123037  -324.76809735    -0.00003570    -0.00036585  0.25D-06  0.14D-05  5  5   272.69
   6      1.48387564    -1.15122185  -324.76808883     0.00000852    -0.00005025  0.24D-07  0.91D-07  6  6   323.45
   7      1.48391042    -1.15122526  -324.76809224    -0.00000341    -0.00000225  0.34D-08  0.80D-08  6  2   374.31
   8      1.48391509    -1.15122562  -324.76809260    -0.00000036    -0.00000041  0.41D-09  0.83D-09  6  1   425.04
   9      1.48391532    -1.15122579  -324.76809277    -0.00000017     0.00000079  0.63D-10  0.78D-10  6  3   476.05
  10      1.48391569    -1.15122585  -324.76809283    -0.00000006     0.00000002  0.10D-10  0.99D-11  6  4   526.81
  11      1.48391542    -1.15122588  -324.76809286    -0.00000004     0.00000022  0.16D-11  0.14D-11  6  5   577.60
  12      1.48391525    -1.15122589  -324.76809287    -0.00000001     0.00000008  0.25D-12  0.27D-12  6  6   628.48
  13      1.48391512    -1.15122590  -324.76809288    -0.00000000     0.00000005  0.14D-13  0.52D-13  6  2   679.43
  14      1.48391505    -1.15122590  -324.76809288    -0.00000000     0.00000002  0.22D-14  0.94D-14  6  1   730.62
  15      1.48391503    -1.15122590  -324.76809288     0.00000000     0.00000001  0.46D-15  0.13D-14  6  3   781.39
  16      1.48391502    -1.15122590  -324.76809288    -0.00000000     0.00000000  0.98D-16  0.19D-15  6  4   832.20
  17      1.48391502    -1.15122590  -324.76809288    -0.00000000     0.00000000  0.19D-16  0.28D-16  6  5   883.59
  18      1.48391501    -1.15122590  -324.76809288    -0.00000000     0.00000000  0.37D-17  0.36D-17  6  6   934.31
  19      1.48391501    -1.15122590  -324.76809288    -0.00000000     0.00000000  0.83D-18  0.60D-18  6  2   985.11
  20      1.48391501    -1.15122590  -324.76809288    -0.00000000     0.00000000  0.18D-18  0.13D-18  6  1  1035.84
  21      1.48391501    -1.15122590  -324.76809288    -0.00000000     0.00000000  0.64D-19  0.38D-19  6  3  1086.90
  22      1.48391501    -1.15122590  -324.76809288     0.00000000     0.00000000  0.29D-19  0.17D-19  6  4  1137.68

 Norm of t1 vector:      0.09773667      S-energy:     0.00000000      T1 diagnostic:  0.01092729
                                                                       D1 diagnostic:  0.02771758

 Doubles amplitudes (print threshold =  0.500E-01):

         I         J         SYM. A    SYM. B    A         B      T(IJ, AB)

        19        19         1         1         7         7     -0.05846454
        20        20         1         1         8         8     -0.05842727


 Total CPU time for triples:   1127.41 sec


 RESULTS
 =======

  Reference energy                   -323.616866981506
  CCSD singlet pair energy             -0.770020476828
  CCSD triplet pair energy             -0.381205421774
  CCSD correlation energy              -1.151225898602

  Triples (T) contribution             -0.054015648101
  Total correlation energy             -1.205241546702

  CCSD total energy                  -324.768092880107
  CCSD[T] energy                     -324.823440846760
  CCSD-T energy                      -324.821503047838
 !CCSD(T) total energy               -324.822108528208

 Timing summary (sec):

 STEP                 CPU(USER)    SYS     CPU(TOT)    WALL
 Transformation         20.18      1.19     21.37     21.36
 CCSD iterations      1117.53     16.26   1133.79   1133.83
 Triples              1127.41     18.32   1145.73   1145.69

 Program statistics:

 Available memory in ccsd:               999998300
 Min. memory needed in ccsd:              17709720
 Max. memory used in ccsd:                24415330
 Max. memory used in cckext:              20754978 (22 integral passes)



 **********************************************************************************************************************************
 DATASETS  * FILE   NREC   LENGTH (MB)   RECORD NAMES
              1      20     2834.05       500      610      700      900      950      970     1000      129      960     1100   
                                          VAR    BASINP    GEOM    SYMINP    ZMAT    AOBASIS   BASIS     P2S    ABASIS      S 
                                         1400     1410     1200     1210     1080     1600     1650     1300     1700     1380   
                                           T        V       H0       H01     AOSYM     SMH    MOLCAS    ERIS     OPER     JKOP   

              2       3        1.49       700     1000     2100   
                                         GEOM     BASIS     RHF  

 PROGRAMS   *        TOTAL   CCSD(T)       RHF       INT
 CPU TIMES  *      2367.20   2265.13     82.73     19.20
 REAL TIME  *      2417.46 SEC
 DISK USED  *         7.98 GB      
 GA USED    *         0.01 MB       (max)       0.00 MB       (current)
 **********************************************************************************************************************************

        CCSD(T)         RHF-SCF 
   -324.82210853   -323.61686698
 **********************************************************************************************************************************
 Variable memory released
