
 Primary working directories    : /tmp/1011203.840.gen4.q
 Secondary working directories  : /tmp/1011203.840.gen4.q
 Wavefunction directory         : /home/vulcan/mel64643/wfu/
 Main file repository           : /tmp/1011203.840.gen4.q/

 ARCHNAME  : Linux/x86_64
 FC        : /opt/intel/compilers_and_libraries_2016.1.150/linux/bin/intel64/ifort
 FCVERSION : 16.0.1
 BLASLIB   : -mkl
 id        : ccgc

 Nodes     nprocs
 n049         1
 ga_uses_ma=false, calling ma_init with nominal heap.
 GA-space will be limited to   8.0 MW (determined by -G option)

 Using customized tuning parameters: mindgm=10; mindgv=16; mindgc=4; mindgr=1; noblas=0; mincuda=1000; minvec=7
 default implementation of scratch files=df  

 ***,Optimization of c2h4_2
 memory,1000,m
 gthresh,energy=1.0d-12,orbital=1.0d-10,oneint=1.0d-16,twoint=1.0d-16,optgrad=1.0d-6,compress=1.0d-13
 geomtyp=xyz
 
 
 
 bohr
 geometry = {
  C   -1.2646556171   -0.0021646524   -3.4914892467
  C    1.2646550164   -0.0072162335   -3.4914826739
  H   -2.3365423924   -0.0030175002   -1.7451343911
  H    2.3365420927   -0.0016681539   -1.7451366078
  H   -2.3309083676   -0.0077357168   -5.2404999126
  H    2.3309074654   -0.0063475650   -5.2405021806
  C    0.0025260891    1.2693312156    3.4987086267
  C   -0.0025254860   -1.2599377605    3.4842239195
  H   -0.0006721183    2.3512031766    1.7585250956
  H    0.0006772374   -2.3218079336    1.7317635439
  H   -0.0006960530    2.3255489213    5.2538034440
  H    0.0006921332   -2.3361877977    5.2271064589
 }
 
 basis=aug-cc-pvdz, H=cc-pvdz
 {rhf;maxit,200}
 {mp2}

 Variables initialized (661), CPU time= 0.01 sec
 Commands  initialized (458), CPU time= 0.00 sec, 486 directives.
 Default parameters read. Elapsed time= 0.05 sec

 Checking input...
 Passed
1


                                         ***  PROGRAM SYSTEM MOLPRO  ***
                         Copyright, University College Cardiff Consultants Limited, 2008

                                    Version 2010.1 linked May 16 2016 07:17:05


 **********************************************************************************************************************************
 LABEL *   Optimization of c2h4_2                                                        
 Linux-4.4.3/n049(x86_64) 64 bit mpp version                                             DATE: 25-Feb-24          TIME: 14:51:22  
 **********************************************************************************************************************************

 SHA1:             9e8077add272b0f3cad6f7df79ec5211205f459d
 **********************************************************************************************************************************

 THRESHOLDS:

 ZERO    =  1.00D-12  ONEINT  =  1.00D-16  TWOINT  =  1.00D-16  PREFAC  =  1.00D-14  LOCALI  =  1.00D-09  EORDER  =  1.00D-04
 ENERGY  =  1.00D-12  ETEST   =  0.00D+00  EDENS   =  0.00D+00  THRDEDEF=  1.00D-06  GRADIENT=  1.00D-02  STEP    =  1.00D-03
 ORBITAL =  1.00D-10  CIVEC   =  1.00D-05  COEFF   =  1.00D-04  PRINTCI =  5.00D-02  PUNCHCI =  9.90D+01  OPTGRAD =  1.00D-06
 OPTENERG=  1.00D-06  OPTSTEP =  3.00D-04  THRGRAD =  1.00D-10  COMPRESS=  1.00D-13  VARMIN  =  1.00D-07  VARMAX  =  1.00D-03
 THRDOUB =  0.00D+00  THRDIV  =  1.00D-05  THRRED  =  1.00D-07  THRPSP  =  1.00D+00  THRDC   =  1.00D-10  THRCS   =  1.00D-10
 THRNRM  =  1.00D-08  THREQ   =  0.00D+00  THRDE   =  1.00D+00  THRREF  =  1.00D-05  SPARFAC =  1.00D+00  THRDLP  =  1.00D-07
 THRDIA  =  1.00D-10  THRDLS  =  1.00D-07  THRGPS  =  0.00D+00  THRKEX  =  0.00D+00  THRDIS  =  2.00D-01  THRVAR  =  1.00D-10
 THRLOC  =  1.00D-06  THRGAP  =  1.00D-06  THRLOCT = -1.00D+00  THRGAPT = -1.00D+00  THRORB  =  1.00D-06  THRMLTP =  0.00D+00
 THRCPQCI=  1.00D-10  KEXTA   =  0.00D+00  THRCOARS=  0.00D+00  SYMTOL  =  1.00D-06  GRADTOL =  1.00D-06  THROVL  =  1.00D-08
 THRORTH =  1.00D-08  GRID    =  1.00D-06  GRIDMAX =  1.00D-03  DTMAX   =  0.00D+00

 SETTING GEOMTYP        =    XYZ
 ZUNIT=BOHR
 

 Variable memory set to 1000000000 words,  buffer space   230000 words

 SETTING BASIS          =    AUG-CC-PVDZ,H=CC-PVDZ


 Recomputing integrals since basis changed


 Using spherical harmonics

 Library entry C      S aug-cc-pVDZ          selected for orbital group  1
 Library entry C      P aug-cc-pVDZ          selected for orbital group  1
 Library entry C      D aug-cc-pVDZ          selected for orbital group  1
 Library entry H      S cc-pVDZ              selected for orbital group  2
 Library entry H      P cc-pVDZ              selected for orbital group  2

1PROGRAM * SEWARD (Integral evaluation for generally contracted gaussian basis sets)     Author: Roland Lindh, 1990

 Geometry written to block  1 of record 700


 Point group  C1  



 ATOMIC COORDINATES

 NR  ATOM    CHARGE       X              Y              Z

   1  C       6.00   -1.264655617   -0.002164652   -3.491489247
   2  C       6.00    1.264655016   -0.007216233   -3.491482674
   3  H       1.00   -2.336542392   -0.003017500   -1.745134391
   4  H       1.00    2.336542093   -0.001668154   -1.745136608
   5  H       1.00   -2.330908368   -0.007735717   -5.240499913
   6  H       1.00    2.330907465   -0.006347565   -5.240502181
   7  C       6.00    0.002526089    1.269331216    3.498708627
   8  C       6.00   -0.002525486   -1.259937760    3.484223920
   9  H       1.00   -0.000672118    2.351203177    1.758525096
  10  H       1.00    0.000677237   -2.321807934    1.731763544
  11  H       1.00   -0.000696053    2.325548921    5.253803444
  12  H       1.00    0.000692133   -2.336187798    5.227106459

 Bond lengths in Bohr (Angstrom)

 1-2  2.529315678  1-3  2.049072295  1-5  2.048405300  2-4  2.049072295  2-6  2.048405300
     ( 1.338456211)     ( 1.084322358)     ( 1.083969400)     ( 1.084322358)     ( 1.083969400)

  7- 8  2.529315496   7- 9  2.049071958   7-11  2.048405244   8-10  2.049071958   8-12  2.048405244
       ( 1.338456115)       ( 1.084322180)       ( 1.083969370)       ( 1.084322180)       ( 1.083969370)

 Bond angles

  1-2-4  121.54070877   1-2-6  121.36740439   2-1-3  121.54070877   2-1-5  121.36740439

  3- 1- 5  117.09101064   4- 2- 6  117.09101065   7- 8-10  121.54077091   7- 8-12  121.36736460

  8- 7- 9  121.54077091   8- 7-11  121.36736461   9- 7-11  117.09098829  10- 8-12  117.09098830

 NUCLEAR CHARGE:                   32
 NUMBER OF PRIMITIVE AOS:         204
 NUMBER OF SYMMETRY AOS:          196
 NUMBER OF CONTRACTIONS:          132   ( 132A   )
 NUMBER OF CORE ORBITALS:           4   (   4A   )
 NUMBER OF VALENCE ORBITALS:       24   (  24A   )


 NUCLEAR REPULSION ENERGY  102.22440601


 Eigenvalues of metric

         1 0.173E-03 0.173E-03 0.332E-03 0.332E-03 0.553E-02 0.553E-02 0.588E-02 0.672E-02


 Contracted 2-electron integrals neglected if value below      1.0D-16
 AO integral compression algorithm  1   Integral accuracy      1.0D-16

     323.486 MB (compressed) written to integral file ( 92.1%)

     Node minimum: 323.486 MB, node maximum: 323.486 MB


 NUMBER OF SORTED TWO-ELECTRON INTEGRALS:   38531031.     BUFFER LENGTH:  32768
 NUMBER OF SEGMENTS:   3  SEGMENT LENGTH:   15998004      RECORD LENGTH: 524288

 Memory used in sort:      16.56 MW

 SORT1 READ    43892337. AND WROTE    38001551. INTEGRALS IN    110 RECORDS. CPU TIME:     0.42 SEC, REAL TIME:     0.64 SEC
 SORT2 READ    38001551. AND WROTE    38531031. INTEGRALS IN   1234 RECORDS. CPU TIME:     0.33 SEC, REAL TIME:     0.49 SEC

 FILE SIZES:   FILE 1:   288.1 MBYTE,  FILE 4:   461.4 MBYTE,   TOTAL:    749.5 MBYTE

 OPERATOR DM      FOR CENTER  0  COORDINATES:    0.000000    0.000000    0.000000


 **********************************************************************************************************************************
 DATASETS  * FILE   NREC   LENGTH (MB)   RECORD NAMES
              1      19      288.33       500      610      700      900      950      970     1000      129      960     1100   
                                          VAR    BASINP    GEOM    SYMINP    ZMAT    AOBASIS   BASIS     P2S    ABASIS      S 
                                         1400     1410     1200     1210     1080     1600     1650     1300     1700   
                                           T        V       H0       H01     AOSYM     SMH    MOLCAS    ERIS     OPER   

 PROGRAMS   *        TOTAL       INT
 CPU TIMES  *         2.93      2.88
 REAL TIME  *         3.64 SEC
 DISK USED  *         1.07 GB      
 GA USED    *         0.00 MB       (max)       0.00 MB       (current)
 **********************************************************************************************************************************

1PROGRAM * RHF-SCF (CLOSED SHELL)       Authors: W. Meyer, H.-J. Werner


 NUMBER OF ELECTRONS:      16+   16-    SPACE SYMMETRY=1    SPIN SYMMETRY: Singlet 
 CONVERGENCE THRESHOLDS:    1.00E-10 (Density)    1.00E-13 (Energy)
 MAX. NUMBER OF ITERATIONS:      200
 INTERPOLATION TYPE:            DIIS
 INTERPOLATION STEPS:              2 (START)      1 (STEP)
 LEVEL SHIFTS:                  0.00 (CLOSED)  0.00 (OPEN) 



 Orbital guess generated from atomic densities. Full valence occupancy:   28

 Molecular orbital dump at record        2100.2

 ITERATION    DDIFF          GRAD             ENERGY        2-EL.EN.            DIPOLE MOMENTS         DIIS
    1      0.000D+00      0.000D+00      -156.03861457    307.072373    0.00000    0.00013   -0.00001    0
    2      0.000D+00      0.347D-02      -156.07905060    304.340142   -0.00000    0.00027   -0.00001    1
    3      0.713D-02      0.117D-02      -156.08310996    305.464079   -0.00000    0.00004   -0.00001    2
    4      0.225D-02      0.354D-03      -156.08368011    305.177241   -0.00000    0.00007   -0.00001    3
    5      0.796D-03      0.441D-04      -156.08369093    305.191807   -0.00000    0.00005   -0.00001    4
    6      0.111D-03      0.712D-05      -156.08369134    305.190245   -0.00000    0.00006   -0.00001    5
    7      0.188D-04      0.170D-05      -156.08369136    305.190228   -0.00000    0.00005   -0.00001    6
    8      0.516D-05      0.262D-06      -156.08369136    305.190237   -0.00000    0.00006   -0.00001    6
    9      0.812D-06      0.602D-07      -156.08369136    305.190241   -0.00000    0.00005   -0.00001    6
   10      0.150D-06      0.236D-07      -156.08369136    305.190242   -0.00000    0.00006   -0.00001    6
   11      0.435D-07      0.444D-08      -156.08369136    305.190242   -0.00000    0.00006   -0.00001    6
   12      0.106D-07      0.130D-08      -156.08369136    305.190242   -0.00000    0.00006   -0.00001    6
   13      0.337D-08      0.475D-09      -156.08369136    305.190242   -0.00000    0.00006   -0.00001    6
   14      0.118D-08      0.162D-09      -156.08369136    305.190242   -0.00000    0.00006   -0.00001    7
   15      0.392D-09      0.461D-10      -156.08369136    305.190242   -0.00000    0.00006   -0.00001    7
   16      0.132D-09      0.124D-10      -156.08369136    305.190242   -0.00000    0.00006   -0.00001    7
   17      0.342D-10      0.268D-11      -156.08369136    305.190242   -0.00000    0.00006   -0.00001    7
   18      0.842D-11      0.860D-12      -156.08369136    305.190242   -0.00000    0.00006   -0.00001    7
   19      0.359D-11      0.346D-12      -156.08369136    305.190242   -0.00000    0.00006   -0.00001    8
   20      0.204D-11      0.839D-13      -156.08369136    305.190242   -0.00000    0.00006   -0.00001    7
   21      0.251D-11      0.780D-13      -156.08369136    305.190242   -0.00000    0.00006   -0.00001    8
   22      0.129D-11      0.602D-13      -156.08369136    305.190242   -0.00000    0.00006   -0.00001    9
   23      0.596D-12      0.596D-13      -156.08369136    305.190242   -0.00000    0.00006   -0.00001    9
   24      0.388D-12      0.635D-13      -156.08369136    305.190242   -0.00000    0.00006   -0.00001    9
   25      0.403D-12      0.666D-13      -156.08369136    305.190242   -0.00000    0.00006   -0.00001    9
   26      0.231D-12      0.528D-13      -156.08369136    305.190242   -0.00000    0.00006   -0.00001    9
   27      0.526D-12      0.451D-13      -156.08369136    305.190242   -0.00000    0.00006   -0.00001    9
   28      0.524D-12      0.468D-13      -156.08369136    305.190242   -0.00000    0.00006   -0.00001    9
   29      0.257D-12      0.527D-13      -156.08369136    305.190242   -0.00000    0.00006   -0.00001    9
   30      0.443D-12      0.491D-13      -156.08369136    305.190242   -0.00000    0.00006   -0.00001    9
   31      0.300D-12      0.702D-13      -156.08369136    305.190242   -0.00000    0.00006   -0.00001    9
   32      0.197D-12      0.481D-13      -156.08369136    305.190242   -0.00000    0.00006   -0.00001    9
   33      0.414D-12      0.427D-13      -156.08369136    305.190242   -0.00000    0.00006   -0.00001    9
   34      0.384D-12      0.679D-13      -156.08369136    305.190242   -0.00000    0.00006   -0.00001    9
   35      0.189D-12      0.517D-13      -156.08369136    305.190242   -0.00000    0.00006   -0.00001    9
   36      0.276D-12      0.566D-13      -156.08369136    305.190242   -0.00000    0.00006   -0.00001    9
   37      0.406D-12      0.578D-13      -156.08369136    305.190242   -0.00000    0.00006   -0.00001    9
   38      0.294D-12      0.532D-13      -156.08369136    305.190242   -0.00000    0.00006   -0.00001    9
   39      0.157D-12      0.566D-13      -156.08369136    305.190242   -0.00000    0.00006   -0.00001    9
   40      0.331D-12      0.506D-13      -156.08369136    305.190242   -0.00000    0.00006   -0.00001    9
   41      0.274D-12      0.424D-13      -156.08369136    305.190242   -0.00000    0.00006   -0.00001    9
   42      0.552D-12      0.617D-13      -156.08369136    305.190242   -0.00000    0.00006   -0.00001    9
   43      0.733D-12      0.448D-13      -156.08369136    305.190242   -0.00000    0.00006   -0.00001    9
   44      0.479D-12      0.549D-13      -156.08369136    305.190242   -0.00000    0.00006   -0.00001    9
   45      0.760D-13      0.641D-13      -156.08369136    305.190242   -0.00000    0.00006   -0.00001    9
   46      0.188D-12      0.569D-13      -156.08369136    305.190242   -0.00000    0.00006   -0.00001    9
   47      0.246D-12      0.478D-13      -156.08369136    305.190242   -0.00000    0.00006   -0.00001    9
   48      0.209D-12      0.412D-13      -156.08369136    305.190242   -0.00000    0.00006   -0.00001    9
   49      0.824D-13      0.391D-13      -156.08369136    305.190242   -0.00000    0.00006   -0.00001    9
   50      0.138D-12      0.518D-13      -156.08369136    305.190242   -0.00000    0.00006   -0.00001    9
   51      0.323D-12      0.455D-13      -156.08369136    305.190242   -0.00000    0.00006   -0.00001    9
   52      0.395D-12      0.617D-13      -156.08369136    305.190242   -0.00000    0.00006   -0.00001    9
   53      0.393D-12      0.394D-13      -156.08369136    305.190242   -0.00000    0.00006   -0.00001    9
   54      0.394D-12      0.460D-13      -156.08369136    305.190242   -0.00000    0.00006   -0.00001    9
   55      0.359D-12      0.636D-13      -156.08369136    305.190242   -0.00000    0.00006   -0.00001    0

 Final occupancy:  16

 !RHF STATE 1.1 Energy               -156.083691364017
 Nuclear energy                       102.22440601
 One-electron energy                 -410.90321844
 Two-electron energy                  152.59512107
 Virial quotient                       -1.00199373
 !RHF STATE 1.1 Dipole moment          -0.00000181     0.00005715    -0.00000946
 Dipole moment /Debye                  -0.00000459     0.00014524    -0.00002404

 Orbital energies:

         1.1          2.1          3.1          4.1          5.1          6.1          7.1          8.1          9.1         10.1
    -11.241781   -11.241778   -11.240162   -11.240161    -1.038659    -1.032833    -0.794781    -0.794781    -0.656813    -0.631285

        11.1         12.1         13.1         14.1         15.1         16.1         17.1         18.1
     -0.588277    -0.584971    -0.508768    -0.508766    -0.376337    -0.376336     0.069015     0.069015


 **********************************************************************************************************************************
 DATASETS  * FILE   NREC   LENGTH (MB)   RECORD NAMES
              1      19      288.33       500      610      700      900      950      970     1000      129      960     1100   
                                          VAR    BASINP    GEOM    SYMINP    ZMAT    AOBASIS   BASIS     P2S    ABASIS      S 
                                         1400     1410     1200     1210     1080     1600     1650     1300     1700   
                                           T        V       H0       H01     AOSYM     SMH    MOLCAS    ERIS     OPER   

              2       3        0.81       700     1000     2100   
                                         GEOM     BASIS     RHF  

 PROGRAMS   *        TOTAL       RHF       INT
 CPU TIMES  *        19.00     16.07      2.88
 REAL TIME  *        21.51 SEC
 DISK USED  *         1.07 GB      
 GA USED    *         0.00 MB       (max)       0.00 MB       (current)
 **********************************************************************************************************************************


1PROGRAM * MP2 (Closed-shell)     Authors: C. Hampel, H.-J. Werner, 1991, M. Deegan, P.J. Knowles, 1992


 Convergence thresholds:  THRVAR = 1.00D-08  THRDEN = 1.00D-12

 Number of core orbitals:           4 (   4 )
 Number of closed-shell orbitals:  12 (  12 )
 Number of external orbitals:     116 ( 116 )

 Molecular orbitals read from record     2100.2  Type=RHF/CANONICAL (state 1.1)

 Number of N-1 electron functions:              12
 Number of N-2 electron functions:              78
 Number of singly external CSFs:              1392
 Number of doubly external CSFs:            969528
 Total number of CSFs:                      970921

 Length of J-op  integral file:               0.00 MB
 Length of K-op  integral file:               1.24 MB

 Integral transformation finished. Total CPU:   0.67 sec, npass=  1  Memory used:   2.65 MW

 Memory needed for MP2:                      0.08 MW

 SCS-MP2 correlation energy:           -0.573945083126   (PS=  1.200000  PT=  0.333333)
 SCS-MP2 total energy:               -156.657636447143


  Reference energy                   -156.083691364017
  MP2 singlet pair energy              -0.379790653476
  MP2 triplet pair energy              -0.189958337606
  MP2 correlation energy               -0.569748991081

 !MP2 total energy                   -156.653440355099


 **********************************************************************************************************************************
 DATASETS  * FILE   NREC   LENGTH (MB)   RECORD NAMES
              1      20      305.05       500      610      700      900      950      970     1000      129      960     1100   
                                          VAR    BASINP    GEOM    SYMINP    ZMAT    AOBASIS   BASIS     P2S    ABASIS      S 
                                         1400     1410     1200     1210     1080     1600     1650     1300     1700     1380   
                                           T        V       H0       H01     AOSYM     SMH    MOLCAS    ERIS     OPER     JKOP   

              2       3        0.81       700     1000     2100   
                                         GEOM     BASIS     RHF  

 PROGRAMS   *        TOTAL       MP2       RHF       INT
 CPU TIMES  *        19.73      0.73     16.07      2.88
 REAL TIME  *        22.33 SEC
 DISK USED  *         1.07 GB      
 GA USED    *         0.00 MB       (max)       0.00 MB       (current)
 **********************************************************************************************************************************

        MP2             RHF-SCF 
   -156.65344036   -156.08369136
 **********************************************************************************************************************************
 Variable memory released
