
 Primary working directories    : /tmp/1059987.1256.gen4.q
 Secondary working directories  : /tmp/1059987.1256.gen4.q
 Wavefunction directory         : /home/vulcan/jj04645/wfu/
 Main file repository           : /tmp/1059987.1256.gen4.q/

 ARCHNAME  : Linux/x86_64
 FC        : /opt/intel/compilers_and_libraries_2016.1.150/linux/bin/intel64/ifort
 FCVERSION : 16.0.1
 BLASLIB   : -mkl
 id        : ccgc

 Nodes     nprocs
 n067         1
 ga_uses_ma=false, calling ma_init with nominal heap.
 GA-space will be limited to   8.0 MW (determined by -G option)

 Using customized tuning parameters: mindgm=10; mindgv=16; mindgc=4; mindgr=1; noblas=0; mincuda=1000; minvec=7
 default implementation of scratch files=df  

 ***,Optimization of 1_4_cyclohexadiene
 memory,1000,m
 gthresh,energy=1.0d-12,orbital=1.0d-10,oneint=1.0d-16,twoint=1.0d-16,optgrad=1.0d-6,compress=1.0d-13
 geomtyp=xyz
 
 bohr
 geometry = {
  H    4.1020597448    0.0017285816   -1.6462986940
  C    2.8410814820   -0.0010135005   -0.0000016881
  C   -1.2651113948    2.3663395206    0.0039413893
  C   -1.2651113948   -2.3683665217   -0.0039447655
  C   -2.8410814820   -0.0010135005   -0.0000016881
  C    1.2651113948   -2.3683665217   -0.0039447655
  C    1.2651113948    2.3663395206    0.0039413893
  H   -2.2620825517    4.1586264785   -0.0033279677
  H    2.2620825517    4.1586264785   -0.0033279677
  H   -4.1020597448    0.0017285816   -1.6462986940
  H    2.2747310044   -4.1535589758    0.0033364081
  H   -2.2747310044   -4.1535589758    0.0033364081
  H    4.1020597448   -0.0037555826    1.6462953178
  H   -4.1020597448   -0.0037555826    1.6462953178
 }
 
 basis=VDZ
 {rhf;maxit,200}
 {ccsd(t);maxit,200}

 Variables initialized (661), CPU time= 0.01 sec
 Commands  initialized (458), CPU time= 0.00 sec, 486 directives.
 Default parameters read. Elapsed time= 0.05 sec

 Checking input...
 Passed
1


                                         ***  PROGRAM SYSTEM MOLPRO  ***
                         Copyright, University College Cardiff Consultants Limited, 2008

                                    Version 2010.1 linked May 16 2016 07:17:05


 **********************************************************************************************************************************
 LABEL *   Optimization of 1_4_cyclohexadiene                                            
 Linux-4.4.3/n067(x86_64) 64 bit mpp version                                             DATE: 06-May-24          TIME: 16:56:37  
 **********************************************************************************************************************************

 SHA1:             9e8077add272b0f3cad6f7df79ec5211205f459d
 **********************************************************************************************************************************

 THRESHOLDS:

 ZERO    =  1.00D-12  ONEINT  =  1.00D-16  TWOINT  =  1.00D-16  PREFAC  =  1.00D-14  LOCALI  =  1.00D-09  EORDER  =  1.00D-04
 ENERGY  =  1.00D-12  ETEST   =  0.00D+00  EDENS   =  0.00D+00  THRDEDEF=  1.00D-06  GRADIENT=  1.00D-02  STEP    =  1.00D-03
 ORBITAL =  1.00D-10  CIVEC   =  1.00D-05  COEFF   =  1.00D-04  PRINTCI =  5.00D-02  PUNCHCI =  9.90D+01  OPTGRAD =  1.00D-06
 OPTENERG=  1.00D-06  OPTSTEP =  3.00D-04  THRGRAD =  1.00D-10  COMPRESS=  1.00D-13  VARMIN  =  1.00D-07  VARMAX  =  1.00D-03
 THRDOUB =  0.00D+00  THRDIV  =  1.00D-05  THRRED  =  1.00D-07  THRPSP  =  1.00D+00  THRDC   =  1.00D-10  THRCS   =  1.00D-10
 THRNRM  =  1.00D-08  THREQ   =  0.00D+00  THRDE   =  1.00D+00  THRREF  =  1.00D-05  SPARFAC =  1.00D+00  THRDLP  =  1.00D-07
 THRDIA  =  1.00D-10  THRDLS  =  1.00D-07  THRGPS  =  0.00D+00  THRKEX  =  0.00D+00  THRDIS  =  2.00D-01  THRVAR  =  1.00D-10
 THRLOC  =  1.00D-06  THRGAP  =  1.00D-06  THRLOCT = -1.00D+00  THRGAPT = -1.00D+00  THRORB  =  1.00D-06  THRMLTP =  0.00D+00
 THRCPQCI=  1.00D-10  KEXTA   =  0.00D+00  THRCOARS=  0.00D+00  SYMTOL  =  1.00D-06  GRADTOL =  1.00D-06  THROVL  =  1.00D-08
 THRORTH =  1.00D-08  GRID    =  1.00D-06  GRIDMAX =  1.00D-03  DTMAX   =  0.00D+00

 SETTING GEOMTYP        =    XYZ
 ZUNIT=BOHR
 

 Variable memory set to 1000000000 words,  buffer space   230000 words

 SETTING BASIS          =    VDZ


 Recomputing integrals since basis changed


 Using spherical harmonics

 Library entry H      S cc-pVDZ              selected for orbital group  1
 Library entry H      P cc-pVDZ              selected for orbital group  1
 Library entry C      S cc-pVDZ              selected for orbital group  2
 Library entry C      P cc-pVDZ              selected for orbital group  2
 Library entry C      D cc-pVDZ              selected for orbital group  2

1PROGRAM * SEWARD (Integral evaluation for generally contracted gaussian basis sets)     Author: Roland Lindh, 1990

 Geometry written to block  1 of record 700


 Point group  Cs  



 ATOMIC COORDINATES

 NR  ATOM    CHARGE       X              Y              Z

   1  H       1.00    4.102059745    0.001728582   -1.646298694
   2  H       1.00   -4.102059745    0.001728582   -1.646298694
   3  C       6.00    2.841081482   -0.001013501   -0.000001688
   4  C       6.00   -2.841081482   -0.001013501   -0.000001688
   5  C       6.00   -1.265111395    2.366339521    0.003941389
   6  C       6.00    1.265111395    2.366339521    0.003941389
   7  C       6.00   -1.265111395   -2.368366522   -0.003944765
   8  C       6.00    1.265111395   -2.368366522   -0.003944765
   9  H       1.00   -2.262082552    4.158626478   -0.003327968
  10  H       1.00    2.262082552    4.158626478   -0.003327968
  11  H       1.00    2.274731004   -4.153558976    0.003336408
  12  H       1.00   -2.274731004   -4.153558976    0.003336408
  13  H       1.00    4.102059745   -0.003755583    1.646295318
  14  H       1.00   -4.102059745   -0.003755583    1.646295318

 Bond lengths in Bohr (Angstrom)

  1- 3  2.073732753   2- 4  2.073732753   3- 6  2.843951053   3- 8  2.843951053   3-13  2.073732753
       ( 1.097372110)       ( 1.097372110)       ( 1.504954081)       ( 1.504954081)       ( 1.097372110)

  4- 5  2.843951053   4- 7  2.843951053   4-14  2.073732753   5- 6  2.530222790   5- 9  2.050925857
       ( 1.504954081)       ( 1.504954081)       ( 1.097372110)       ( 1.338936234)       ( 1.085303221)

  6-10  2.050925857   7- 8  2.530222790   7-12  2.050925857   8-11  2.050925857
       ( 1.085303221)       ( 1.338936234)       ( 1.085303221)       ( 1.085303221)

 Bond angles

  1- 3- 6  109.69187805   1- 3- 8  109.69187805   1- 3-13  105.09958657   2- 4- 5  109.69187805

  2- 4- 7  109.69187805   2- 4-14  105.09958657   3- 6- 5  123.65205841   3- 6-10  117.26209294

  3- 8- 7  123.65205841   3- 8-11  116.85695047   4- 5- 6  123.65205841   4- 5- 9  117.26209294

  4- 7- 8  123.65205841   4- 7-12  116.85695047   5- 4- 7  112.69588317   5- 4-14  109.69187805

  5- 6-10  119.08508119   6- 3- 8  112.69588317   6- 3-13  109.69187805   6- 5- 9  119.08508119

  7- 4-14  109.69187805   7- 8-11  119.49022339   8- 3-13  109.69187805   8- 7-12  119.49022339

 NUCLEAR CHARGE:                   44
 NUMBER OF PRIMITIVE AOS:         218
 NUMBER OF SYMMETRY AOS:          212
 NUMBER OF CONTRACTIONS:          124   (  62A'  +  62A"  )
 NUMBER OF CORE ORBITALS:           6   (   3A'  +   3A"  )
 NUMBER OF VALENCE ORBITALS:       32   (  16A'  +  16A"  )


 NUCLEAR REPULSION ENERGY  217.75801809


 Eigenvalues of metric

         1 0.345E-02 0.562E-02 0.182E-01 0.257E-01 0.273E-01 0.356E-01 0.360E-01 0.382E-01
         2 0.670E-03 0.169E-02 0.315E-02 0.432E-02 0.143E-01 0.163E-01 0.227E-01 0.259E-01


 Contracted 2-electron integrals neglected if value below      1.0D-16
 AO integral compression algorithm  1   Integral accuracy      1.0D-16

     139.985 MB (compressed) written to integral file ( 96.1%)

     Node minimum: 139.985 MB, node maximum: 139.985 MB


 NUMBER OF SORTED TWO-ELECTRON INTEGRALS:   15258789.     BUFFER LENGTH:  32768
 NUMBER OF SEGMENTS:   1  SEGMENT LENGTH:   15258789      RECORD LENGTH: 524288

 Memory used in sort:      15.82 MW

 SORT1 READ    18180432. AND WROTE    15134343. INTEGRALS IN     44 RECORDS. CPU TIME:     0.19 SEC, REAL TIME:     0.27 SEC
 SORT2 READ    15134343. AND WROTE    15258789. INTEGRALS IN    534 RECORDS. CPU TIME:     0.19 SEC, REAL TIME:     0.25 SEC

 FILE SIZES:   FILE 1:   122.7 MBYTE,  FILE 4:   184.6 MBYTE,   TOTAL:    307.3 MBYTE

 OPERATOR DM      FOR CENTER  0  COORDINATES:    0.000000    0.000000    0.000000


 **********************************************************************************************************************************
 DATASETS  * FILE   NREC   LENGTH (MB)   RECORD NAMES
              1      19      122.82       500      610      700      900      950      970     1000      129      960     1100   
                                          VAR    BASINP    GEOM    SYMINP    ZMAT    AOBASIS   BASIS     P2S    ABASIS      S 
                                         1400     1410     1200     1210     1080     1600     1650     1300     1700   
                                           T        V       H0       H01     AOSYM     SMH    MOLCAS    ERIS     OPER   

 PROGRAMS   *        TOTAL       INT
 CPU TIMES  *         2.67      2.62
 REAL TIME  *         3.06 SEC
 DISK USED  *       448.23 MB      
 GA USED    *         0.00 MB       (max)       0.00 MB       (current)
 **********************************************************************************************************************************

1PROGRAM * RHF-SCF (CLOSED SHELL)       Authors: W. Meyer, H.-J. Werner


 NUMBER OF ELECTRONS:      22+   22-
 CONVERGENCE THRESHOLDS:    1.00E-10 (Density)    1.00E-13 (Energy)
 MAX. NUMBER OF ITERATIONS:      200
 INTERPOLATION TYPE:            DIIS
 INTERPOLATION STEPS:              2 (START)      1 (STEP)
 LEVEL SHIFTS:                  0.00 (CLOSED)  0.00 (OPEN) 



 Orbital guess generated from atomic densities. Full valence occupancy:   19  19

 Molecular orbital dump at record        2100.2

 Initial alpha occupancy:  13   9
 Initial beta  occupancy:  13   9
 Wave function symmetry:    1

 ITERATION    DDIFF          GRAD             ENERGY        2-EL.EN.            DIPOLE MOMENTS         DIIS
    1      0.000D+00      0.000D+00      -231.78151091    590.482155    0.00000    0.00041   -0.00000    0
    2      0.000D+00      0.638D-02      -231.84386290    585.626138    0.00000   -0.00017   -0.00000    1
    3      0.129D-01      0.251D-02      -231.85141681    587.950840    0.00000   -0.00014   -0.00000    2
    4      0.479D-02      0.854D-03      -231.85265979    587.340390    0.00000   -0.00026   -0.00000    3
    5      0.178D-02      0.870D-04      -231.85267814    587.345499    0.00000   -0.00025   -0.00000    4
    6      0.327D-03      0.186D-04      -231.85267873    587.342392    0.00000   -0.00026   -0.00000    5
    7      0.456D-04      0.618D-05      -231.85267879    587.343437    0.00000   -0.00025   -0.00000    6
    8      0.177D-04      0.121D-05      -231.85267879    587.343321    0.00000   -0.00025   -0.00000    7
    9      0.418D-05      0.247D-06      -231.85267879    587.343359    0.00000   -0.00025   -0.00000    6
   10      0.928D-06      0.512D-07      -231.85267879    587.343352    0.00000   -0.00025   -0.00000    6
   11      0.196D-06      0.748D-08      -231.85267879    587.343355    0.00000   -0.00025   -0.00000    6
   12      0.219D-07      0.189D-08      -231.85267879    587.343353    0.00000   -0.00025   -0.00000    6
   13      0.581D-08      0.643D-09      -231.85267879    587.343354    0.00000   -0.00025   -0.00000    6
   14      0.153D-08      0.166D-09      -231.85267879    587.343354    0.00000   -0.00025   -0.00000    6
   15      0.499D-09      0.347D-10      -231.85267879    587.343354    0.00000   -0.00025   -0.00000    6
   16      0.791D-10      0.131D-10      -231.85267879    587.343354    0.00000   -0.00025   -0.00000    7
   17      0.329D-10      0.337D-11      -231.85267879    587.343354    0.00000   -0.00025   -0.00000    7
   18      0.894D-11      0.914D-12      -231.85267879    587.343354    0.00000   -0.00025   -0.00000    0

 Final occupancy:  13   9

 !RHF STATE 1.1 Energy               -231.852678794475
 Nuclear energy                       217.75801809
 One-electron energy                 -743.28237378
 Two-electron energy                  293.67167689
 Virial quotient                       -1.00115584
 !RHF STATE 1.1 Dipole moment           0.00000000    -0.00025451    -0.00000315
 Dipole moment /Debye                   0.00000000    -0.00064685    -0.00000801

 Orbital energies:

         1.1          2.1          3.1          4.1          5.1          6.1          7.1          8.1          9.1         10.1
    -11.233779   -11.229388   -11.229129    -1.122177    -1.008409    -0.861948    -0.678373    -0.597629    -0.595245    -0.561512

        11.1         12.1         13.1         14.1         15.1
     -0.490810    -0.358787    -0.329768     0.180774     0.223621

         1.2          2.2          3.2          4.2          5.2          6.2          7.2          8.2          9.2         10.2
    -11.233779   -11.227771   -11.227516    -1.004920    -0.784627    -0.654605    -0.561728    -0.531808    -0.445801     0.174483

        11.2
      0.193450


 **********************************************************************************************************************************
 DATASETS  * FILE   NREC   LENGTH (MB)   RECORD NAMES
              1      19      122.82       500      610      700      900      950      970     1000      129      960     1100   
                                          VAR    BASINP    GEOM    SYMINP    ZMAT    AOBASIS   BASIS     P2S    ABASIS      S 
                                         1400     1410     1200     1210     1080     1600     1650     1300     1700   
                                           T        V       H0       H01     AOSYM     SMH    MOLCAS    ERIS     OPER   

              2       3        0.65       700     1000     2100   
                                         GEOM     BASIS     RHF  

 PROGRAMS   *        TOTAL       RHF       INT
 CPU TIMES  *         4.02      1.34      2.62
 REAL TIME  *         4.67 SEC
 DISK USED  *       448.23 MB      
 GA USED    *         0.00 MB       (max)       0.00 MB       (current)
 **********************************************************************************************************************************


1PROGRAM * CCSD (Closed-shell coupled cluster)     Authors: C. Hampel, H.-J. Werner, 1991, M. Deegan, P.J. Knowles, 1992


 Convergence thresholds:  THRVAR = 1.00D-08  THRDEN = 1.00D-12

 CCSD(T)     terms to be evaluated (factor= 1.000)


 Number of core orbitals:           6 (   3   3 )
 Number of closed-shell orbitals:  16 (  10   6 )
 Number of external orbitals:     102 (  49  53 )

 Molecular orbitals read from record     2100.2  Type=RHF/CANONICAL (state 1.1)

 Number of N-1 electron functions:              16
 Number of N-2 electron functions:             136
 Number of singly external CSFs:               808
 Number of doubly external CSFs:            666736
 Total number of CSFs:                      667545

 Length of J-op  integral file:               0.00 MB
 Length of K-op  integral file:               0.57 MB
 Length of 3-ext integral record:             0.00 MB

 Memory could be reduced to 11.72 Mwords without degradation in triples

 Integral transformation finished. Total CPU:   0.54 sec, npass=  1  Memory used:   7.32 MW

 Reference energy:                   -231.85267879

 MP2 singlet pair energy:              -0.50639768
 MP2 triplet pair energy:              -0.29378169
 MP2 correlation energy:               -0.80017937
 MP2 total energy:                   -232.65285816

 SCS-MP2 correlation energy:           -0.79047471   (PS=  1.200000  PT=  0.333333)
 SCS-MP2 total energy:               -232.64315351

 ITER.      SQ.NORM     CORR.ENERGY   TOTAL ENERGY   ENERGY CHANGE        DEN1      VAR(S)    VAR(P)  DIIS     TIME
   1      1.31822385    -0.85463307  -232.70731186    -0.05445370    -0.03136141  0.31D-02  0.54D-02  1  1     1.56
   2      1.34642598    -0.86045985  -232.71313864    -0.00582678    -0.02420999  0.68D-04  0.70D-03  2  2     2.62
   3      1.35481276    -0.86077214  -232.71345093    -0.00031229    -0.00386574  0.20D-04  0.69D-04  3  3     3.69
   4      1.35835742    -0.86089307  -232.71357187    -0.00012093    -0.00107839  0.10D-05  0.68D-05  4  4     4.76
   5      1.35919293    -0.86090491  -232.71358371    -0.00001184    -0.00017821  0.50D-07  0.66D-06  5  5     5.83
   6      1.35935050    -0.86089725  -232.71357604     0.00000766    -0.00002582  0.49D-08  0.36D-07  6  6     6.91
   7      1.35936594    -0.86089791  -232.71357671    -0.00000066     0.00000108  0.17D-08  0.32D-08  6  2     7.98
   8      1.35937060    -0.86089778  -232.71357657     0.00000014    -0.00000094  0.56D-10  0.35D-09  6  1     9.05
   9      1.35937064    -0.86089785  -232.71357664    -0.00000007     0.00000044  0.18D-10  0.52D-10  6  3    10.12
  10      1.35937057    -0.86089789  -232.71357668    -0.00000004     0.00000017  0.80D-12  0.82D-11  6  4    11.19
  11      1.35937001    -0.86089792  -232.71357671    -0.00000003     0.00000022  0.85D-13  0.11D-11  6  6    12.26
  12      1.35936990    -0.86089792  -232.71357672    -0.00000001     0.00000005  0.20D-13  0.98D-13  6  5    13.34
  13      1.35936990    -0.86089792  -232.71357672     0.00000000    -0.00000000  0.76D-14  0.15D-13  6  2    14.41
  14      1.35936992    -0.86089792  -232.71357672     0.00000000    -0.00000001  0.56D-15  0.13D-14  6  1    15.48
  15      1.35936993    -0.86089792  -232.71357672     0.00000000    -0.00000000  0.17D-15  0.15D-15  6  3    16.55
  16      1.35936993    -0.86089792  -232.71357672     0.00000000    -0.00000000  0.19D-16  0.24D-16  6  4    17.61
  17      1.35936993    -0.86089792  -232.71357672    -0.00000000     0.00000000  0.34D-17  0.38D-17  6  6    18.69
  18      1.35936993    -0.86089792  -232.71357672    -0.00000000     0.00000000  0.23D-18  0.65D-18  6  5    19.77
  19      1.35936993    -0.86089792  -232.71357672     0.00000000     0.00000000  0.29D-19  0.15D-18  6  2    20.84
  20      1.35936993    -0.86089792  -232.71357672     0.00000000    -0.00000000  0.65D-21  0.26D-19  6  1    21.92
  21      1.35936993    -0.86089792  -232.71357672     0.00000000    -0.00000000  0.14D-21  0.18D-20  6  4    23.00
  22      1.35936993    -0.86089792  -232.71357672     0.00000000    -0.00000000  0.16D-22  0.85D-22  6  3    24.07

 Norm of t1 vector:      0.07885052      S-energy:     0.00000000      T1 diagnostic:  0.00985631
                                                                       D1 diagnostic:  0.02884849

 Doubles amplitudes (print threshold =  0.500E-01):

         I         J         SYM. A    SYM. B    A         B      T(IJ, AB)

         9         9         2         2         1         1     -0.07473459
        10         9         2         2         2         1      0.06108294
        10        10         2         2         2         2     -0.05814079


 Total CPU time for triples:     19.21 sec


 RESULTS
 =======

  Reference energy                   -231.852678794476
  CCSD singlet pair energy             -0.593574548363
  CCSD triplet pair energy             -0.267323373406
  CCSD correlation energy              -0.860897921770

  Triples (T) contribution             -0.032225504737
  Total correlation energy             -0.893123426507

  CCSD total energy                  -232.713576716246
  CCSD[T] energy                     -232.746535535860
  CCSD-T energy                      -232.745483428995
 !CCSD(T) total energy               -232.745802220983

 Timing summary (sec):

 STEP                 CPU(USER)    SYS     CPU(TOT)    WALL
 Transformation          0.56      0.08      0.64      0.64
 CCSD iterations        23.51      1.03     24.54     24.60
 Triples                19.21      0.69     19.90     19.91

 Program statistics:

 Available memory in ccsd:               999998876
 Min. memory needed in ccsd:               1756355
 Max. memory used in ccsd:                 2339771
 Max. memory used in cckext:               2447296 (22 integral passes)



 **********************************************************************************************************************************
 DATASETS  * FILE   NREC   LENGTH (MB)   RECORD NAMES
              1      20      169.99       500      610      700      900      950      970     1000      129      960     1100   
                                          VAR    BASINP    GEOM    SYMINP    ZMAT    AOBASIS   BASIS     P2S    ABASIS      S 
                                         1400     1410     1200     1210     1080     1600     1650     1300     1700     1380   
                                           T        V       H0       H01     AOSYM     SMH    MOLCAS    ERIS     OPER     JKOP   

              2       3        0.65       700     1000     2100   
                                         GEOM     BASIS     RHF  

 PROGRAMS   *        TOTAL   CCSD(T)       RHF       INT
 CPU TIMES  *        47.31     43.30      1.34      2.62
 REAL TIME  *        49.86 SEC
 DISK USED  *       448.23 MB      
 GA USED    *         0.00 MB       (max)       0.00 MB       (current)
 **********************************************************************************************************************************

        CCSD(T)         RHF-SCF 
   -232.74580222   -231.85267879
 **********************************************************************************************************************************
 Variable memory released
