
 Primary working directories    : /tmp/1192576.317.gen5.q
 Secondary working directories  : /tmp/1192576.317.gen5.q
 Wavefunction directory         : /home/vulcan/mel64643/wfu/
 Main file repository           : /tmp/1192576.317.gen5.q/

 ARCHNAME  : Linux/x86_64
 FC        : /opt/intel/compilers_and_libraries_2016.1.150/linux/bin/intel64/ifort
 FCVERSION : 16.0.1
 BLASLIB   : -mkl
 id        : ccgc

 Nodes     nprocs
 n072         1
 ga_uses_ma=false, calling ma_init with nominal heap.
 GA-space will be limited to   8.0 MW (determined by -G option)

 Using customized tuning parameters: mindgm=10; mindgv=16; mindgc=4; mindgr=1; noblas=0; mincuda=1000; minvec=7
 default implementation of scratch files=df  

 ***,Optimization of h2o_2
 memory,1000,m
 gthresh,energy=1.0d-12,orbital=1.0d-10,oneint=1.0d-16,twoint=1.0d-16,optgrad=1.0d-6,compress=1.0d-13
 geomtyp=xyz
 
 
 
 bohr
 geometry = {
  O   -2.8116488844   -0.2070965800    0.0000000000
  H   -3.5614958369    1.4464438147    0.0000000000
  H   -1.0099316679    0.1061128021    0.0000000000
  O    2.6795153845    0.1976880537    0.0000000000
  H    3.3342733862   -0.7115980800   -1.4488270396
  H    3.3342733862   -0.7015980800    1.4388270396
 }
 
 basis=cc-pvtz
 {rhf;maxit,200}
 {ccsd(t);maxit,200}

 Variables initialized (661), CPU time= 0.00 sec
 Commands  initialized (458), CPU time= 0.00 sec, 486 directives.
 Default parameters read. Elapsed time= 0.03 sec

 Checking input...
 Passed
1


                                         ***  PROGRAM SYSTEM MOLPRO  ***
                         Copyright, University College Cardiff Consultants Limited, 2008

                                    Version 2010.1 linked May 16 2016 07:17:05


 **********************************************************************************************************************************
 LABEL *   Optimization of h2o_2                                                         
 Linux-4.4.3/n072(x86_64) 64 bit mpp version                                             DATE: 29-Aug-24          TIME: 11:25:30  
 **********************************************************************************************************************************

 SHA1:             9e8077add272b0f3cad6f7df79ec5211205f459d
 **********************************************************************************************************************************

 THRESHOLDS:

 ZERO    =  1.00D-12  ONEINT  =  1.00D-16  TWOINT  =  1.00D-16  PREFAC  =  1.00D-14  LOCALI  =  1.00D-09  EORDER  =  1.00D-04
 ENERGY  =  1.00D-12  ETEST   =  0.00D+00  EDENS   =  0.00D+00  THRDEDEF=  1.00D-06  GRADIENT=  1.00D-02  STEP    =  1.00D-03
 ORBITAL =  1.00D-10  CIVEC   =  1.00D-05  COEFF   =  1.00D-04  PRINTCI =  5.00D-02  PUNCHCI =  9.90D+01  OPTGRAD =  1.00D-06
 OPTENERG=  1.00D-06  OPTSTEP =  3.00D-04  THRGRAD =  1.00D-10  COMPRESS=  1.00D-13  VARMIN  =  1.00D-07  VARMAX  =  1.00D-03
 THRDOUB =  0.00D+00  THRDIV  =  1.00D-05  THRRED  =  1.00D-07  THRPSP  =  1.00D+00  THRDC   =  1.00D-10  THRCS   =  1.00D-10
 THRNRM  =  1.00D-08  THREQ   =  0.00D+00  THRDE   =  1.00D+00  THRREF  =  1.00D-05  SPARFAC =  1.00D+00  THRDLP  =  1.00D-07
 THRDIA  =  1.00D-10  THRDLS  =  1.00D-07  THRGPS  =  0.00D+00  THRKEX  =  0.00D+00  THRDIS  =  2.00D-01  THRVAR  =  1.00D-10
 THRLOC  =  1.00D-06  THRGAP  =  1.00D-06  THRLOCT = -1.00D+00  THRGAPT = -1.00D+00  THRORB  =  1.00D-06  THRMLTP =  0.00D+00
 THRCPQCI=  1.00D-10  KEXTA   =  0.00D+00  THRCOARS=  0.00D+00  SYMTOL  =  1.00D-06  GRADTOL =  1.00D-06  THROVL  =  1.00D-08
 THRORTH =  1.00D-08  GRID    =  1.00D-06  GRIDMAX =  1.00D-03  DTMAX   =  0.00D+00

 SETTING GEOMTYP        =    XYZ
 ZUNIT=BOHR
 

 Variable memory set to 1000000000 words,  buffer space   230000 words

 SETTING BASIS          =    CC-PVTZ


 Recomputing integrals since basis changed


 Using spherical harmonics

 Library entry O      S cc-pVTZ              selected for orbital group  1
 Library entry O      P cc-pVTZ              selected for orbital group  1
 Library entry O      D cc-pVTZ              selected for orbital group  1
 Library entry O      F cc-pVTZ              selected for orbital group  1
 Library entry H      S cc-pVTZ              selected for orbital group  2
 Library entry H      P cc-pVTZ              selected for orbital group  2
 Library entry H      D cc-pVTZ              selected for orbital group  2

1PROGRAM * SEWARD (Integral evaluation for generally contracted gaussian basis sets)     Author: Roland Lindh, 1990

 Geometry written to block  1 of record 700


 Point group  C1  



 ATOMIC COORDINATES

 NR  ATOM    CHARGE       X              Y              Z

   1  O       8.00   -2.811648884   -0.207096580    0.000000000
   2  H       1.00   -3.561495837    1.446443815    0.000000000
   3  H       1.00   -1.009931668    0.106112802    0.000000000
   4  O       8.00    2.679515385    0.197688054    0.000000000
   5  H       1.00    3.334273386   -0.711598080   -1.448827040
   6  H       1.00    3.334273386   -0.701598080    1.438827040

 Bond lengths in Bohr (Angstrom)

 1-2  1.815617330  1-3  1.828738649  4-5  1.831559200  4-6  1.818693718
     ( 0.960783311)     ( 0.967726814)     ( 0.969219386)     ( 0.962411266)

 Bond angles

  2-1-3  104.53161632   5-4-6  104.57406212

 NUCLEAR CHARGE:                   20
 NUMBER OF PRIMITIVE AOS:         162
 NUMBER OF SYMMETRY AOS:          148
 NUMBER OF CONTRACTIONS:          116   ( 116A   )
 NUMBER OF CORE ORBITALS:           2   (   2A   )
 NUMBER OF VALENCE ORBITALS:       12   (  12A   )


 NUCLEAR REPULSION ENERGY   36.51695849


 Eigenvalues of metric

         1 0.207E-02 0.252E-02 0.454E-02 0.460E-02 0.532E-02 0.583E-02 0.780E-02 0.790E-02


 Contracted 2-electron integrals neglected if value below      1.0D-16
 AO integral compression algorithm  1   Integral accuracy      1.0D-16

     136.315 MB (compressed) written to integral file ( 63.7%)

     Node minimum: 136.315 MB, node maximum: 136.315 MB


 NUMBER OF SORTED TWO-ELECTRON INTEGRALS:   23028291.     BUFFER LENGTH:  32768
 NUMBER OF SEGMENTS:   2  SEGMENT LENGTH:   15997996      RECORD LENGTH: 524288

 Memory used in sort:      16.56 MW

 SORT1 READ    26802200. AND WROTE    18239081. INTEGRALS IN     53 RECORDS. CPU TIME:     0.24 SEC, REAL TIME:     0.36 SEC
 SORT2 READ    18239081. AND WROTE    23028291. INTEGRALS IN    520 RECORDS. CPU TIME:     0.25 SEC, REAL TIME:     0.33 SEC

 FILE SIZES:   FILE 1:   121.3 MBYTE,  FILE 4:   222.3 MBYTE,   TOTAL:    343.6 MBYTE

 OPERATOR DM      FOR CENTER  0  COORDINATES:    0.000000    0.000000    0.000000


 **********************************************************************************************************************************
 DATASETS  * FILE   NREC   LENGTH (MB)   RECORD NAMES
              1      19      121.44       500      610      700      900      950      970     1000      129      960     1100   
                                          VAR    BASINP    GEOM    SYMINP    ZMAT    AOBASIS   BASIS     P2S    ABASIS      S 
                                         1400     1410     1200     1210     1080     1600     1650     1300     1700   
                                           T        V       H0       H01     AOSYM     SMH    MOLCAS    ERIS     OPER   

 PROGRAMS   *        TOTAL       INT
 CPU TIMES  *         1.58      1.54
 REAL TIME  *         2.21 SEC
 DISK USED  *       480.57 MB      
 GA USED    *         0.00 MB       (max)       0.00 MB       (current)
 **********************************************************************************************************************************

1PROGRAM * RHF-SCF (CLOSED SHELL)       Authors: W. Meyer, H.-J. Werner


 NUMBER OF ELECTRONS:      10+   10-    SPACE SYMMETRY=1    SPIN SYMMETRY: Singlet 
 CONVERGENCE THRESHOLDS:    1.00E-10 (Density)    1.00E-13 (Energy)
 MAX. NUMBER OF ITERATIONS:      200
 INTERPOLATION TYPE:            DIIS
 INTERPOLATION STEPS:              2 (START)      1 (STEP)
 LEVEL SHIFTS:                  0.00 (CLOSED)  0.00 (OPEN) 



 Orbital guess generated from atomic densities. Full valence occupancy:   14

 Molecular orbital dump at record        2100.2

 ITERATION    DDIFF          GRAD             ENERGY        2-EL.EN.            DIPOLE MOMENTS         DIIS
    1      0.000D+00      0.000D+00      -152.05097906    191.656817    1.37994    0.08869   -0.00731    0
    2      0.000D+00      0.712D-02      -152.10270327    185.230185    1.03585    0.02982   -0.00261    1
    3      0.124D-01      0.411D-02      -152.11967610    187.941136    1.08962    0.05088   -0.00318    2
    4      0.400D-02      0.427D-03      -152.12006793    187.778519    1.07573    0.05014   -0.00274    3
    5      0.658D-03      0.113D-03      -152.12010551    187.797592    1.07037    0.04992   -0.00256    4
    6      0.205D-03      0.238D-04      -152.12010784    187.794329    1.06883    0.05011   -0.00250    5
    7      0.518D-04      0.529D-05      -152.12010792    187.794822    1.06858    0.04993   -0.00249    6
    8      0.106D-04      0.244D-05      -152.12010793    187.794689    1.06849    0.05000   -0.00249    7
    9      0.349D-05      0.346D-06      -152.12010793    187.794638    1.06846    0.05000   -0.00249    6
   10      0.692D-06      0.696D-07      -152.12010793    187.794664    1.06846    0.05000   -0.00249    7
   11      0.136D-06      0.191D-07      -152.12010793    187.794658    1.06846    0.05000   -0.00249    6
   12      0.362D-07      0.582D-08      -152.12010793    187.794659    1.06846    0.05000   -0.00249    6
   13      0.113D-07      0.109D-08      -152.12010793    187.794659    1.06846    0.05000   -0.00249    7
   14      0.208D-08      0.242D-09      -152.12010793    187.794659    1.06846    0.05000   -0.00249    6
   15      0.521D-09      0.702D-10      -152.12010793    187.794659    1.06846    0.05000   -0.00249    6
   16      0.151D-09      0.266D-10      -152.12010793    187.794659    1.06846    0.05000   -0.00249    7
   17      0.376D-10      0.967D-11      -152.12010793    187.794659    1.06846    0.05000   -0.00249    7
   18      0.192D-10      0.227D-11      -152.12010793    187.794659    1.06846    0.05000   -0.00249    7
   19      0.553D-11      0.650D-12      -152.12010793    187.794659    1.06846    0.05000   -0.00249    7
   20      0.133D-11      0.242D-12      -152.12010793    187.794659    1.06846    0.05000   -0.00249    8
   21      0.522D-12      0.395D-13      -152.12010793    187.794659    1.06846    0.05000   -0.00249    8
   22      0.103D-12      0.210D-13      -152.12010793    187.794659    1.06846    0.05000   -0.00249    8
   23      0.623D-13      0.190D-13      -152.12010793    187.794659    1.06846    0.05000   -0.00249    8
   24      0.436D-13      0.145D-13      -152.12010793    187.794659    1.06846    0.05000   -0.00249    0

 Final occupancy:  10

 !RHF STATE 1.1 Energy               -152.120107929554
 Nuclear energy                        36.51695849
 One-electron energy                 -282.53439597
 Two-electron energy                   93.89732955
 Virial quotient                       -1.00104656
 !RHF STATE 1.1 Dipole moment           1.06845931     0.05000231    -0.00248928
 Dipole moment /Debye                   2.71557482     0.12708487    -0.00632669

 Orbital energies:

         1.1          2.1          3.1          4.1          5.1          6.1          7.1          8.1          9.1         10.1
    -20.585610   -20.522721    -1.371714    -1.312090    -0.733601    -0.684384    -0.607872    -0.552173    -0.525161    -0.474542

        11.1         12.1
      0.123869     0.183329


 **********************************************************************************************************************************
 DATASETS  * FILE   NREC   LENGTH (MB)   RECORD NAMES
              1      19      121.44       500      610      700      900      950      970     1000      129      960     1100   
                                          VAR    BASINP    GEOM    SYMINP    ZMAT    AOBASIS   BASIS     P2S    ABASIS      S 
                                         1400     1410     1200     1210     1080     1600     1650     1300     1700   
                                           T        V       H0       H01     AOSYM     SMH    MOLCAS    ERIS     OPER   

              2       3        0.63       700     1000     2100   
                                         GEOM     BASIS     RHF  

 PROGRAMS   *        TOTAL       RHF       INT
 CPU TIMES  *         6.02      4.44      1.54
 REAL TIME  *         7.29 SEC
 DISK USED  *       480.57 MB      
 GA USED    *         0.00 MB       (max)       0.00 MB       (current)
 **********************************************************************************************************************************


1PROGRAM * CCSD (Closed-shell coupled cluster)     Authors: C. Hampel, H.-J. Werner, 1991, M. Deegan, P.J. Knowles, 1992


 Convergence thresholds:  THRVAR = 1.00D-08  THRDEN = 1.00D-12

 CCSD(T)     terms to be evaluated (factor= 1.000)


 Number of core orbitals:           2 (   2 )
 Number of closed-shell orbitals:   8 (   8 )
 Number of external orbitals:     106 ( 106 )

 Molecular orbitals read from record     2100.2  Type=RHF/CANONICAL (state 1.1)

 Number of N-1 electron functions:               8
 Number of N-2 electron functions:              36
 Number of singly external CSFs:               848
 Number of doubly external CSFs:            359976
 Total number of CSFs:                      360825

 Length of J-op  integral file:               0.00 MB
 Length of K-op  integral file:               0.96 MB
 Length of 3-ext integral record:             0.00 MB

 Memory could be reduced to 13.86 Mwords without degradation in triples

 Integral transformation finished. Total CPU:   0.70 sec, npass=  1  Memory used:   8.20 MW

 Reference energy:                   -152.12010793

 MP2 singlet pair energy:              -0.33360719
 MP2 triplet pair energy:              -0.19313975
 MP2 correlation energy:               -0.52674695
 MP2 total energy:                   -152.64685488

 SCS-MP2 correlation energy:           -0.52050448   (PS=  1.200000  PT=  0.333333)
 SCS-MP2 total energy:               -152.64061241

 ITER.      SQ.NORM     CORR.ENERGY   TOTAL ENERGY   ENERGY CHANGE        DEN1      VAR(S)    VAR(P)  DIIS     TIME
   1      1.12199710    -0.53680843  -152.65691636    -0.01006149     0.00009247  0.10D-02  0.17D-02  1  1     1.54
   2      1.12841449    -0.53760072  -152.65770864    -0.00079228    -0.00905751  0.16D-04  0.18D-03  2  2     2.45
   3      1.13053812    -0.53771673  -152.65782466    -0.00011601    -0.00163104  0.55D-05  0.82D-05  3  3     3.35
   4      1.13111542    -0.53773233  -152.65784026    -0.00001560    -0.00033893  0.23D-06  0.52D-06  4  4     4.24
   5      1.13119641    -0.53772823  -152.65783616     0.00000410    -0.00003799  0.90D-07  0.35D-07  5  5     5.15
   6      1.13121656    -0.53772669  -152.65783462     0.00000154    -0.00000701  0.13D-07  0.30D-08  6  6     6.05
   7      1.13121983    -0.53772701  -152.65783494    -0.00000032    -0.00000028  0.21D-08  0.60D-09  6  1     6.96
   8      1.13122139    -0.53772699  -152.65783492     0.00000002     0.00000008  0.31D-09  0.85D-10  6  2     7.87
   9      1.13122201    -0.53772697  -152.65783490     0.00000002     0.00000010  0.29D-10  0.11D-10  6  3     8.76
  10      1.13122217    -0.53772696  -152.65783489     0.00000001     0.00000001  0.42D-11  0.14D-11  6  4     9.67
  11      1.13122215    -0.53772697  -152.65783490    -0.00000000     0.00000004  0.77D-12  0.21D-12  6  5    10.57
  12      1.13122212    -0.53772697  -152.65783490    -0.00000000     0.00000002  0.15D-12  0.30D-13  6  6    11.48
  13      1.13122211    -0.53772697  -152.65783490    -0.00000000     0.00000001  0.22D-13  0.63D-14  6  1    12.38
  14      1.13122210    -0.53772697  -152.65783490    -0.00000000     0.00000000  0.40D-14  0.13D-14  6  2    13.28
  15      1.13122210    -0.53772697  -152.65783490     0.00000000     0.00000000  0.68D-15  0.15D-15  6  3    14.18
  16      1.13122210    -0.53772697  -152.65783490     0.00000000    -0.00000000  0.11D-15  0.31D-16  6  4    15.08
  17      1.13122210    -0.53772697  -152.65783490     0.00000000    -0.00000000  0.14D-16  0.56D-17  6  5    15.96
  18      1.13122210    -0.53772697  -152.65783490    -0.00000000     0.00000000  0.21D-17  0.78D-18  6  6    16.84
  19      1.13122210    -0.53772697  -152.65783490    -0.00000000    -0.00000000  0.47D-18  0.14D-18  6  1    17.75
  20      1.13122210    -0.53772697  -152.65783490    -0.00000000    -0.00000000  0.12D-18  0.29D-19  6  2    18.64
  21      1.13122210    -0.53772697  -152.65783490    -0.00000000    -0.00000000  0.23D-19  0.54D-20  6  3    19.54

 Norm of t1 vector:      0.04075686      S-energy:     0.00000000      T1 diagnostic:  0.00720486
                                                                       D1 diagnostic:  0.01518842


 Total CPU time for triples:     10.13 sec


 RESULTS
 =======

  Reference energy                   -152.120107929554
  CCSD singlet pair energy             -0.365523003928
  CCSD triplet pair energy             -0.172203966716
  CCSD correlation energy              -0.537726970645

  Triples (T) contribution             -0.015866056016
  Total correlation energy             -0.553593026660

  CCSD total energy                  -152.657834900198
  CCSD[T] energy                     -152.674118162167
  CCSD-T energy                      -152.673418001518
 !CCSD(T) total energy               -152.673700956214

 Timing summary (sec):

 STEP                 CPU(USER)    SYS     CPU(TOT)    WALL
 Transformation          0.72      0.06      0.78      0.80
 CCSD iterations        18.82      0.74     19.56     19.83
 Triples                10.13      0.21     10.34     10.41

 Program statistics:

 Available memory in ccsd:               999999644
 Min. memory needed in ccsd:               1115449
 Max. memory used in ccsd:                 1416033
 Max. memory used in cckext:               1097476 (21 integral passes)



 **********************************************************************************************************************************
 DATASETS  * FILE   NREC   LENGTH (MB)   RECORD NAMES
              1      20      165.99       500      610      700      900      950      970     1000      129      960     1100   
                                          VAR    BASINP    GEOM    SYMINP    ZMAT    AOBASIS   BASIS     P2S    ABASIS      S 
                                         1400     1410     1200     1210     1080     1600     1650     1300     1700     1380   
                                           T        V       H0       H01     AOSYM     SMH    MOLCAS    ERIS     OPER     JKOP   

              2       3        0.63       700     1000     2100   
                                         GEOM     BASIS     RHF  

 PROGRAMS   *        TOTAL   CCSD(T)       RHF       INT
 CPU TIMES  *        35.70     29.68      4.44      1.54
 REAL TIME  *        38.41 SEC
 DISK USED  *       480.57 MB      
 GA USED    *         0.00 MB       (max)       0.00 MB       (current)
 **********************************************************************************************************************************

        CCSD(T)         RHF-SCF 
   -152.67370096   -152.12010793
 **********************************************************************************************************************************
 Variable memory released
