
 Primary working directories    : /tmp/943186.499.gen6.q
 Secondary working directories  : /tmp/943186.499.gen6.q
 Wavefunction directory         : /home/vulcan/mel64643/wfu/
 Main file repository           : /tmp/943186.499.gen6.q/

 ARCHNAME  : Linux/x86_64
 FC        : /opt/intel/compilers_and_libraries_2016.1.150/linux/bin/intel64/ifort
 FCVERSION : 16.0.1
 BLASLIB   : -mkl
 id        : ccgc

 Nodes     nprocs
 n083         1
 ga_uses_ma=false, calling ma_init with nominal heap.
 GA-space will be limited to   8.0 MW (determined by -G option)

 Using customized tuning parameters: mindgm=10; mindgv=16; mindgc=4; mindgr=1; noblas=0; mincuda=1000; minvec=7
 default implementation of scratch files=df  

 ***,Optimization of h2o_2
 memory,1000,m
 gthresh,energy=1.0d-12,orbital=1.0d-10,oneint=1.0d-16,twoint=1.0d-16,optgrad=1.0d-6,compress=1.0d-13
 geomtyp=xyz
 
 bohr
 geometry = {
  C   -0.0020103111   -3.4187199526   -0.0004399218
  H   -0.9738182116   -2.7289468094   -1.6805762566
  H   -0.9712514400   -2.7291868395    1.6812768820
  H    1.9389118727   -2.7288855716   -0.0018725610
  H   -0.0018842103   -5.4785318014   -0.0005870851
  C   -0.0002286080    3.4247778808    0.0000473317
  H   -0.0110690536    5.4845595226   -0.0026006983
  H    0.9777612457    2.7324956905   -1.6754636154
  H    0.9740776268    2.7367893818    1.6794683244
  H   -1.9304889107    2.7056484988    0.0007476002
 }
 
 basis=VDZ
 {rhf;maxit,200}
 {ccsd(t);maxit,200}

 Variables initialized (661), CPU time= 0.00 sec
 Commands  initialized (458), CPU time= 0.00 sec, 486 directives.
 Default parameters read. Elapsed time= 0.05 sec

 Checking input...
 Passed
1


                                         ***  PROGRAM SYSTEM MOLPRO  ***
                         Copyright, University College Cardiff Consultants Limited, 2008

                                    Version 2010.1 linked May 16 2016 07:17:05


 **********************************************************************************************************************************
 LABEL *   Optimization of h2o_2                                                         
 Linux-4.4.3/n083(x86_64) 64 bit mpp version                                             DATE: 23-Oct-23          TIME: 12:43:03  
 **********************************************************************************************************************************

 SHA1:             9e8077add272b0f3cad6f7df79ec5211205f459d
 **********************************************************************************************************************************

 THRESHOLDS:

 ZERO    =  1.00D-12  ONEINT  =  1.00D-16  TWOINT  =  1.00D-16  PREFAC  =  1.00D-14  LOCALI  =  1.00D-09  EORDER  =  1.00D-04
 ENERGY  =  1.00D-12  ETEST   =  0.00D+00  EDENS   =  0.00D+00  THRDEDEF=  1.00D-06  GRADIENT=  1.00D-02  STEP    =  1.00D-03
 ORBITAL =  1.00D-10  CIVEC   =  1.00D-05  COEFF   =  1.00D-04  PRINTCI =  5.00D-02  PUNCHCI =  9.90D+01  OPTGRAD =  1.00D-06
 OPTENERG=  1.00D-06  OPTSTEP =  3.00D-04  THRGRAD =  1.00D-10  COMPRESS=  1.00D-13  VARMIN  =  1.00D-07  VARMAX  =  1.00D-03
 THRDOUB =  0.00D+00  THRDIV  =  1.00D-05  THRRED  =  1.00D-07  THRPSP  =  1.00D+00  THRDC   =  1.00D-10  THRCS   =  1.00D-10
 THRNRM  =  1.00D-08  THREQ   =  0.00D+00  THRDE   =  1.00D+00  THRREF  =  1.00D-05  SPARFAC =  1.00D+00  THRDLP  =  1.00D-07
 THRDIA  =  1.00D-10  THRDLS  =  1.00D-07  THRGPS  =  0.00D+00  THRKEX  =  0.00D+00  THRDIS  =  2.00D-01  THRVAR  =  1.00D-10
 THRLOC  =  1.00D-06  THRGAP  =  1.00D-06  THRLOCT = -1.00D+00  THRGAPT = -1.00D+00  THRORB  =  1.00D-06  THRMLTP =  0.00D+00
 THRCPQCI=  1.00D-10  KEXTA   =  0.00D+00  THRCOARS=  0.00D+00  SYMTOL  =  1.00D-06  GRADTOL =  1.00D-06  THROVL  =  1.00D-08
 THRORTH =  1.00D-08  GRID    =  1.00D-06  GRIDMAX =  1.00D-03  DTMAX   =  0.00D+00

 SETTING GEOMTYP        =    XYZ
 ZUNIT=BOHR
 

 Variable memory set to 1000000000 words,  buffer space   230000 words

 SETTING BASIS          =    VDZ


 Recomputing integrals since basis changed


 Using spherical harmonics

 Library entry C      S cc-pVDZ              selected for orbital group  1
 Library entry C      P cc-pVDZ              selected for orbital group  1
 Library entry C      D cc-pVDZ              selected for orbital group  1
 Library entry H      S cc-pVDZ              selected for orbital group  2
 Library entry H      P cc-pVDZ              selected for orbital group  2

1PROGRAM * SEWARD (Integral evaluation for generally contracted gaussian basis sets)     Author: Roland Lindh, 1990

 Geometry written to block  1 of record 700


 Point group  C1  



 ATOMIC COORDINATES

 NR  ATOM    CHARGE       X              Y              Z

   1  C       6.00   -0.002010311   -3.418719953   -0.000439922
   2  H       1.00   -0.973818212   -2.728946809   -1.680576257
   3  H       1.00   -0.971251440   -2.729186840    1.681276882
   4  H       1.00    1.938911873   -2.728885572   -0.001872561
   5  H       1.00   -0.001884210   -5.478531801   -0.000587085
   6  C       6.00   -0.000228608    3.424777881    0.000047332
   7  H       1.00   -0.011069054    5.484559523   -0.002600698
   8  H       1.00    0.977761246    2.732495690   -1.675463615
   9  H       1.00    0.974077627    2.736789382    1.679468324
  10  H       1.00   -1.930488911    2.705648499    0.000747600

 Bond lengths in Bohr (Angstrom)

 1-2  2.059867881  1-3  2.059867881  1-4  2.059867095  1-5  2.059811858  6-7  2.059811870
     ( 1.090035136)     ( 1.090035136)     ( 1.090034720)     ( 1.090005490)     ( 1.090005496)

  6- 8  2.059867889   6- 9  2.059867880   6-10  2.059867082
       ( 1.090035140)       ( 1.090035136)       ( 1.090034713)

 Bond angles

  2-1-3  109.37992579   2-1-4  109.37980976   2-1-5  109.56240830   3-1-4  109.37980975

  3-1-5  109.56240831   4-1-5  109.56250040   7-6-8  109.72639561   7-6-9  109.72639514

  7- 6-10  110.13163063   8- 6- 9  109.04771630   8- 6-10  109.13865358   9- 6-10  109.04760115

 NUCLEAR CHARGE:                   20
 NUMBER OF PRIMITIVE AOS:         110
 NUMBER OF SYMMETRY AOS:          108
 NUMBER OF CONTRACTIONS:           68   (  68A   )
 NUMBER OF CORE ORBITALS:           2   (   2A   )
 NUMBER OF VALENCE ORBITALS:       16   (  16A   )


 NUCLEAR REPULSION ENERGY   41.34961510


 Eigenvalues of metric

         1 0.113E-01 0.127E-01 0.348E-01 0.348E-01 0.356E-01 0.375E-01 0.383E-01 0.383E-01


 Contracted 2-electron integrals neglected if value below      1.0D-16
 AO integral compression algorithm  1   Integral accuracy      1.0D-16

     21.496 MB (compressed) written to integral file ( 87.3%)

     Node minimum: 21.496 MB, node maximum: 21.496 MB


 NUMBER OF SORTED TWO-ELECTRON INTEGRALS:    2753031.     BUFFER LENGTH:  32768
 NUMBER OF SEGMENTS:   1  SEGMENT LENGTH:    2753031      RECORD LENGTH: 524288

 Memory used in sort:       3.31 MW

 SORT1 READ     3104305. AND WROTE     2685808. INTEGRALS IN      8 RECORDS. CPU TIME:     0.03 SEC, REAL TIME:     0.04 SEC
 SORT2 READ     2685808. AND WROTE     2753031. INTEGRALS IN     82 RECORDS. CPU TIME:     0.03 SEC, REAL TIME:     0.05 SEC

 FILE SIZES:   FILE 1:    21.5 MBYTE,  FILE 4:    33.6 MBYTE,   TOTAL:     55.1 MBYTE

 OPERATOR DM      FOR CENTER  0  COORDINATES:    0.000000    0.000000    0.000000


 **********************************************************************************************************************************
 DATASETS  * FILE   NREC   LENGTH (MB)   RECORD NAMES
              1      19       21.52       500      610      700      900      950      970     1000      129      960     1100   
                                          VAR    BASINP    GEOM    SYMINP    ZMAT    AOBASIS   BASIS     P2S    ABASIS      S 
                                         1400     1410     1200     1210     1080     1600     1650     1300     1700   
                                           T        V       H0       H01     AOSYM     SMH    MOLCAS    ERIS     OPER   

 PROGRAMS   *        TOTAL       INT
 CPU TIMES  *         0.38      0.34
 REAL TIME  *         0.63 SEC
 DISK USED  *        77.32 MB      
 GA USED    *         0.00 MB       (max)       0.00 MB       (current)
 **********************************************************************************************************************************

1PROGRAM * RHF-SCF (CLOSED SHELL)       Authors: W. Meyer, H.-J. Werner


 NUMBER OF ELECTRONS:      10+   10-    SPACE SYMMETRY=1    SPIN SYMMETRY: Singlet 
 CONVERGENCE THRESHOLDS:    1.00E-10 (Density)    1.00E-13 (Energy)
 MAX. NUMBER OF ITERATIONS:      200
 INTERPOLATION TYPE:            DIIS
 INTERPOLATION STEPS:              2 (START)      1 (STEP)
 LEVEL SHIFTS:                  0.00 (CLOSED)  0.00 (OPEN) 



 Orbital guess generated from atomic densities. Full valence occupancy:   18

 Molecular orbital dump at record        2100.2

 ITERATION    DDIFF          GRAD             ENERGY        2-EL.EN.            DIPOLE MOMENTS         DIIS
    1      0.000D+00      0.000D+00       -80.35961201    134.841364    0.00188   -0.00515    0.00033    0
    2      0.000D+00      0.637D-02       -80.39227864    132.563888    0.00075   -0.00225    0.00011    1
    3      0.132D-01      0.234D-02       -80.39613934    133.364829    0.00087   -0.00251    0.00013    2
    4      0.460D-02      0.630D-03       -80.39666798    133.228116    0.00074   -0.00215    0.00011    3
    5      0.165D-02      0.664D-04       -80.39667250    133.234151    0.00072   -0.00211    0.00010    4
    6      0.233D-03      0.392D-05       -80.39667252    133.234012    0.00072   -0.00210    0.00010    5
    7      0.206D-04      0.230D-06       -80.39667252    133.234010    0.00072   -0.00210    0.00010    5
    8      0.735D-06      0.406D-07       -80.39667252    133.234011    0.00072   -0.00210    0.00010    4
    9      0.112D-06      0.111D-07       -80.39667252    133.234012    0.00072   -0.00210    0.00010    4
   10      0.382D-07      0.203D-08       -80.39667252    133.234012    0.00072   -0.00210    0.00010    5
   11      0.671D-08      0.270D-09       -80.39667252    133.234012    0.00072   -0.00210    0.00010    5
   12      0.797D-09      0.580D-10       -80.39667252    133.234012    0.00072   -0.00210    0.00010    6
   13      0.201D-09      0.149D-10       -80.39667252    133.234012    0.00072   -0.00210    0.00010    6
   14      0.327D-10      0.454D-11       -80.39667252    133.234012    0.00072   -0.00210    0.00010    0

 Final occupancy:  10

 !RHF STATE 1.1 Energy                -80.396672524707
 Nuclear energy                        41.34961510
 One-electron energy                 -188.36329371
 Two-electron energy                   66.61700609
 Virial quotient                       -1.00229842
 !RHF STATE 1.1 Dipole moment           0.00072414    -0.00210184     0.00010404
 Dipole moment /Debye                   0.00184047    -0.00534200     0.00026444

 Orbital energies:

         1.1          2.1          3.1          4.1          5.1          6.1          7.1          8.1          9.1         10.1
    -11.215384   -11.215293    -0.944326    -0.938414    -0.550368    -0.545205    -0.545068    -0.537794    -0.537683    -0.535106

        11.1         12.1
      0.172388     0.229423


 **********************************************************************************************************************************
 DATASETS  * FILE   NREC   LENGTH (MB)   RECORD NAMES
              1      19       21.52       500      610      700      900      950      970     1000      129      960     1100   
                                          VAR    BASINP    GEOM    SYMINP    ZMAT    AOBASIS   BASIS     P2S    ABASIS      S 
                                         1400     1410     1200     1210     1080     1600     1650     1300     1700   
                                           T        V       H0       H01     AOSYM     SMH    MOLCAS    ERIS     OPER   

              2       3        0.51       700     1000     2100   
                                         GEOM     BASIS     RHF  

 PROGRAMS   *        TOTAL       RHF       INT
 CPU TIMES  *         0.64      0.26      0.34
 REAL TIME  *         0.93 SEC
 DISK USED  *        77.32 MB      
 GA USED    *         0.00 MB       (max)       0.00 MB       (current)
 **********************************************************************************************************************************


1PROGRAM * CCSD (Closed-shell coupled cluster)     Authors: C. Hampel, H.-J. Werner, 1991, M. Deegan, P.J. Knowles, 1992


 Convergence thresholds:  THRVAR = 1.00D-08  THRDEN = 1.00D-12

 CCSD(T)     terms to be evaluated (factor= 1.000)


 Number of core orbitals:           2 (   2 )
 Number of closed-shell orbitals:   8 (   8 )
 Number of external orbitals:      58 (  58 )

 Molecular orbitals read from record     2100.2  Type=RHF/CANONICAL (state 1.1)

 Number of N-1 electron functions:               8
 Number of N-2 electron functions:              36
 Number of singly external CSFs:               464
 Number of doubly external CSFs:            107880
 Total number of CSFs:                      108345

 Length of J-op  integral file:               0.00 MB
 Length of K-op  integral file:               0.35 MB
 Length of 3-ext integral record:             0.00 MB

 Memory could be reduced to 2.66 Mwords without degradation in triples

 Integral transformation finished. Total CPU:   0.06 sec, npass=  1  Memory used:   1.86 MW

 Reference energy:                    -80.39667252

 MP2 singlet pair energy:              -0.23208044
 MP2 triplet pair energy:              -0.09155499
 MP2 correlation energy:               -0.32363543
 MP2 total energy:                    -80.72030795

 SCS-MP2 correlation energy:           -0.33546407   (PS=  1.200000  PT=  0.333333)
 SCS-MP2 total energy:                -80.73213660

 ITER.      SQ.NORM     CORR.ENERGY   TOTAL ENERGY   ENERGY CHANGE        DEN1      VAR(S)    VAR(P)  DIIS     TIME
   1      1.13421420    -0.36753627   -80.76420880    -0.04390084    -0.03297714  0.50D-03  0.24D-02  1  1     0.18
   2      1.14682291    -0.37033355   -80.76700607    -0.00279728    -0.01276503  0.15D-04  0.96D-04  2  2     0.31
   3      1.14861472    -0.37050452   -80.76717705    -0.00017098    -0.00095510  0.17D-05  0.56D-05  3  3     0.43
   4      1.14898242    -0.37052484   -80.76719736    -0.00002031    -0.00016578  0.25D-07  0.35D-06  4  4     0.56
   5      1.14902837    -0.37052236   -80.76719488     0.00000248    -0.00002393  0.18D-08  0.18D-07  5  5     0.69
   6      1.14902968    -0.37052229   -80.76719482     0.00000006    -0.00000012  0.19D-09  0.12D-08  6  6     0.81
   7      1.14902978    -0.37052256   -80.76719508    -0.00000026     0.00000013  0.13D-10  0.71D-10  6  1     0.94
   8      1.14902995    -0.37052255   -80.76719508     0.00000001    -0.00000013  0.15D-11  0.41D-11  6  2     1.06
   9      1.14902998    -0.37052254   -80.76719506     0.00000001    -0.00000003  0.15D-12  0.26D-12  6  3     1.19
  10      1.14902997    -0.37052254   -80.76719506     0.00000000     0.00000001  0.11D-13  0.23D-13  6  4     1.31
  11      1.14902996    -0.37052254   -80.76719506    -0.00000000     0.00000001  0.80D-15  0.19D-14  6  5     1.44
  12      1.14902996    -0.37052254   -80.76719506    -0.00000000     0.00000000  0.43D-16  0.23D-15  6  6     1.56
  13      1.14902996    -0.37052254   -80.76719506    -0.00000000     0.00000000  0.34D-17  0.28D-16  6  1     1.69
  14      1.14902996    -0.37052254   -80.76719506     0.00000000     0.00000000  0.59D-18  0.37D-17  6  2     1.81
  15      1.14902996    -0.37052254   -80.76719506     0.00000000     0.00000000  0.71D-19  0.37D-18  6  3     1.94
  16      1.14902996    -0.37052254   -80.76719506    -0.00000000     0.00000000  0.15D-20  0.20D-19  6  5     2.06
  17      1.14902996    -0.37052254   -80.76719506    -0.00000000     0.00000000  0.18D-21  0.56D-21  6  4     2.19
  18      1.14902996    -0.37052254   -80.76719506     0.00000000    -0.00000000  0.45D-22  0.51D-22  6  6     2.31

 Norm of t1 vector:      0.03062973      S-energy:    -0.00000000      T1 diagnostic:  0.00541462
                                                                       D1 diagnostic:  0.00878043


 Total CPU time for triples:      0.85 sec


 RESULTS
 =======

  Reference energy                    -80.396672524706
  CCSD singlet pair energy             -0.281842920685
  CCSD triplet pair energy             -0.088679616557
  CCSD correlation energy              -0.370522537242

  Triples (T) contribution             -0.007536548981
  Total correlation energy             -0.378059086223

  CCSD total energy                   -80.767195061949
  CCSD[T] energy                      -80.774907798503
  CCSD-T energy                       -80.774637167284
 !CCSD(T) total energy                -80.774731610929

 Timing summary (sec):

 STEP                 CPU(USER)    SYS     CPU(TOT)    WALL
 Transformation          0.07      0.02      0.09      0.08
 CCSD iterations         2.24      0.10      2.34      2.38
 Triples                 0.85      0.02      0.87      0.86

 Program statistics:

 Available memory in ccsd:               999999644
 Min. memory needed in ccsd:                356281
 Max. memory used in ccsd:                  442401
 Max. memory used in cckext:                403930 (18 integral passes)



 **********************************************************************************************************************************
 DATASETS  * FILE   NREC   LENGTH (MB)   RECORD NAMES
              1      20       29.97       500      610      700      900      950      970     1000      129      960     1100   
                                          VAR    BASINP    GEOM    SYMINP    ZMAT    AOBASIS   BASIS     P2S    ABASIS      S 
                                         1400     1410     1200     1210     1080     1600     1650     1300     1700     1380   
                                           T        V       H0       H01     AOSYM     SMH    MOLCAS    ERIS     OPER     JKOP   

              2       3        0.51       700     1000     2100   
                                         GEOM     BASIS     RHF  

 PROGRAMS   *        TOTAL   CCSD(T)       RHF       INT
 CPU TIMES  *         3.80      3.16      0.26      0.34
 REAL TIME  *         4.27 SEC
 DISK USED  *        77.32 MB      
 GA USED    *         0.00 MB       (max)       0.00 MB       (current)
 **********************************************************************************************************************************

        CCSD(T)         RHF-SCF 
    -80.77473161    -80.39667252
 **********************************************************************************************************************************
 Variable memory released
