
 Primary working directories    : /tmp/1221498.52.gen5.q
 Secondary working directories  : /tmp/1221498.52.gen5.q
 Wavefunction directory         : /home/vulcan/mel64643/wfu/
 Main file repository           : /tmp/1221498.52.gen5.q/

 ARCHNAME  : Linux/x86_64
 FC        : /opt/intel/compilers_and_libraries_2016.1.150/linux/bin/intel64/ifort
 FCVERSION : 16.0.1
 BLASLIB   : -mkl
 id        : ccgc

 Nodes     nprocs
 n071         1
 ga_uses_ma=false, calling ma_init with nominal heap.
 GA-space will be limited to   8.0 MW (determined by -G option)

 Using customized tuning parameters: mindgm=10; mindgv=16; mindgc=4; mindgr=1; noblas=0; mincuda=1000; minvec=7
 default implementation of scratch files=df  

 ***,Optimization of min3
 memory,1000,m
 gthresh,energy=1.0d-12,orbital=1.0d-10,oneint=1.0d-16,twoint=1.0d-16,optgrad=1.0d-6,compress=1.0d-13
 geomtyp=xyz
 
 
 
  bohr
  geometry = {
  H    0.0527978800    2.8434241715    0.0000000000
  C    0.1878081045    0.7791780866    0.0000000000
  O    2.1347537204   -0.3978623145   -0.0000000000
  O   -2.1501803283   -0.2321442283    0.0000000000
  H   -1.9332445212   -2.0523950466   -0.0000000000
 }
 
 basis=aug-cc-pvtz
 {rhf;maxit,200}
 {ccsd(t);maxit,200}

 Variables initialized (661), CPU time= 0.01 sec
 Commands  initialized (458), CPU time= 0.01 sec, 486 directives.
 Default parameters read. Elapsed time= 0.10 sec

 Checking input...
 Passed
1


                                         ***  PROGRAM SYSTEM MOLPRO  ***
                         Copyright, University College Cardiff Consultants Limited, 2008

                                    Version 2010.1 linked May 16 2016 07:17:05


 **********************************************************************************************************************************
 LABEL *   Optimization of min3                                                          
 Linux-4.4.3/n071(x86_64) 64 bit mpp version                                             DATE: 08-Feb-25          TIME: 16:39:02  
 **********************************************************************************************************************************

 SHA1:             9e8077add272b0f3cad6f7df79ec5211205f459d
 **********************************************************************************************************************************

 THRESHOLDS:

 ZERO    =  1.00D-12  ONEINT  =  1.00D-16  TWOINT  =  1.00D-16  PREFAC  =  1.00D-14  LOCALI  =  1.00D-09  EORDER  =  1.00D-04
 ENERGY  =  1.00D-12  ETEST   =  0.00D+00  EDENS   =  0.00D+00  THRDEDEF=  1.00D-06  GRADIENT=  1.00D-02  STEP    =  1.00D-03
 ORBITAL =  1.00D-10  CIVEC   =  1.00D-05  COEFF   =  1.00D-04  PRINTCI =  5.00D-02  PUNCHCI =  9.90D+01  OPTGRAD =  1.00D-06
 OPTENERG=  1.00D-06  OPTSTEP =  3.00D-04  THRGRAD =  1.00D-10  COMPRESS=  1.00D-13  VARMIN  =  1.00D-07  VARMAX  =  1.00D-03
 THRDOUB =  0.00D+00  THRDIV  =  1.00D-05  THRRED  =  1.00D-07  THRPSP  =  1.00D+00  THRDC   =  1.00D-10  THRCS   =  1.00D-10
 THRNRM  =  1.00D-08  THREQ   =  0.00D+00  THRDE   =  1.00D+00  THRREF  =  1.00D-05  SPARFAC =  1.00D+00  THRDLP  =  1.00D-07
 THRDIA  =  1.00D-10  THRDLS  =  1.00D-07  THRGPS  =  0.00D+00  THRKEX  =  0.00D+00  THRDIS  =  2.00D-01  THRVAR  =  1.00D-10
 THRLOC  =  1.00D-06  THRGAP  =  1.00D-06  THRLOCT = -1.00D+00  THRGAPT = -1.00D+00  THRORB  =  1.00D-06  THRMLTP =  0.00D+00
 THRCPQCI=  1.00D-10  KEXTA   =  0.00D+00  THRCOARS=  0.00D+00  SYMTOL  =  1.00D-06  GRADTOL =  1.00D-06  THROVL  =  1.00D-08
 THRORTH =  1.00D-08  GRID    =  1.00D-06  GRIDMAX =  1.00D-03  DTMAX   =  0.00D+00

 SETTING GEOMTYP        =    XYZ
 ZUNIT=BOHR
 

 Variable memory set to 1000000000 words,  buffer space   230000 words

 SETTING BASIS          =    AUG-CC-PVTZ


 Recomputing integrals since basis changed


 Using spherical harmonics

 Library entry H      S aug-cc-pVTZ          selected for orbital group  1
 Library entry H      P aug-cc-pVTZ          selected for orbital group  1
 Library entry H      D aug-cc-pVTZ          selected for orbital group  1
 Library entry C      S aug-cc-pVTZ          selected for orbital group  2
 Library entry C      P aug-cc-pVTZ          selected for orbital group  2
 Library entry C      D aug-cc-pVTZ          selected for orbital group  2
 Library entry C      F aug-cc-pVTZ          selected for orbital group  2
 Library entry O      S aug-cc-pVTZ          selected for orbital group  3
 Library entry O      P aug-cc-pVTZ          selected for orbital group  3
 Library entry O      D aug-cc-pVTZ          selected for orbital group  3
 Library entry O      F aug-cc-pVTZ          selected for orbital group  3

1PROGRAM * SEWARD (Integral evaluation for generally contracted gaussian basis sets)     Author: Roland Lindh, 1990

 Geometry written to block  1 of record 700


 Point group  Cs  



 ATOMIC COORDINATES

 NR  ATOM    CHARGE       X              Y              Z

   1  H       1.00    0.052797880    2.843424172    0.000000000
   2  C       6.00    0.187808104    0.779178087    0.000000000
   3  O       8.00    2.134753720   -0.397862314    0.000000000
   4  O       8.00   -2.150180328   -0.232144228    0.000000000
   5  H       1.00   -1.933244521   -2.052395047    0.000000000

 Bond lengths in Bohr (Angstrom)

 1-2  2.068656487  2-3  2.275087105  2-4  2.547344252  4-5  1.833132343
     ( 1.094685866)     ( 1.203924245)     ( 1.347996521)     ( 0.970051857)

 Bond angles

  1-2-3  124.89742190   1-2-4  109.64936943   2-4-5  106.59501945   3-2-4  125.45320866

 NUCLEAR CHARGE:                   24
 NUMBER OF PRIMITIVE AOS:         255
 NUMBER OF SYMMETRY AOS:          224
 NUMBER OF CONTRACTIONS:          184   ( 122A'  +  62A"  )
 NUMBER OF CORE ORBITALS:           3   (   3A'  +   0A"  )
 NUMBER OF VALENCE ORBITALS:       14   (  11A'  +   3A"  )


 NUCLEAR REPULSION ENERGY   70.02885585


 Eigenvalues of metric

         1 0.691E-04 0.168E-03 0.305E-03 0.395E-03 0.481E-03 0.761E-03 0.934E-03 0.128E-02
         2 0.354E-02 0.437E-02 0.663E-02 0.105E-01 0.142E-01 0.208E-01 0.275E-01 0.311E-01


 Contracted 2-electron integrals neglected if value below      1.0D-16
 AO integral compression algorithm  1   Integral accuracy      1.0D-16

     705.692 MB (compressed) written to integral file (100.0%)

     Node minimum: 705.692 MB, node maximum: 705.692 MB


 NUMBER OF SORTED TWO-ELECTRON INTEGRALS:   74019414.     BUFFER LENGTH:  32768
 NUMBER OF SEGMENTS:   5  SEGMENT LENGTH:   15997996      RECORD LENGTH: 524288

 Memory used in sort:      16.56 MW

 SORT1 READ    87886196. AND WROTE    73256943. INTEGRALS IN    212 RECORDS. CPU TIME:     0.89 SEC, REAL TIME:     1.39 SEC
 SORT2 READ    73256943. AND WROTE    74019414. INTEGRALS IN   2692 RECORDS. CPU TIME:     0.61 SEC, REAL TIME:     0.98 SEC

 FILE SIZES:   FILE 1:   603.6 MBYTE,  FILE 4:   889.2 MBYTE,   TOTAL:   1492.8 MBYTE

 OPERATOR DM      FOR CENTER  0  COORDINATES:    0.000000    0.000000    0.000000


 **********************************************************************************************************************************
 DATASETS  * FILE   NREC   LENGTH (MB)   RECORD NAMES
              1      19      603.80       500      610      700      900      950      970     1000      129      960     1100   
                                          VAR    BASINP    GEOM    SYMINP    ZMAT    AOBASIS   BASIS     P2S    ABASIS      S 
                                         1400     1410     1200     1210     1080     1600     1650     1300     1700   
                                           T        V       H0       H01     AOSYM     SMH    MOLCAS    ERIS     OPER   

 PROGRAMS   *        TOTAL       INT
 CPU TIMES  *         6.74      6.57
 REAL TIME  *         8.60 SEC
 DISK USED  *         2.20 GB      
 GA USED    *         0.00 MB       (max)       0.00 MB       (current)
 **********************************************************************************************************************************

1PROGRAM * RHF-SCF (CLOSED SHELL)       Authors: W. Meyer, H.-J. Werner


 NUMBER OF ELECTRONS:      12+   12-
 CONVERGENCE THRESHOLDS:    1.00E-10 (Density)    1.00E-13 (Energy)
 MAX. NUMBER OF ITERATIONS:      200
 INTERPOLATION TYPE:            DIIS
 INTERPOLATION STEPS:              2 (START)      1 (STEP)
 LEVEL SHIFTS:                  0.00 (CLOSED)  0.00 (OPEN) 



 Orbital guess generated from atomic densities. Full valence occupancy:   14   3

 Molecular orbital dump at record        2100.2

 Initial alpha occupancy:  10   2
 Initial beta  occupancy:  10   2
 Wave function symmetry:    1

 ITERATION    DDIFF          GRAD             ENERGY        2-EL.EN.            DIPOLE MOMENTS         DIIS
    1      0.000D+00      0.000D+00      -188.76122776    278.649125   -1.12718    0.17149    0.00000    0
    2      0.000D+00      0.650D-02      -188.80766084    276.556406   -0.43228   -0.07161    0.00000    1
    3      0.108D-01      0.474D-02      -188.84239317    277.774567   -0.73098    0.16061    0.00000    2
    4      0.445D-02      0.570D-03      -188.84333206    277.706604   -0.66213    0.14538    0.00000    3
    5      0.794D-03      0.268D-03      -188.84353630    277.680560   -0.67281    0.15439    0.00000    4
    6      0.354D-03      0.806D-04      -188.84357421    277.710471   -0.66492    0.15550    0.00000    5
    7      0.143D-03      0.340D-04      -188.84358273    277.700343   -0.66301    0.15494    0.00000    6
    8      0.815D-04      0.121D-04      -188.84358369    277.705076   -0.66233    0.15435    0.00000    7
    9      0.302D-04      0.375D-05      -188.84358377    277.704060   -0.66212    0.15425    0.00000    8
   10      0.909D-05      0.977D-06      -188.84358378    277.704185   -0.66203    0.15417    0.00000    7
   11      0.257D-05      0.283D-06      -188.84358378    277.704184   -0.66201    0.15417    0.00000    8
   12      0.768D-06      0.588D-07      -188.84358378    277.704174   -0.66201    0.15417    0.00000    8
   13      0.113D-06      0.212D-07      -188.84358378    277.704178   -0.66201    0.15417    0.00000    8
   14      0.408D-07      0.497D-08      -188.84358378    277.704178   -0.66201    0.15417    0.00000    7
   15      0.109D-07      0.183D-08      -188.84358378    277.704178   -0.66201    0.15417    0.00000    7
   16      0.290D-08      0.663D-09      -188.84358378    277.704178   -0.66201    0.15417    0.00000    7
   17      0.107D-08      0.254D-09      -188.84358378    277.704178   -0.66201    0.15417    0.00000    7
   18      0.473D-09      0.840D-10      -188.84358378    277.704178   -0.66201    0.15417    0.00000    7
   19      0.203D-09      0.249D-10      -188.84358378    277.704178   -0.66201    0.15417    0.00000    8
   20      0.677D-10      0.661D-11      -188.84358378    277.704178   -0.66201    0.15417    0.00000    8
   21      0.168D-10      0.199D-11      -188.84358378    277.704178   -0.66201    0.15417    0.00000    8
   22      0.598D-11      0.598D-12      -188.84358378    277.704178   -0.66201    0.15417    0.00000    8
   23      0.696D-11      0.269D-12      -188.84358378    277.704178   -0.66201    0.15417    0.00000    8
   24      0.697D-11      0.153D-12      -188.84358378    277.704178   -0.66201    0.15417    0.00000    8
   25      0.309D-11      0.137D-12      -188.84358378    277.704178   -0.66201    0.15417    0.00000    9
   26      0.406D-11      0.965D-13      -188.84358378    277.704178   -0.66201    0.15417    0.00000    9
   27      0.213D-11      0.874D-13      -188.84358378    277.704178   -0.66201    0.15417    0.00000    9
   28      0.167D-11      0.850D-13      -188.84358378    277.704178   -0.66201    0.15417    0.00000    9
   29      0.121D-11      0.700D-13      -188.84358378    277.704178   -0.66201    0.15417    0.00000    9
   30      0.754D-12      0.602D-13      -188.84358378    277.704178   -0.66201    0.15417    0.00000    9
   31      0.616D-12      0.817D-13      -188.84358378    277.704178   -0.66201    0.15417    0.00000    9
   32      0.186D-12      0.921D-13      -188.84358378    277.704178   -0.66201    0.15417    0.00000    9
   33      0.367D-12      0.749D-13      -188.84358378    277.704178   -0.66201    0.15417    0.00000    9
   34      0.585D-12      0.973D-13      -188.84358378    277.704178   -0.66201    0.15417    0.00000    9
   35      0.781D-12      0.751D-13      -188.84358378    277.704178   -0.66201    0.15417    0.00000    9
   36      0.524D-12      0.110D-12      -188.84358378    277.704178   -0.66201    0.15417    0.00000    0

 Final occupancy:  10   2

 !RHF STATE 1.1 Energy               -188.843583779999
 Nuclear energy                        70.02885585
 One-electron energy                 -397.72452854
 Two-electron energy                  138.85208891
 Virial quotient                       -1.00192384
 !RHF STATE 1.1 Dipole moment          -0.66200759     0.15417269     0.00000000
 Dipole moment /Debye                  -1.68254524     0.39184222     0.00000000

 Orbital energies:

         1.1          2.1          3.1          4.1          5.1          6.1          7.1          8.1          9.1         10.1
    -20.630414   -20.569386   -11.398976    -1.476871    -1.378518    -0.897217    -0.725050    -0.714748    -0.606925    -0.475526

        11.1         12.1
      0.029392     0.037388

         1.2          2.2          3.2          4.2
     -0.638038    -0.498506     0.074192     0.143360


 **********************************************************************************************************************************
 DATASETS  * FILE   NREC   LENGTH (MB)   RECORD NAMES
              1      19      603.80       500      610      700      900      950      970     1000      129      960     1100   
                                          VAR    BASINP    GEOM    SYMINP    ZMAT    AOBASIS   BASIS     P2S    ABASIS      S 
                                         1400     1410     1200     1210     1080     1600     1650     1300     1700   
                                           T        V       H0       H01     AOSYM     SMH    MOLCAS    ERIS     OPER   

              2       3        0.73       700     1000     2100   
                                         GEOM     BASIS     RHF  

 PROGRAMS   *        TOTAL       RHF       INT
 CPU TIMES  *        20.05     13.31      6.57
 REAL TIME  *        25.43 SEC
 DISK USED  *         2.20 GB      
 GA USED    *         0.00 MB       (max)       0.00 MB       (current)
 **********************************************************************************************************************************


1PROGRAM * CCSD (Closed-shell coupled cluster)     Authors: C. Hampel, H.-J. Werner, 1991, M. Deegan, P.J. Knowles, 1992


 Convergence thresholds:  THRVAR = 1.00D-08  THRDEN = 1.00D-12

 CCSD(T)     terms to be evaluated (factor= 1.000)


 Number of core orbitals:           3 (   3   0 )
 Number of closed-shell orbitals:   9 (   7   2 )
 Number of external orbitals:     172 ( 112  60 )

 Molecular orbitals read from record     2100.2  Type=RHF/CANONICAL (state 1.1)

 Number of N-1 electron functions:               9
 Number of N-2 electron functions:              45
 Number of singly external CSFs:               904
 Number of doubly external CSFs:            616750
 Total number of CSFs:                      617655

 Length of J-op  integral file:               0.00 MB
 Length of K-op  integral file:               1.33 MB
 Length of 3-ext integral record:             0.00 MB

 Memory could be reduced to 31.84 Mwords without degradation in triples

 Integral transformation finished. Total CPU:   1.68 sec, npass=  1  Memory used:   9.53 MW

 Reference energy:                   -188.84358378

 MP2 singlet pair energy:              -0.39697500
 MP2 triplet pair energy:              -0.24618702
 MP2 correlation energy:               -0.64316202
 MP2 total energy:                   -189.48674580

 SCS-MP2 correlation energy:           -0.62955304   (PS=  1.200000  PT=  0.333333)
 SCS-MP2 total energy:               -189.47313682

 ITER.      SQ.NORM     CORR.ENERGY   TOTAL ENERGY   ENERGY CHANGE        DEN1      VAR(S)    VAR(P)  DIIS     TIME
   1      1.15863695    -0.64649064  -189.49007442    -0.00332862     0.01573434  0.51D-02  0.34D-02  1  1     3.27
   2      1.17052608    -0.64607815  -189.48966193     0.00041249    -0.01473132  0.11D-03  0.49D-03  2  2     4.99
   3      1.17634336    -0.64637658  -189.48996036    -0.00029843    -0.00274550  0.11D-03  0.27D-04  3  3     6.63
   4      1.17893853    -0.64624548  -189.48982926     0.00013110    -0.00097400  0.12D-04  0.50D-05  4  4     8.27
   5      1.18013403    -0.64622085  -189.48980463     0.00002463    -0.00028052  0.14D-05  0.46D-06  5  5    10.00
   6      1.18042747    -0.64619737  -189.48978115     0.00002348    -0.00003075  0.12D-06  0.55D-07  6  6    11.76
   7      1.18048713    -0.64619383  -189.48977761     0.00000353    -0.00000671  0.15D-07  0.10D-07  6  2    13.51
   8      1.18049232    -0.64619404  -189.48977782    -0.00000021     0.00000198  0.35D-08  0.12D-08  6  1    15.21
   9      1.18049607    -0.64619370  -189.48977748     0.00000035     0.00000034  0.60D-09  0.19D-09  6  3    16.98
  10      1.18049594    -0.64619383  -189.48977761    -0.00000014     0.00000016  0.13D-09  0.34D-10  6  5    18.74
  11      1.18049641    -0.64619386  -189.48977764    -0.00000003     0.00000008  0.16D-10  0.57D-11  6  4    20.49
  12      1.18049646    -0.64619386  -189.48977764     0.00000000    -0.00000002  0.27D-11  0.82D-12  6  6    22.21
  13      1.18049630    -0.64619388  -189.48977766    -0.00000002     0.00000003  0.33D-12  0.17D-12  6  1    23.85
  14      1.18049625    -0.64619388  -189.48977766     0.00000000     0.00000001  0.47D-13  0.24D-13  6  2    25.50
  15      1.18049622    -0.64619388  -189.48977766    -0.00000000     0.00000001  0.11D-13  0.34D-14  6  3    27.13
  16      1.18049621    -0.64619388  -189.48977766    -0.00000000     0.00000000  0.23D-14  0.71D-15  6  5    28.78
  17      1.18049621    -0.64619388  -189.48977766     0.00000000    -0.00000000  0.38D-15  0.16D-15  6  4    30.54
  18      1.18049621    -0.64619388  -189.48977766     0.00000000    -0.00000000  0.72D-16  0.24D-16  6  6    32.31
  19      1.18049621    -0.64619388  -189.48977766     0.00000000    -0.00000000  0.15D-16  0.38D-17  6  1    34.10
  20      1.18049621    -0.64619388  -189.48977766     0.00000000     0.00000000  0.39D-17  0.11D-17  6  2    35.86
  21      1.18049621    -0.64619388  -189.48977766    -0.00000000     0.00000000  0.32D-18  0.15D-18  6  4    37.52
  22      1.18049621    -0.64619388  -189.48977766     0.00000000     0.00000000  0.40D-19  0.26D-19  6  3    39.18
  23      1.18049621    -0.64619388  -189.48977766    -0.00000000     0.00000000  0.48D-20  0.39D-20  6  5    40.94
  24      1.18049621    -0.64619388  -189.48977766     0.00000000    -0.00000000  0.17D-20  0.36D-21  6  6    42.64
  25      1.18049621    -0.64619388  -189.48977766    -0.00000000     0.00000000  0.50D-21  0.11D-21  6  1    44.36

 Norm of t1 vector:      0.10035187      S-energy:     0.00000000      T1 diagnostic:  0.01672531
                                                                       D1 diagnostic:  0.05370960


 Total CPU time for triples:     27.59 sec


 RESULTS
 =======

  Reference energy                   -188.843583779999
  CCSD singlet pair energy             -0.429654746282
  CCSD triplet pair energy             -0.216539136962
  CCSD correlation energy              -0.646193883243

  Triples (T) contribution             -0.027975374418
  Total correlation energy             -0.674169257661

  CCSD total energy                  -189.489777663243
  CCSD[T] energy                     -189.519488785641
  CCSD-T energy                      -189.517046715392
 !CCSD(T) total energy               -189.517753037660

 Timing summary (sec):

 STEP                 CPU(USER)    SYS     CPU(TOT)    WALL
 Transformation          1.70      0.22      1.92      1.93
 CCSD iterations        42.66      2.99     45.65     46.41
 Triples                27.59      0.67     28.26     28.34

 Program statistics:

 Available memory in ccsd:               999999576
 Min. memory needed in ccsd:               1814795
 Max. memory used in ccsd:                 2349055
 Max. memory used in cckext:               2687966 (25 integral passes)



 **********************************************************************************************************************************
 DATASETS  * FILE   NREC   LENGTH (MB)   RECORD NAMES
              1      20      707.93       500      610      700      900      950      970     1000      129      960     1100   
                                          VAR    BASINP    GEOM    SYMINP    ZMAT    AOBASIS   BASIS     P2S    ABASIS      S 
                                         1400     1410     1200     1210     1080     1600     1650     1300     1700     1380   
                                           T        V       H0       H01     AOSYM     SMH    MOLCAS    ERIS     OPER     JKOP   

              2       3        0.73       700     1000     2100   
                                         GEOM     BASIS     RHF  

 PROGRAMS   *        TOTAL   CCSD(T)       RHF       INT
 CPU TIMES  *        92.02     71.97     13.31      6.57
 REAL TIME  *       102.24 SEC
 DISK USED  *         2.20 GB      
 GA USED    *         0.00 MB       (max)       0.00 MB       (current)
 **********************************************************************************************************************************

        CCSD(T)         RHF-SCF 
   -189.51775304   -188.84358378
 **********************************************************************************************************************************
 Variable memory released
