
 Primary working directories    : /tmp/984684.192.gen4.q
 Secondary working directories  : /tmp/984684.192.gen4.q
 Wavefunction directory         : /home/vulcan/mel64643/wfu/
 Main file repository           : /tmp/984684.192.gen4.q/

 ARCHNAME  : Linux/x86_64
 FC        : /opt/intel/compilers_and_libraries_2016.1.150/linux/bin/intel64/ifort
 FCVERSION : 16.0.1
 BLASLIB   : -mkl
 id        : ccgc

 Nodes     nprocs
 n061         1
 ga_uses_ma=false, calling ma_init with nominal heap.
 GA-space will be limited to   8.0 MW (determined by -G option)

 Using customized tuning parameters: mindgm=10; mindgv=16; mindgc=4; mindgr=1; noblas=0; mincuda=1000; minvec=7
 default implementation of scratch files=df  

 ***,Optimization of nh3_h20
 memory,1000,m
 gthresh,energy=1.0d-12,orbital=1.0d-10,oneint=1.0d-16,twoint=1.0d-16,optgrad=1.0d-6,compress=1.0d-13
 geomtyp=xyz
 
 
 
 bohr
 geometry = {
  O   -3.2242783414    0.0730720671   -0.0060230486
  H   -1.3998138928   -0.1598129503   -0.0026877411
  H   -3.9049003039   -1.6098739725    0.0028629150
  N    2.3281764605   -0.0238634389    0.0006254896
  H    2.7015802789    1.8581942068    0.0089348448
  H    3.1986891190   -0.7608060472   -1.5412129934
  H    3.2153785516   -0.7512080301    1.5375005336
 }
 
 basis=cc-pvdz
 {rhf;maxit,200}
 {mp2}

 Variables initialized (661), CPU time= 0.00 sec
 Commands  initialized (458), CPU time= 0.00 sec, 486 directives.
 Default parameters read. Elapsed time= 0.04 sec

 Checking input...
 Passed
1


                                         ***  PROGRAM SYSTEM MOLPRO  ***
                         Copyright, University College Cardiff Consultants Limited, 2008

                                    Version 2010.1 linked May 16 2016 07:17:05


 **********************************************************************************************************************************
 LABEL *   Optimization of nh3_h20                                                       
 Linux-4.4.3/n061(x86_64) 64 bit mpp version                                             DATE: 22-Jan-24          TIME: 10:56:45  
 **********************************************************************************************************************************

 SHA1:             9e8077add272b0f3cad6f7df79ec5211205f459d
 **********************************************************************************************************************************

 THRESHOLDS:

 ZERO    =  1.00D-12  ONEINT  =  1.00D-16  TWOINT  =  1.00D-16  PREFAC  =  1.00D-14  LOCALI  =  1.00D-09  EORDER  =  1.00D-04
 ENERGY  =  1.00D-12  ETEST   =  0.00D+00  EDENS   =  0.00D+00  THRDEDEF=  1.00D-06  GRADIENT=  1.00D-02  STEP    =  1.00D-03
 ORBITAL =  1.00D-10  CIVEC   =  1.00D-05  COEFF   =  1.00D-04  PRINTCI =  5.00D-02  PUNCHCI =  9.90D+01  OPTGRAD =  1.00D-06
 OPTENERG=  1.00D-06  OPTSTEP =  3.00D-04  THRGRAD =  1.00D-10  COMPRESS=  1.00D-13  VARMIN  =  1.00D-07  VARMAX  =  1.00D-03
 THRDOUB =  0.00D+00  THRDIV  =  1.00D-05  THRRED  =  1.00D-07  THRPSP  =  1.00D+00  THRDC   =  1.00D-10  THRCS   =  1.00D-10
 THRNRM  =  1.00D-08  THREQ   =  0.00D+00  THRDE   =  1.00D+00  THRREF  =  1.00D-05  SPARFAC =  1.00D+00  THRDLP  =  1.00D-07
 THRDIA  =  1.00D-10  THRDLS  =  1.00D-07  THRGPS  =  0.00D+00  THRKEX  =  0.00D+00  THRDIS  =  2.00D-01  THRVAR  =  1.00D-10
 THRLOC  =  1.00D-06  THRGAP  =  1.00D-06  THRLOCT = -1.00D+00  THRGAPT = -1.00D+00  THRORB  =  1.00D-06  THRMLTP =  0.00D+00
 THRCPQCI=  1.00D-10  KEXTA   =  0.00D+00  THRCOARS=  0.00D+00  SYMTOL  =  1.00D-06  GRADTOL =  1.00D-06  THROVL  =  1.00D-08
 THRORTH =  1.00D-08  GRID    =  1.00D-06  GRIDMAX =  1.00D-03  DTMAX   =  0.00D+00

 SETTING GEOMTYP        =    XYZ
 ZUNIT=BOHR
 

 Variable memory set to 1000000000 words,  buffer space   230000 words

 SETTING BASIS          =    CC-PVDZ


 Recomputing integrals since basis changed


 Using spherical harmonics

 Library entry O      S cc-pVDZ              selected for orbital group  1
 Library entry O      P cc-pVDZ              selected for orbital group  1
 Library entry O      D cc-pVDZ              selected for orbital group  1
 Library entry H      S cc-pVDZ              selected for orbital group  2
 Library entry H      P cc-pVDZ              selected for orbital group  2
 Library entry N      S cc-pVDZ              selected for orbital group  3
 Library entry N      P cc-pVDZ              selected for orbital group  3
 Library entry N      D cc-pVDZ              selected for orbital group  3

1PROGRAM * SEWARD (Integral evaluation for generally contracted gaussian basis sets)     Author: Roland Lindh, 1990

 Geometry written to block  1 of record 700


 Point group  C1  



 ATOMIC COORDINATES

 NR  ATOM    CHARGE       X              Y              Z

   1  O       8.00   -3.224278341    0.073072067   -0.006023049
   2  H       1.00   -1.399813893   -0.159812950   -0.002687741
   3  H       1.00   -3.904900304   -1.609873972    0.002862915
   4  N       7.00    2.328176460   -0.023863439    0.000625490
   5  H       1.00    2.701580279    1.858194207    0.008934845
   6  H       1.00    3.198689119   -0.760806047   -1.541212993
   7  H       1.00    3.215378552   -0.751208030    1.537500534

 Bond lengths in Bohr (Angstrom)

 1-2  1.839270801  1-3  1.815387724  4-5  1.918760131  4-6  1.917848431  4-7  1.917848431
     ( 0.973300189)     ( 0.960661809)     ( 1.015364131)     ( 1.014881680)     ( 1.014881680)

 Bond angles

  2-1-3  104.74458365   5-4-6  106.98097401   5-4-7  106.17069533   6-4-7  106.77040459

 NUCLEAR CHARGE:                   20
 NUMBER OF PRIMITIVE AOS:          89
 NUMBER OF SYMMETRY AOS:           87
 NUMBER OF CONTRACTIONS:           53   (  53A   )
 NUMBER OF CORE ORBITALS:           2   (   2A   )
 NUMBER OF VALENCE ORBITALS:       13   (  13A   )


 NUCLEAR REPULSION ENERGY   38.80160874


 Eigenvalues of metric

         1 0.154E-01 0.165E-01 0.391E-01 0.406E-01 0.423E-01 0.453E-01 0.465E-01 0.664E-01


 Contracted 2-electron integrals neglected if value below      1.0D-16
 AO integral compression algorithm  1   Integral accuracy      1.0D-16

     8.651 MB (compressed) written to integral file ( 90.8%)

     Node minimum: 8.651 MB, node maximum: 8.651 MB


 NUMBER OF SORTED TWO-ELECTRON INTEGRALS:    1024596.     BUFFER LENGTH:  32768
 NUMBER OF SEGMENTS:   1  SEGMENT LENGTH:    1024596      RECORD LENGTH: 524288

 Memory used in sort:       1.58 MW

 SORT1 READ     1216809. AND WROTE     1013196. INTEGRALS IN      3 RECORDS. CPU TIME:     0.02 SEC, REAL TIME:     0.01 SEC
 SORT2 READ     1013196. AND WROTE     1024596. INTEGRALS IN     33 RECORDS. CPU TIME:     0.02 SEC, REAL TIME:     0.02 SEC

 FILE SIZES:   FILE 1:    10.0 MBYTE,  FILE 4:    12.6 MBYTE,   TOTAL:     22.6 MBYTE

 OPERATOR DM      FOR CENTER  0  COORDINATES:    0.000000    0.000000    0.000000


 **********************************************************************************************************************************
 DATASETS  * FILE   NREC   LENGTH (MB)   RECORD NAMES
              1      19       10.03       500      610      700      900      950      970     1000      129      960     1100   
                                          VAR    BASINP    GEOM    SYMINP    ZMAT    AOBASIS   BASIS     P2S    ABASIS      S 
                                         1400     1410     1200     1210     1080     1600     1650     1300     1700   
                                           T        V       H0       H01     AOSYM     SMH    MOLCAS    ERIS     OPER   

 PROGRAMS   *        TOTAL       INT
 CPU TIMES  *         0.26      0.22
 REAL TIME  *         0.45 SEC
 DISK USED  *        31.92 MB      
 GA USED    *         0.00 MB       (max)       0.00 MB       (current)
 **********************************************************************************************************************************

1PROGRAM * RHF-SCF (CLOSED SHELL)       Authors: W. Meyer, H.-J. Werner


 NUMBER OF ELECTRONS:      10+   10-    SPACE SYMMETRY=1    SPIN SYMMETRY: Singlet 
 CONVERGENCE THRESHOLDS:    1.00E-10 (Density)    1.00E-13 (Energy)
 MAX. NUMBER OF ITERATIONS:      200
 INTERPOLATION TYPE:            DIIS
 INTERPOLATION STEPS:              2 (START)      1 (STEP)
 LEVEL SHIFTS:                  0.00 (CLOSED)  0.00 (OPEN) 



 Orbital guess generated from atomic densities. Full valence occupancy:   15

 Molecular orbital dump at record        2100.2

 ITERATION    DDIFF          GRAD             ENERGY        2-EL.EN.            DIPOLE MOMENTS         DIIS
    1      0.000D+00      0.000D+00      -132.17167981    177.634808    1.77409   -0.81092    0.00593    0
    2      0.000D+00      0.136D-01      -132.21974949    172.708673    1.38351   -0.48216    0.00307    1
    3      0.257D-01      0.674D-02      -132.23121533    174.651742    1.42121   -0.55480    0.00370    2
    4      0.826D-02      0.950D-03      -132.23168343    174.502009    1.39954   -0.54316    0.00361    3
    5      0.198D-02      0.229D-03      -132.23171198    174.499333    1.39230   -0.54176    0.00358    4
    6      0.479D-03      0.673D-04      -132.23171395    174.507128    1.39125   -0.54106    0.00359    5
    7      0.125D-03      0.211D-04      -132.23171421    174.504810    1.39056   -0.54104    0.00359    6
    8      0.413D-04      0.311D-05      -132.23171422    174.504788    1.39041   -0.54099    0.00359    7
    9      0.885D-05      0.499D-06      -132.23171422    174.504775    1.39040   -0.54100    0.00359    6
   10      0.113D-05      0.127D-06      -132.23171422    174.504772    1.39039   -0.54100    0.00359    6
   11      0.301D-06      0.359D-07      -132.23171422    174.504777    1.39039   -0.54100    0.00359    6
   12      0.957D-07      0.101D-07      -132.23171422    174.504774    1.39039   -0.54100    0.00359    6
   13      0.214D-07      0.381D-08      -132.23171422    174.504775    1.39039   -0.54100    0.00359    6
   14      0.722D-08      0.828D-09      -132.23171422    174.504775    1.39039   -0.54100    0.00359    7
   15      0.181D-08      0.273D-09      -132.23171422    174.504775    1.39039   -0.54100    0.00359    7
   16      0.536D-09      0.902D-10      -132.23171422    174.504775    1.39039   -0.54100    0.00359    7
   17      0.197D-09      0.184D-10      -132.23171422    174.504775    1.39039   -0.54100    0.00359    7
   18      0.535D-10      0.268D-11      -132.23171422    174.504775    1.39039   -0.54100    0.00359    0

 Final occupancy:  10

 !RHF STATE 1.1 Energy               -132.231714218992
 Nuclear energy                        38.80160874
 One-electron energy                 -258.28571051
 Two-electron energy                   87.25238755
 Virial quotient                       -1.00119863
 !RHF STATE 1.1 Dipole moment           1.39039473    -0.54099772     0.00358934
 Dipole moment /Debye                   3.53379945    -1.37498898     0.00912260

 Orbital energies:

         1.1          2.1          3.1          4.1          5.1          6.1          7.1          8.1          9.1         10.1
    -20.502789   -15.568220    -1.288215    -1.161179    -0.658228    -0.645348    -0.642032    -0.529053    -0.449172    -0.446231

        11.1         12.1
      0.166236     0.237466


 **********************************************************************************************************************************
 DATASETS  * FILE   NREC   LENGTH (MB)   RECORD NAMES
              1      19       10.03       500      610      700      900      950      970     1000      129      960     1100   
                                          VAR    BASINP    GEOM    SYMINP    ZMAT    AOBASIS   BASIS     P2S    ABASIS      S 
                                         1400     1410     1200     1210     1080     1600     1650     1300     1700   
                                           T        V       H0       H01     AOSYM     SMH    MOLCAS    ERIS     OPER   

              2       3        0.42       700     1000     2100   
                                         GEOM     BASIS     RHF  

 PROGRAMS   *        TOTAL       RHF       INT
 CPU TIMES  *         0.40      0.14      0.22
 REAL TIME  *         0.63 SEC
 DISK USED  *        31.92 MB      
 GA USED    *         0.00 MB       (max)       0.00 MB       (current)
 **********************************************************************************************************************************


1PROGRAM * MP2 (Closed-shell)     Authors: C. Hampel, H.-J. Werner, 1991, M. Deegan, P.J. Knowles, 1992


 Convergence thresholds:  THRVAR = 1.00D-08  THRDEN = 1.00D-12

 Number of core orbitals:           2 (   2 )
 Number of closed-shell orbitals:   8 (   8 )
 Number of external orbitals:      43 (  43 )

 Molecular orbitals read from record     2100.2  Type=RHF/CANONICAL (state 1.1)

 Number of N-1 electron functions:               8
 Number of N-2 electron functions:              36
 Number of singly external CSFs:               344
 Number of doubly external CSFs:             59340
 Total number of CSFs:                       59685

 Length of J-op  integral file:               0.00 MB
 Length of K-op  integral file:               0.22 MB

 Integral transformation finished. Total CPU:   0.02 sec, npass=  1  Memory used:   0.28 MW

 Memory needed for MP2:                      0.01 MW

 SCS-MP2 correlation energy:           -0.387754732604   (PS=  1.200000  PT=  0.333333)
 SCS-MP2 total energy:               -132.619468951597


  Reference energy                   -132.231714218992
  MP2 singlet pair energy              -0.249282012780
  MP2 triplet pair energy              -0.142419081324
  MP2 correlation energy               -0.391701094104

 !MP2 total energy                   -132.623415313097


 **********************************************************************************************************************************
 DATASETS  * FILE   NREC   LENGTH (MB)   RECORD NAMES
              1      20       11.30       500      610      700      900      950      970     1000      129      960     1100   
                                          VAR    BASINP    GEOM    SYMINP    ZMAT    AOBASIS   BASIS     P2S    ABASIS      S 
                                         1400     1410     1200     1210     1080     1600     1650     1300     1700     1380   
                                           T        V       H0       H01     AOSYM     SMH    MOLCAS    ERIS     OPER     JKOP   

              2       3        0.42       700     1000     2100   
                                         GEOM     BASIS     RHF  

 PROGRAMS   *        TOTAL       MP2       RHF       INT
 CPU TIMES  *         0.43      0.03      0.14      0.22
 REAL TIME  *         0.68 SEC
 DISK USED  *        31.92 MB      
 GA USED    *         0.00 MB       (max)       0.00 MB       (current)
 **********************************************************************************************************************************

        MP2             RHF-SCF 
   -132.62341531   -132.23171422
 **********************************************************************************************************************************
 Variable memory released
