
 Primary working directories    : /tmp/1047041.562.gen6.q
 Secondary working directories  : /tmp/1047041.562.gen6.q
 Wavefunction directory         : /home/vulcan/mel64643/wfu/
 Main file repository           : /tmp/1047041.562.gen6.q/

 ARCHNAME  : Linux/x86_64
 FC        : /opt/intel/compilers_and_libraries_2016.1.150/linux/bin/intel64/ifort
 FCVERSION : 16.0.1
 BLASLIB   : -mkl
 id        : ccgc

 Nodes     nprocs
 n092         1
 ga_uses_ma=false, calling ma_init with nominal heap.
 GA-space will be limited to   8.0 MW (determined by -G option)

 Using customized tuning parameters: mindgm=10; mindgv=16; mindgc=4; mindgr=1; noblas=0; mincuda=1000; minvec=7
 default implementation of scratch files=df  

 ***,Optimization of ben_hcn
 memory,1000,m
 gthresh,energy=1.0d-12,orbital=1.0d-10,oneint=1.0d-16,twoint=1.0d-16,optgrad=1.0d-6,compress=1.0d-13
 geomtyp=xyz
 
 
 
 bohr
 geometry = {
  C   -1.8845622094    1.3694727952    2.2861000517
  C   -1.8574726231    2.6901918994   -0.0037675615
  C   -1.8748948678    1.3676090816   -2.2926381261
  C   -1.9193694276   -1.2754825743   -2.2915574736
  C   -1.9464452734   -2.5960189751   -0.0018203696
  C   -1.9290159719   -1.2736383263    2.2869583321
  H   -1.8770495018    2.3961541844    4.0628349705
  H   -1.8115395244    4.7335770885   -0.0045137328
  H   -1.8419443034    2.3925229061   -4.0700981769
  H   -1.9382068276   -2.2978844643   -4.0612194857
  H   -1.9683829029   -4.6479180824   -0.0010237746
  H   -1.9376715108   -2.2949125393    4.0573554787
  N    6.6241460579   -0.1990601350    0.0073602249
  C    4.4344424542   -0.0759599282    0.0101899430
  H    2.4147676789    0.0378706176    0.0129402140
 }
 
 basis=aug-cc-pvdz, H=cc-pvdz
 {rhf;maxit,200}
 {ccsd(t)}

 Variables initialized (661), CPU time= 0.00 sec
 Commands  initialized (458), CPU time= 0.01 sec, 486 directives.
 Default parameters read. Elapsed time= 0.04 sec

 Checking input...
 Passed
1


                                         ***  PROGRAM SYSTEM MOLPRO  ***
                         Copyright, University College Cardiff Consultants Limited, 2008

                                    Version 2010.1 linked May 16 2016 07:17:05


 **********************************************************************************************************************************
 LABEL *   Optimization of ben_hcn                                                       
 Linux-4.4.3/n092(x86_64) 64 bit mpp version                                             DATE: 07-Mar-24          TIME: 18:51:52  
 **********************************************************************************************************************************

 SHA1:             9e8077add272b0f3cad6f7df79ec5211205f459d
 **********************************************************************************************************************************

 THRESHOLDS:

 ZERO    =  1.00D-12  ONEINT  =  1.00D-16  TWOINT  =  1.00D-16  PREFAC  =  1.00D-14  LOCALI  =  1.00D-09  EORDER  =  1.00D-04
 ENERGY  =  1.00D-12  ETEST   =  0.00D+00  EDENS   =  0.00D+00  THRDEDEF=  1.00D-06  GRADIENT=  1.00D-02  STEP    =  1.00D-03
 ORBITAL =  1.00D-10  CIVEC   =  1.00D-05  COEFF   =  1.00D-04  PRINTCI =  5.00D-02  PUNCHCI =  9.90D+01  OPTGRAD =  1.00D-06
 OPTENERG=  1.00D-06  OPTSTEP =  3.00D-04  THRGRAD =  1.00D-10  COMPRESS=  1.00D-13  VARMIN  =  1.00D-07  VARMAX  =  1.00D-03
 THRDOUB =  0.00D+00  THRDIV  =  1.00D-05  THRRED  =  1.00D-07  THRPSP  =  1.00D+00  THRDC   =  1.00D-10  THRCS   =  1.00D-10
 THRNRM  =  1.00D-08  THREQ   =  0.00D+00  THRDE   =  1.00D+00  THRREF  =  1.00D-05  SPARFAC =  1.00D+00  THRDLP  =  1.00D-07
 THRDIA  =  1.00D-10  THRDLS  =  1.00D-07  THRGPS  =  0.00D+00  THRKEX  =  0.00D+00  THRDIS  =  2.00D-01  THRVAR  =  1.00D-10
 THRLOC  =  1.00D-06  THRGAP  =  1.00D-06  THRLOCT = -1.00D+00  THRGAPT = -1.00D+00  THRORB  =  1.00D-06  THRMLTP =  0.00D+00
 THRCPQCI=  1.00D-10  KEXTA   =  0.00D+00  THRCOARS=  0.00D+00  SYMTOL  =  1.00D-06  GRADTOL =  1.00D-06  THROVL  =  1.00D-08
 THRORTH =  1.00D-08  GRID    =  1.00D-06  GRIDMAX =  1.00D-03  DTMAX   =  0.00D+00

 SETTING GEOMTYP        =    XYZ
 ZUNIT=BOHR
 

 Variable memory set to 1000000000 words,  buffer space   230000 words

 SETTING BASIS          =    AUG-CC-PVDZ,H=CC-PVDZ


 Recomputing integrals since basis changed


 Using spherical harmonics

 Library entry C      S aug-cc-pVDZ          selected for orbital group  1
 Library entry C      P aug-cc-pVDZ          selected for orbital group  1
 Library entry C      D aug-cc-pVDZ          selected for orbital group  1
 Library entry H      S cc-pVDZ              selected for orbital group  2
 Library entry H      P cc-pVDZ              selected for orbital group  2
 Library entry N      S aug-cc-pVDZ          selected for orbital group  3
 Library entry N      P aug-cc-pVDZ          selected for orbital group  3
 Library entry N      D aug-cc-pVDZ          selected for orbital group  3

1PROGRAM * SEWARD (Integral evaluation for generally contracted gaussian basis sets)     Author: Roland Lindh, 1990

 Geometry written to block  1 of record 700


 Point group  C1  



 ATOMIC COORDINATES

 NR  ATOM    CHARGE       X              Y              Z

   1  C       6.00   -1.884562209    1.369472795    2.286100052
   2  C       6.00   -1.857472623    2.690191899   -0.003767562
   3  C       6.00   -1.874894868    1.367609082   -2.292638126
   4  C       6.00   -1.919369428   -1.275482574   -2.291557474
   5  C       6.00   -1.946445273   -2.596018975   -0.001820370
   6  C       6.00   -1.929015972   -1.273638326    2.286958332
   7  H       1.00   -1.877049502    2.396154184    4.062834970
   8  H       1.00   -1.811539524    4.733577088   -0.004513733
   9  H       1.00   -1.841944303    2.392522906   -4.070098177
  10  H       1.00   -1.938206828   -2.297884464   -4.061219486
  11  H       1.00   -1.968382903   -4.647918082   -0.001023775
  12  H       1.00   -1.937671511   -2.294912539    4.057355479
  13  N       7.00    6.624146058   -0.199060135    0.007360225
  14  C       6.00    4.434442454   -0.075959928    0.010189943
  15  H       1.00    2.414767679    0.037870618    0.012940214

 Bond lengths in Bohr (Angstrom)

 1-2  2.643582131  1-6  2.643485062  1-7  2.052052165  2-3  2.643569047  2-8  2.043901523
     ( 1.398923414)     ( 1.398872047)     ( 1.085899237)     ( 1.398916490)     ( 1.081586104)

  3- 4  2.643466031   3- 9  2.052047348   4- 5  2.643377667   4-10  2.043860100   5- 6  2.643388414
       ( 1.398861976)       ( 1.085896688)       ( 1.398815216)       ( 1.081564183)       ( 1.398820903)

  5-11  2.052016530   6-12  2.043864475  13-14  2.193162908  14-15  2.022881894
       ( 1.085880380)       ( 1.081566499)       ( 1.160571826)       ( 1.070462995)

 Bond angles

  1- 2- 3  119.99746549   1- 2- 8  120.00097988   1- 6- 5  120.00123549   1- 6-12  119.99734155

  2-1-6  119.99850417   2-1-7  119.99929618   2-3-4  119.99920943   2-3-9  119.99883014

  3- 2- 8  120.00050335   3- 4- 5  120.00130474   3- 4-10  119.99742763   4- 3- 9  120.00083822

  4- 5- 6  120.00228066   4- 5-11  119.99875714   5- 4-10  120.00103780   5- 6-12  120.00023670

  6- 1- 7  120.00191980   6- 5-11  119.99771237  13-14-15  179.99091353

 NUCLEAR CHARGE:                   56
 NUMBER OF PRIMITIVE AOS:         345
 NUMBER OF SYMMETRY AOS:          329
 NUMBER OF CONTRACTIONS:          219   ( 219A   )
 NUMBER OF CORE ORBITALS:           8   (   8A   )
 NUMBER OF VALENCE ORBITALS:       39   (  39A   )


 NUCLEAR REPULSION ENERGY  303.39349214


 Eigenvalues of metric

         1 0.864E-05 0.186E-04 0.229E-04 0.534E-04 0.630E-04 0.631E-04 0.926E-04 0.932E-04


 Contracted 2-electron integrals neglected if value below      1.0D-16
 AO integral compression algorithm  1   Integral accuracy      1.0D-16

     2340.159 MB (compressed) written to integral file ( 91.2%)

     Node minimum: 2340.159 MB, node maximum: 2340.159 MB


 NUMBER OF SORTED TWO-ELECTRON INTEGRALS:  290176095.     BUFFER LENGTH:  32768
 NUMBER OF SEGMENTS:  19  SEGMENT LENGTH:   15999762      RECORD LENGTH: 524288

 Memory used in sort:      16.56 MW

 SORT1 READ   320642736. AND WROTE   287598172. INTEGRALS IN    832 RECORDS. CPU TIME:     2.93 SEC, REAL TIME:     4.98 SEC
 SORT2 READ   287598172. AND WROTE   290176095. INTEGRALS IN   8927 RECORDS. CPU TIME:     2.00 SEC, REAL TIME:     3.04 SEC

 FILE SIZES:   FILE 1:  2151.0 MBYTE,  FILE 4:  3489.7 MBYTE,   TOTAL:   5640.7 MBYTE

 OPERATOR DM      FOR CENTER  0  COORDINATES:    0.000000    0.000000    0.000000


 **********************************************************************************************************************************
 DATASETS  * FILE   NREC   LENGTH (MB)   RECORD NAMES
              1      19     2151.61       500      610      700      900      950      970     1000      129      960     1100   
                                          VAR    BASINP    GEOM    SYMINP    ZMAT    AOBASIS   BASIS     P2S    ABASIS      S 
                                         1400     1410     1200     1210     1080     1600     1650     1300     1700   
                                           T        V       H0       H01     AOSYM     SMH    MOLCAS    ERIS     OPER   

 PROGRAMS   *        TOTAL       INT
 CPU TIMES  *        15.78     15.74
 REAL TIME  *        20.16 SEC
 DISK USED  *         7.98 GB      
 GA USED    *         0.01 MB       (max)       0.00 MB       (current)
 **********************************************************************************************************************************

1PROGRAM * RHF-SCF (CLOSED SHELL)       Authors: W. Meyer, H.-J. Werner


 NUMBER OF ELECTRONS:      28+   28-    SPACE SYMMETRY=1    SPIN SYMMETRY: Singlet 
 CONVERGENCE THRESHOLDS:    1.00E-10 (Density)    1.00E-13 (Energy)
 MAX. NUMBER OF ITERATIONS:      200
 INTERPOLATION TYPE:            DIIS
 INTERPOLATION STEPS:              2 (START)      1 (STEP)
 LEVEL SHIFTS:                  0.00 (CLOSED)  0.00 (OPEN) 



 Orbital guess generated from atomic densities. Full valence occupancy:   47

 Molecular orbital dump at record        2100.2

 ITERATION    DDIFF          GRAD             ENERGY        2-EL.EN.            DIPOLE MOMENTS         DIIS
    1      0.000D+00      0.000D+00      -323.54135810    822.123801   -1.89880    0.10258    0.00209    0
    2      0.000D+00      0.292D-02      -323.59779865    819.103408   -1.36876    0.04985   -0.00069    1
    3      0.781D-02      0.179D-02      -323.61439461    820.248563   -1.72960    0.07898    0.00059    2
    4      0.260D-02      0.576D-03      -323.61673103    820.450241   -1.63886    0.07176    0.00027    3
    5      0.963D-03      0.133D-03      -323.61686037    820.190261   -1.66281    0.07247    0.00025    4
    6      0.223D-03      0.229D-04      -323.61686651    820.217125   -1.66416    0.07243    0.00024    5
    7      0.845D-04      0.435D-05      -323.61686671    820.212241   -1.66451    0.07236    0.00023    6
    8      0.108D-04      0.124D-05      -323.61686672    820.213234   -1.66482    0.07242    0.00023    7
    9      0.348D-05      0.277D-06      -323.61686672    820.213267   -1.66479    0.07237    0.00023    6
   10      0.862D-06      0.808D-07      -323.61686672    820.213245   -1.66479    0.07240    0.00023    6
   11      0.227D-06      0.463D-07      -323.61686672    820.213262   -1.66479    0.07239    0.00023    7
   12      0.132D-06      0.187D-07      -323.61686672    820.213255   -1.66479    0.07239    0.00023    7
   13      0.776D-07      0.888D-08      -323.61686672    820.213260   -1.66479    0.07239    0.00023    8
   14      0.536D-07      0.354D-08      -323.61686672    820.213255   -1.66479    0.07239    0.00023    8
   15      0.209D-07      0.115D-08      -323.61686672    820.213257   -1.66479    0.07239    0.00023    9
   16      0.407D-08      0.171D-09      -323.61686672    820.213257   -1.66479    0.07239    0.00023    9
   17      0.807D-09      0.560D-10      -323.61686672    820.213257   -1.66479    0.07239    0.00023    8
   18      0.337D-09      0.138D-10      -323.61686672    820.213257   -1.66479    0.07239    0.00023    8
   19      0.210D-09      0.825D-11      -323.61686672    820.213257   -1.66479    0.07239    0.00023    8
   20      0.123D-09      0.419D-11      -323.61686672    820.213257   -1.66479    0.07239    0.00023    8
   21      0.179D-09      0.217D-11      -323.61686672    820.213257   -1.66479    0.07239    0.00023    8
   22      0.162D-09      0.137D-11      -323.61686672    820.213257   -1.66479    0.07239    0.00023    9
   23      0.107D-09      0.786D-12      -323.61686672    820.213257   -1.66479    0.07239    0.00023    9
   24      0.110D-09      0.529D-12      -323.61686672    820.213257   -1.66479    0.07239    0.00023    9
   25      0.476D-10      0.518D-12      -323.61686672    820.213257   -1.66479    0.07239    0.00023    9
   26      0.391D-10      0.517D-12      -323.61686672    820.213257   -1.66479    0.07239    0.00023    9
   27      0.258D-10      0.413D-12      -323.61686672    820.213257   -1.66479    0.07239    0.00023    9
   28      0.241D-10      0.468D-12      -323.61686672    820.213257   -1.66479    0.07239    0.00023    9
   29      0.177D-10      0.464D-12      -323.61686672    820.213257   -1.66479    0.07239    0.00023    9
   30      0.148D-10      0.434D-12      -323.61686672    820.213257   -1.66479    0.07239    0.00023    9
   31      0.169D-10      0.541D-12      -323.61686672    820.213257   -1.66479    0.07239    0.00023    9
   32      0.846D-11      0.419D-12      -323.61686672    820.213257   -1.66479    0.07239    0.00023    9
   33      0.955D-11      0.457D-12      -323.61686672    820.213257   -1.66479    0.07239    0.00023    9
   34      0.199D-10      0.496D-12      -323.61686672    820.213257   -1.66479    0.07239    0.00023    9
   35      0.111D-10      0.522D-12      -323.61686672    820.213257   -1.66479    0.07239    0.00023    9
   36      0.120D-10      0.474D-12      -323.61686672    820.213257   -1.66479    0.07239    0.00023    9
   37      0.276D-10      0.445D-12      -323.61686672    820.213257   -1.66479    0.07239    0.00023    9
   38      0.154D-10      0.528D-12      -323.61686672    820.213257   -1.66479    0.07239    0.00023    9
   39      0.180D-10      0.431D-12      -323.61686672    820.213257   -1.66479    0.07239    0.00023    9
   40      0.332D-10      0.575D-12      -323.61686672    820.213257   -1.66479    0.07239    0.00023    9
   41      0.208D-10      0.497D-12      -323.61686672    820.213257   -1.66479    0.07239    0.00023    9
   42      0.256D-10      0.440D-12      -323.61686672    820.213257   -1.66479    0.07239    0.00023    9
   43      0.159D-10      0.454D-12      -323.61686672    820.213257   -1.66479    0.07239    0.00023    9
   44      0.138D-10      0.383D-12      -323.61686672    820.213257   -1.66479    0.07239    0.00023    9
   45      0.113D-10      0.407D-12      -323.61686672    820.213257   -1.66479    0.07239    0.00023    9
   46      0.171D-10      0.566D-12      -323.61686672    820.213257   -1.66479    0.07239    0.00023    9
   47      0.100D-10      0.490D-12      -323.61686672    820.213257   -1.66479    0.07239    0.00023    9
   48      0.139D-10      0.485D-12      -323.61686672    820.213257   -1.66479    0.07239    0.00023    9
   49      0.181D-10      0.341D-12      -323.61686672    820.213257   -1.66479    0.07239    0.00023    9
   50      0.149D-10      0.428D-12      -323.61686672    820.213257   -1.66479    0.07239    0.00023    9
   51      0.831D-11      0.419D-12      -323.61686672    820.213257   -1.66479    0.07239    0.00023    9
   52      0.101D-10      0.409D-12      -323.61686672    820.213257   -1.66479    0.07239    0.00023    9
   53      0.852D-11      0.428D-12      -323.61686672    820.213257   -1.66479    0.07239    0.00023    9
   54      0.183D-10      0.402D-12      -323.61686672    820.213257   -1.66479    0.07239    0.00023    9
   55      0.116D-10      0.448D-12      -323.61686672    820.213257   -1.66479    0.07239    0.00023    9
   56      0.709D-11      0.503D-12      -323.61686672    820.213257   -1.66479    0.07239    0.00023    9
   57      0.157D-10      0.522D-12      -323.61686672    820.213257   -1.66479    0.07239    0.00023    9
   58      0.126D-10      0.467D-12      -323.61686672    820.213257   -1.66479    0.07239    0.00023    9
   59      0.282D-10      0.355D-12      -323.61686672    820.213257   -1.66479    0.07239    0.00023    9
   60      0.329D-10      0.460D-12      -323.61686672    820.213257   -1.66479    0.07239    0.00023    9
   61      0.142D-10      0.469D-12      -323.61686672    820.213257   -1.66479    0.07239    0.00023    9
   62      0.156D-10      0.405D-12      -323.61686672    820.213257   -1.66479    0.07239    0.00023    9
   63      0.185D-10      0.389D-12      -323.61686672    820.213257   -1.66479    0.07239    0.00023    9
   64      0.127D-10      0.526D-12      -323.61686672    820.213257   -1.66479    0.07239    0.00023    9
   65      0.164D-10      0.373D-12      -323.61686672    820.213257   -1.66479    0.07239    0.00023    9
   66      0.143D-10      0.426D-12      -323.61686672    820.213257   -1.66479    0.07239    0.00023    9
   67      0.114D-10      0.419D-12      -323.61686672    820.213257   -1.66479    0.07239    0.00023    9
   68      0.183D-10      0.430D-12      -323.61686672    820.213257   -1.66479    0.07239    0.00023    9
   69      0.118D-10      0.476D-12      -323.61686672    820.213257   -1.66479    0.07239    0.00023    9
   70      0.172D-10      0.403D-12      -323.61686672    820.213257   -1.66479    0.07239    0.00023    9
   71      0.101D-10      0.390D-12      -323.61686672    820.213257   -1.66479    0.07239    0.00023    9
   72      0.132D-10      0.391D-12      -323.61686672    820.213257   -1.66479    0.07239    0.00023    9
   73      0.161D-10      0.513D-12      -323.61686672    820.213257   -1.66479    0.07239    0.00023    9
   74      0.114D-10      0.421D-12      -323.61686672    820.213257   -1.66479    0.07239    0.00023    9
   75      0.163D-10      0.376D-12      -323.61686672    820.213257   -1.66479    0.07239    0.00023    9
   76      0.137D-10      0.455D-12      -323.61686672    820.213257   -1.66479    0.07239    0.00023    9
   77      0.183D-10      0.543D-12      -323.61686672    820.213257   -1.66479    0.07239    0.00023    9
   78      0.218D-10      0.428D-12      -323.61686672    820.213257   -1.66479    0.07239    0.00023    9
   79      0.141D-10      0.422D-12      -323.61686672    820.213257   -1.66479    0.07239    0.00023    9
   80      0.138D-10      0.498D-12      -323.61686672    820.213257   -1.66479    0.07239    0.00023    9
   81      0.113D-10      0.396D-12      -323.61686672    820.213257   -1.66479    0.07239    0.00023    9
   82      0.130D-10      0.401D-12      -323.61686672    820.213257   -1.66479    0.07239    0.00023    9
   83      0.104D-10      0.449D-12      -323.61686672    820.213257   -1.66479    0.07239    0.00023    9
   84      0.160D-10      0.427D-12      -323.61686672    820.213257   -1.66479    0.07239    0.00023    9
   85      0.174D-10      0.472D-12      -323.61686672    820.213257   -1.66479    0.07239    0.00023    9
   86      0.175D-10      0.460D-12      -323.61686672    820.213257   -1.66479    0.07239    0.00023    9
   87      0.614D-11      0.423D-12      -323.61686672    820.213257   -1.66479    0.07239    0.00023    9
   88      0.178D-10      0.555D-12      -323.61686672    820.213257   -1.66479    0.07239    0.00023    9
   89      0.155D-10      0.497D-12      -323.61686672    820.213257   -1.66479    0.07239    0.00023    9
   90      0.168D-10      0.381D-12      -323.61686672    820.213257   -1.66479    0.07239    0.00023    9
   91      0.121D-10      0.493D-12      -323.61686672    820.213257   -1.66479    0.07239    0.00023    9
   92      0.141D-10      0.407D-12      -323.61686672    820.213257   -1.66479    0.07239    0.00023    9
   93      0.122D-10      0.414D-12      -323.61686672    820.213257   -1.66479    0.07239    0.00023    9
   94      0.155D-10      0.388D-12      -323.61686672    820.213257   -1.66479    0.07239    0.00023    9
   95      0.165D-10      0.485D-12      -323.61686672    820.213257   -1.66479    0.07239    0.00023    9
   96      0.696D-11      0.448D-12      -323.61686672    820.213257   -1.66479    0.07239    0.00023    9
   97      0.981D-11      0.570D-12      -323.61686672    820.213257   -1.66479    0.07239    0.00023    9
   98      0.681D-11      0.377D-12      -323.61686672    820.213257   -1.66479    0.07239    0.00023    9
   99      0.840D-11      0.556D-12      -323.61686672    820.213257   -1.66479    0.07239    0.00023    9
  100      0.168D-10      0.417D-12      -323.61686672    820.213257   -1.66479    0.07239    0.00023    9
  101      0.223D-10      0.567D-12      -323.61686672    820.213257   -1.66479    0.07239    0.00023    9
  102      0.179D-10      0.401D-12      -323.61686672    820.213257   -1.66479    0.07239    0.00023    9
  103      0.160D-10      0.359D-12      -323.61686672    820.213257   -1.66479    0.07239    0.00023    9
  104      0.189D-10      0.456D-12      -323.61686672    820.213257   -1.66479    0.07239    0.00023    9
  105      0.140D-10      0.489D-12      -323.61686672    820.213257   -1.66479    0.07239    0.00023    9
  106      0.898D-11      0.383D-12      -323.61686672    820.213257   -1.66479    0.07239    0.00023    9
  107      0.128D-10      0.420D-12      -323.61686672    820.213257   -1.66479    0.07239    0.00023    9
  108      0.161D-10      0.493D-12      -323.61686672    820.213257   -1.66479    0.07239    0.00023    9
  109      0.234D-10      0.391D-12      -323.61686672    820.213257   -1.66479    0.07239    0.00023    9
  110      0.154D-10      0.451D-12      -323.61686672    820.213257   -1.66479    0.07239    0.00023    9
  111      0.168D-10      0.533D-12      -323.61686672    820.213257   -1.66479    0.07239    0.00023    0

 Final occupancy:  28

 !RHF STATE 1.1 Energy               -323.616866723255
 Nuclear energy                       303.39349214
 One-electron energy                -1037.11698728
 Two-electron energy                  410.10662842
 Virial quotient                       -1.00170980
 !RHF STATE 1.1 Dipole moment          -1.66478624     0.07238793     0.00023256
 Dipole moment /Debye                  -4.23118742     0.18397972     0.00059107

 Orbital energies:

         1.1          2.1          3.1          4.1          5.1          6.1          7.1          8.1          9.1         10.1
    -15.591649   -11.283865   -11.266274   -11.265759   -11.265712   -11.264502   -11.264453   -11.263902    -1.218336    -1.173918

        11.1         12.1         13.1         14.1         15.1         16.1         17.1         18.1         19.1         20.1
     -1.037791    -1.037786    -0.845721    -0.845718    -0.789910    -0.729369    -0.664868    -0.639192    -0.608564    -0.608560

        21.1         22.1         23.1         24.1         25.1         26.1         27.1         28.1         29.1         30.1
     -0.565229    -0.520430    -0.514851    -0.514797    -0.475691    -0.475687    -0.359671    -0.359663     0.055868     0.060081


 **********************************************************************************************************************************
 DATASETS  * FILE   NREC   LENGTH (MB)   RECORD NAMES
              1      19     2151.61       500      610      700      900      950      970     1000      129      960     1100   
                                          VAR    BASINP    GEOM    SYMINP    ZMAT    AOBASIS   BASIS     P2S    ABASIS      S 
                                         1400     1410     1200     1210     1080     1600     1650     1300     1700   
                                           T        V       H0       H01     AOSYM     SMH    MOLCAS    ERIS     OPER   

              2       3        1.49       700     1000     2100   
                                         GEOM     BASIS     RHF  

 PROGRAMS   *        TOTAL       RHF       INT
 CPU TIMES  *       225.09    209.31     15.74
 REAL TIME  *       250.66 SEC
 DISK USED  *         7.98 GB      
 GA USED    *         0.01 MB       (max)       0.00 MB       (current)
 **********************************************************************************************************************************


1PROGRAM * CCSD (Closed-shell coupled cluster)     Authors: C. Hampel, H.-J. Werner, 1991, M. Deegan, P.J. Knowles, 1992


 Convergence thresholds:  THRVAR = 1.00D-08  THRDEN = 1.00D-12

 CCSD(T)     terms to be evaluated (factor= 1.000)


 Number of core orbitals:           8 (   8 )
 Number of closed-shell orbitals:  20 (  20 )
 Number of external orbitals:     191 ( 191 )

 Molecular orbitals read from record     2100.2  Type=RHF/CANONICAL (state 1.1)

 Number of N-1 electron functions:              20
 Number of N-2 electron functions:             210
 Number of singly external CSFs:              3820
 Number of doubly external CSFs:           7298110
 Total number of CSFs:                     7301931

 Length of J-op  integral file:               0.00 MB
 Length of K-op  integral file:               3.32 MB
 Length of 3-ext integral record:             0.00 MB

 Memory could be reduced to 174.82 Mwords without degradation in triples

 Integral transformation finished. Total CPU:  14.17 sec, npass=  1  Memory used: 128.13 MW

 Reference energy:                   -323.61686672

 MP2 singlet pair energy:              -0.67334367
 MP2 triplet pair energy:              -0.43519848
 MP2 correlation energy:               -1.10854215
 MP2 total energy:                   -324.72540887

 SCS-MP2 correlation energy:           -1.07880257   (PS=  1.200000  PT=  0.333333)
 SCS-MP2 total energy:               -324.69566929

 ITER.      SQ.NORM     CORR.ENERGY   TOTAL ENERGY   ENERGY CHANGE        DEN1      VAR(S)    VAR(P)  DIIS     TIME
   1      1.42873406    -1.14462415  -324.76149087    -0.03608200    -0.00288951  0.51D-02  0.99D-02  1  1    60.58
   2      1.46305706    -1.15049768  -324.76736441    -0.00587353    -0.03103188  0.83D-04  0.13D-02  2  2   107.31
   3      1.47634855    -1.15094536  -324.76781209    -0.00044768    -0.00655924  0.40D-04  0.12D-03  3  3   154.06
   4      1.48204070    -1.15119507  -324.76806179    -0.00024970    -0.00178581  0.22D-05  0.15D-04  4  4   200.84
   5      1.48357022    -1.15123076  -324.76809748    -0.00003569    -0.00036593  0.25D-06  0.14D-05  5  5   247.62
   6      1.48387649    -1.15122224  -324.76808896     0.00000852    -0.00005028  0.24D-07  0.91D-07  6  6   294.41
   7      1.48391127    -1.15122565  -324.76809237    -0.00000341    -0.00000225  0.34D-08  0.80D-08  6  2   341.16
   8      1.48391596    -1.15122601  -324.76809273    -0.00000036    -0.00000042  0.41D-09  0.83D-09  6  1   387.91
   9      1.48391619    -1.15122617  -324.76809290    -0.00000017     0.00000079  0.63D-10  0.78D-10  6  3   434.70
  10      1.48391656    -1.15122623  -324.76809296    -0.00000006     0.00000002  0.10D-10  0.99D-11  6  4   481.49
  11      1.48391629    -1.15122627  -324.76809299    -0.00000004     0.00000022  0.16D-11  0.14D-11  6  5   528.27
  12      1.48391613    -1.15122628  -324.76809300    -0.00000001     0.00000008  0.25D-12  0.27D-12  6  6   575.05
  13      1.48391599    -1.15122629  -324.76809301    -0.00000000     0.00000005  0.14D-13  0.52D-13  6  2   621.82
  14      1.48391593    -1.15122629  -324.76809301    -0.00000000     0.00000002  0.22D-14  0.94D-14  6  1   668.61
  15      1.48391590    -1.15122629  -324.76809301     0.00000000     0.00000001  0.46D-15  0.13D-14  6  3   715.35
  16      1.48391589    -1.15122629  -324.76809301    -0.00000000     0.00000000  0.98D-16  0.19D-15  6  4   762.12
  17      1.48391589    -1.15122629  -324.76809301    -0.00000000     0.00000000  0.19D-16  0.28D-16  6  5   808.87
  18      1.48391589    -1.15122629  -324.76809301    -0.00000000     0.00000000  0.37D-17  0.36D-17  6  6   855.63
  19      1.48391589    -1.15122629  -324.76809301    -0.00000000     0.00000000  0.82D-18  0.60D-18  6  2   902.40
  20      1.48391589    -1.15122629  -324.76809301    -0.00000000     0.00000000  0.19D-18  0.13D-18  6  1   949.15
  21      1.48391589    -1.15122629  -324.76809301    -0.00000000     0.00000000  0.67D-19  0.40D-19  6  3   995.91
  22      1.48391589    -1.15122629  -324.76809301     0.00000000     0.00000000  0.30D-19  0.18D-19  6  4  1042.66

 Norm of t1 vector:      0.09773694      S-energy:     0.00000000      T1 diagnostic:  0.01092732
                                                                       D1 diagnostic:  0.02771893

 Doubles amplitudes (print threshold =  0.500E-01):

         I         J         SYM. A    SYM. B    A         B      T(IJ, AB)

        19        19         1         1         8         8     -0.05654799
        20        20         1         1         7         7     -0.05660849


 Total CPU time for triples:   1004.07 sec


 RESULTS
 =======

  Reference energy                   -323.616866723255
  CCSD singlet pair energy             -0.770020818510
  CCSD triplet pair energy             -0.381205466953
  CCSD correlation energy              -1.151226285464

  Triples (T) contribution             -0.054015784348
  Total correlation energy             -1.205242069812

  CCSD total energy                  -324.768093008719
  CCSD[T] energy                     -324.823441115316
  CCSD-T energy                      -324.821503312621
 !CCSD(T) total energy               -324.822108793067

 Timing summary (sec):

 STEP                 CPU(USER)    SYS     CPU(TOT)    WALL
 Transformation         14.62      0.99     15.61     15.60
 CCSD iterations      1028.06     14.14   1042.20   1042.41
 Triples              1004.07     14.47   1018.54   1018.67

 Program statistics:

 Available memory in ccsd:               999998300
 Min. memory needed in ccsd:              17709720
 Max. memory used in ccsd:                24415330
 Max. memory used in cckext:              20754978 (22 integral passes)



 **********************************************************************************************************************************
 DATASETS  * FILE   NREC   LENGTH (MB)   RECORD NAMES
              1      20     2833.78       500      610      700      900      950      970     1000      129      960     1100   
                                          VAR    BASINP    GEOM    SYMINP    ZMAT    AOBASIS   BASIS     P2S    ABASIS      S 
                                         1400     1410     1200     1210     1080     1600     1650     1300     1700     1380   
                                           T        V       H0       H01     AOSYM     SMH    MOLCAS    ERIS     OPER     JKOP   

              2       3        1.49       700     1000     2100   
                                         GEOM     BASIS     RHF  

 PROGRAMS   *        TOTAL   CCSD(T)       RHF       INT
 CPU TIMES  *      2271.86   2046.76    209.31     15.74
 REAL TIME  *      2327.47 SEC
 DISK USED  *         7.98 GB      
 GA USED    *         0.01 MB       (max)       0.00 MB       (current)
 **********************************************************************************************************************************

        CCSD(T)         RHF-SCF 
   -324.82210879   -323.61686672
 **********************************************************************************************************************************
 Variable memory released
