
 Primary working directories    : /tmp/1049502.1782.gen4.q
 Secondary working directories  : /tmp/1049502.1782.gen4.q
 Wavefunction directory         : /home/vulcan/jj04645/wfu/
 Main file repository           : /tmp/1049502.1782.gen4.q/

 ARCHNAME  : Linux/x86_64
 FC        : /opt/intel/compilers_and_libraries_2016.1.150/linux/bin/intel64/ifort
 FCVERSION : 16.0.1
 BLASLIB   : -mkl
 id        : ccgc

 Nodes     nprocs
 n022         1
 ga_uses_ma=false, calling ma_init with nominal heap.
 GA-space will be limited to   8.0 MW (determined by -G option)

 Using customized tuning parameters: mindgm=10; mindgv=16; mindgc=4; mindgr=1; noblas=0; mincuda=1000; minvec=7
 default implementation of scratch files=df  

 ***,Optimization of neopentane
 memory,1000,m
 gthresh,energy=1.0d-12,orbital=1.0d-10,oneint=1.0d-16,twoint=1.0d-16,optgrad=1.0d-6,compress=1.0d-13
 geomtyp=xyz
 
 bohr
 geometry = {
  C   -0.0000000000    0.0000000000   -0.0000411824
  C    2.3654416407    0.0010346186   -1.6726611671
  C    0.0010346186   -2.3654416407    1.6725788023
  C   -0.0010346186    2.3654416407    1.6725788023
  C   -2.3654416407   -0.0010346186   -1.6726611671
  H    2.4154321245    1.6713030360   -2.8895689055
  H   -1.6744009516   -2.4022827314    2.8828343382
  H    1.6744009516    2.4022827314    2.8828343382
  H   -2.4154321245   -1.6713030360   -2.8895689055
  H    4.0793620405    0.0041454590   -0.5169677539
  H    0.0041352147   -4.0840658703    0.5238920637
  H   -0.0041352147    4.0840658703    0.5238920637
  H   -4.0793620405   -0.0041454590   -0.5169677539
  H    2.4047549342   -1.6719271990   -2.8862563635
  H    1.6737868966   -2.4129529744    2.8861695771
  H   -1.6737868966    2.4129529744    2.8861695771
  H   -2.4047549342    1.6719271990   -2.8862563635
 }
 
 basis=VDZ
 {rhf;maxit,200}
 {ccsd(t);maxit,200}

 Variables initialized (661), CPU time= 0.00 sec
 Commands  initialized (458), CPU time= 0.01 sec, 486 directives.
 Default parameters read. Elapsed time= 0.06 sec

 Checking input...
 Passed
1


                                         ***  PROGRAM SYSTEM MOLPRO  ***
                         Copyright, University College Cardiff Consultants Limited, 2008

                                    Version 2010.1 linked May 16 2016 07:17:05


 **********************************************************************************************************************************
 LABEL *   Optimization of neopentane                                                    
 Linux-4.4.3/n022(x86_64) 64 bit mpp version                                             DATE: 31-Mar-24          TIME: 03:14:22  
 **********************************************************************************************************************************

 SHA1:             9e8077add272b0f3cad6f7df79ec5211205f459d
 **********************************************************************************************************************************

 THRESHOLDS:

 ZERO    =  1.00D-12  ONEINT  =  1.00D-16  TWOINT  =  1.00D-16  PREFAC  =  1.00D-14  LOCALI  =  1.00D-09  EORDER  =  1.00D-04
 ENERGY  =  1.00D-12  ETEST   =  0.00D+00  EDENS   =  0.00D+00  THRDEDEF=  1.00D-06  GRADIENT=  1.00D-02  STEP    =  1.00D-03
 ORBITAL =  1.00D-10  CIVEC   =  1.00D-05  COEFF   =  1.00D-04  PRINTCI =  5.00D-02  PUNCHCI =  9.90D+01  OPTGRAD =  1.00D-06
 OPTENERG=  1.00D-06  OPTSTEP =  3.00D-04  THRGRAD =  1.00D-10  COMPRESS=  1.00D-13  VARMIN  =  1.00D-07  VARMAX  =  1.00D-03
 THRDOUB =  0.00D+00  THRDIV  =  1.00D-05  THRRED  =  1.00D-07  THRPSP  =  1.00D+00  THRDC   =  1.00D-10  THRCS   =  1.00D-10
 THRNRM  =  1.00D-08  THREQ   =  0.00D+00  THRDE   =  1.00D+00  THRREF  =  1.00D-05  SPARFAC =  1.00D+00  THRDLP  =  1.00D-07
 THRDIA  =  1.00D-10  THRDLS  =  1.00D-07  THRGPS  =  0.00D+00  THRKEX  =  0.00D+00  THRDIS  =  2.00D-01  THRVAR  =  1.00D-10
 THRLOC  =  1.00D-06  THRGAP  =  1.00D-06  THRLOCT = -1.00D+00  THRGAPT = -1.00D+00  THRORB  =  1.00D-06  THRMLTP =  0.00D+00
 THRCPQCI=  1.00D-10  KEXTA   =  0.00D+00  THRCOARS=  0.00D+00  SYMTOL  =  1.00D-06  GRADTOL =  1.00D-06  THROVL  =  1.00D-08
 THRORTH =  1.00D-08  GRID    =  1.00D-06  GRIDMAX =  1.00D-03  DTMAX   =  0.00D+00

 SETTING GEOMTYP        =    XYZ
 ZUNIT=BOHR
 

 Variable memory set to 1000000000 words,  buffer space   230000 words

 SETTING BASIS          =    VDZ


 Recomputing integrals since basis changed


 Using spherical harmonics

 Library entry C      S cc-pVDZ              selected for orbital group  1
 Library entry C      P cc-pVDZ              selected for orbital group  1
 Library entry C      D cc-pVDZ              selected for orbital group  1
 Library entry H      S cc-pVDZ              selected for orbital group  2
 Library entry H      P cc-pVDZ              selected for orbital group  2

1PROGRAM * SEWARD (Integral evaluation for generally contracted gaussian basis sets)     Author: Roland Lindh, 1990

 Geometry written to block  1 of record 700


 Point group  C2  



 ATOMIC COORDINATES

 NR  ATOM    CHARGE       X              Y              Z

   1  C       6.00    0.000000000    0.000000000   -0.000041182
   2  C       6.00    2.365441641    0.001034619   -1.672661167
   3  C       6.00   -2.365441641   -0.001034619   -1.672661167
   4  C       6.00    0.001034619   -2.365441641    1.672578802
   5  C       6.00   -0.001034619    2.365441641    1.672578802
   6  H       1.00    2.415432125    1.671303036   -2.889568906
   7  H       1.00   -2.415432125   -1.671303036   -2.889568906
   8  H       1.00   -1.674400952   -2.402282731    2.882834338
   9  H       1.00    1.674400952    2.402282731    2.882834338
  10  H       1.00    4.079362041    0.004145459   -0.516967754
  11  H       1.00   -4.079362041   -0.004145459   -0.516967754
  12  H       1.00    0.004135215   -4.084065870    0.523892064
  13  H       1.00   -0.004135215    4.084065870    0.523892064
  14  H       1.00    2.404754934   -1.671927199   -2.886256363
  15  H       1.00   -2.404754934    1.671927199   -2.886256363
  16  H       1.00    1.673786897   -2.412952974    2.886169577
  17  H       1.00   -1.673786897    2.412952974    2.886169577

 Bond lengths in Bohr (Angstrom)

 1-2  2.897062795  1-3  2.897062795  1-4  2.897062795  1-5  2.897062795  2-6  2.067162325
     ( 1.533059604)     ( 1.533059604)     ( 1.533059604)     ( 1.533059604)     ( 1.093895190)

  2-10  2.067162325   2-14  2.067162325   3- 7  2.067162325   3-11  2.067162325   3-15  2.067162325
       ( 1.093895190)       ( 1.093895190)       ( 1.093895190)       ( 1.093895190)       ( 1.093895190)

  4- 8  2.067162325   4-12  2.067162325   4-16  2.067162325   5- 9  2.067162325   5-13  2.067162325
       ( 1.093895190)       ( 1.093895190)       ( 1.093895190)       ( 1.093895190)       ( 1.093895190)

  5-17  2.067162325
       ( 1.093895190)

 Bond angles

  1- 2- 6  111.09476311   1- 2-10  110.74389833   1- 2-14  110.74389834   1- 3- 7  111.09476311

  1- 3-11  110.74389833   1- 3-15  110.74389834   1- 4- 8  110.62694308   1- 4-12  110.97780786

  1- 4-16  110.97780787   1- 5- 9  110.62694308   1- 5-13  110.97780786   1- 5-17  110.97780787

  2-1-3  109.47122063   2-1-4  109.47122064   2-1-5  109.47122064   3-1-4  109.47122064

  3- 1- 5  109.47122064   4- 1- 5  109.47122063   6- 2-10  107.92976948   6- 2-14  107.92976951

  7- 3-11  107.92976948   7- 3-15  107.92976951   8- 4-12  108.16367665   8- 4-16  108.16367667

  9- 5-13  108.16367665   9- 5-17  108.16367667  10- 2-14  108.28063073  11- 3-15  108.28063073

 12- 4-16  107.81281543  13- 5-17  107.81281543

 NUCLEAR CHARGE:                   42
 NUMBER OF PRIMITIVE AOS:         219
 NUMBER OF SYMMETRY AOS:          214
 NUMBER OF CONTRACTIONS:          130   (  66A   +  64B   )
 NUMBER OF CORE ORBITALS:           5   (   3A   +   2B   )
 NUMBER OF VALENCE ORBITALS:       32   (  16A   +  16B   )


 NUCLEAR REPULSION ENERGY  198.59911955


 Eigenvalues of metric

         1 0.280E-02 0.504E-02 0.171E-01 0.189E-01 0.237E-01 0.319E-01 0.337E-01 0.337E-01
         2 0.503E-02 0.504E-02 0.189E-01 0.189E-01 0.236E-01 0.237E-01 0.319E-01 0.319E-01


 Contracted 2-electron integrals neglected if value below      1.0D-16
 AO integral compression algorithm  1   Integral accuracy      1.0D-16

     166.199 MB (compressed) written to integral file ( 98.3%)

     Node minimum: 166.199 MB, node maximum: 166.199 MB


 NUMBER OF SORTED TWO-ELECTRON INTEGRALS:   18406246.     BUFFER LENGTH:  32768
 NUMBER OF SEGMENTS:   2  SEGMENT LENGTH:   15998467      RECORD LENGTH: 524288

 Memory used in sort:      16.56 MW

 SORT1 READ    21105840. AND WROTE    18337846. INTEGRALS IN     53 RECORDS. CPU TIME:     0.27 SEC, REAL TIME:     0.39 SEC
 SORT2 READ    18337846. AND WROTE    18406246. INTEGRALS IN    634 RECORDS. CPU TIME:     0.23 SEC, REAL TIME:     0.31 SEC

 FILE SIZES:   FILE 1:   150.1 MBYTE,  FILE 4:   222.3 MBYTE,   TOTAL:    372.4 MBYTE

 OPERATOR DM      FOR CENTER  0  COORDINATES:    0.000000    0.000000    0.000000


 **********************************************************************************************************************************
 DATASETS  * FILE   NREC   LENGTH (MB)   RECORD NAMES
              1      19      150.18       500      610      700      900      950      970     1000      129      960     1100   
                                          VAR    BASINP    GEOM    SYMINP    ZMAT    AOBASIS   BASIS     P2S    ABASIS      S 
                                         1400     1410     1200     1210     1080     1600     1650     1300     1700   
                                           T        V       H0       H01     AOSYM     SMH    MOLCAS    ERIS     OPER   

 PROGRAMS   *        TOTAL       INT
 CPU TIMES  *         3.77      3.71
 REAL TIME  *         4.23 SEC
 DISK USED  *       539.64 MB      
 GA USED    *         0.00 MB       (max)       0.00 MB       (current)
 **********************************************************************************************************************************

1PROGRAM * RHF-SCF (CLOSED SHELL)       Authors: W. Meyer, H.-J. Werner


 NUMBER OF ELECTRONS:      21+   21-
 CONVERGENCE THRESHOLDS:    1.00E-10 (Density)    1.00E-13 (Energy)
 MAX. NUMBER OF ITERATIONS:      200
 INTERPOLATION TYPE:            DIIS
 INTERPOLATION STEPS:              2 (START)      1 (STEP)
 LEVEL SHIFTS:                  0.00 (CLOSED)  0.00 (OPEN) 



 Orbital guess generated from atomic densities. Full valence occupancy:   19  18

 Molecular orbital dump at record        2100.2

 Initial alpha occupancy:  11  10
 Initial beta  occupancy:  11  10
 Wave function symmetry:    1

 ITERATION    DDIFF          GRAD             ENERGY        2-EL.EN.            DIPOLE MOMENTS         DIIS
    1      0.000D+00      0.000D+00      -196.27089183    527.677128    0.00000    0.00000   -0.00009    0
    2      0.000D+00      0.657D-02      -196.33875014    521.943746    0.00000    0.00000   -0.00068    1
    3      0.131D-01      0.249D-02      -196.34654047    524.513814    0.00000    0.00000   -0.00055    2
    4      0.488D-02      0.804D-03      -196.34768721    523.812482    0.00000    0.00000   -0.00054    3
    5      0.161D-02      0.166D-03      -196.34772180    523.878996    0.00000    0.00000   -0.00055    4
    6      0.279D-03      0.335D-04      -196.34772347    523.875238    0.00000    0.00000   -0.00054    5
    7      0.929D-04      0.319D-05      -196.34772350    523.875004    0.00000    0.00000   -0.00054    6
    8      0.965D-05      0.688D-06      -196.34772350    523.874962    0.00000    0.00000   -0.00054    6
    9      0.194D-05      0.993D-07      -196.34772350    523.874954    0.00000    0.00000   -0.00054    5
   10      0.343D-06      0.146D-07      -196.34772350    523.874963    0.00000    0.00000   -0.00054    5
   11      0.456D-07      0.539D-08      -196.34772350    523.874959    0.00000    0.00000   -0.00054    6
   12      0.101D-07      0.683D-09      -196.34772350    523.874960    0.00000    0.00000   -0.00054    6
   13      0.169D-08      0.887D-10      -196.34772350    523.874960    0.00000    0.00000   -0.00054    6
   14      0.260D-09      0.272D-10      -196.34772350    523.874960    0.00000    0.00000   -0.00054    6
   15      0.654D-10      0.818D-11      -196.34772350    523.874960    0.00000    0.00000   -0.00054    6
   16      0.210D-10      0.250D-11      -196.34772350    523.874960    0.00000    0.00000   -0.00054    6
   17      0.606D-11      0.753D-12      -196.34772350    523.874960    0.00000    0.00000   -0.00054    0

 Final occupancy:  11  10

 !RHF STATE 1.1 Energy               -196.347723496330
 Nuclear energy                       198.59911955
 One-electron energy                 -656.88432292
 Two-electron energy                  261.93747988
 Virial quotient                       -1.00118140
 !RHF STATE 1.1 Dipole moment           0.00000000     0.00000000    -0.00053845
 Dipole moment /Debye                   0.00000000     0.00000000    -0.00136851

 Orbital energies:

         1.1          2.1          3.1          4.1          5.1          6.1          7.1          8.1          9.1         10.1
    -11.230716   -11.214120   -11.214039    -1.103748    -0.927561    -0.728613    -0.609082    -0.550490    -0.550479    -0.507782

        11.1         12.1         13.1
     -0.450331     0.170677     0.231200

         1.2          2.2          3.2          4.2          5.2          6.2          7.2          8.2          9.2         10.2
    -11.214136   -11.214071    -0.927562    -0.927559    -0.609405    -0.608747    -0.507975    -0.507607    -0.450452    -0.450204

        11.2         12.2
      0.231145     0.231254


 **********************************************************************************************************************************
 DATASETS  * FILE   NREC   LENGTH (MB)   RECORD NAMES
              1      19      150.18       500      610      700      900      950      970     1000      129      960     1100   
                                          VAR    BASINP    GEOM    SYMINP    ZMAT    AOBASIS   BASIS     P2S    ABASIS      S 
                                         1400     1410     1200     1210     1080     1600     1650     1300     1700   
                                           T        V       H0       H01     AOSYM     SMH    MOLCAS    ERIS     OPER   

              2       3        0.72       700     1000     2100   
                                         GEOM     BASIS     RHF  

 PROGRAMS   *        TOTAL       RHF       INT
 CPU TIMES  *         5.42      1.65      3.71
 REAL TIME  *         6.15 SEC
 DISK USED  *       539.64 MB      
 GA USED    *         0.00 MB       (max)       0.00 MB       (current)
 **********************************************************************************************************************************


1PROGRAM * CCSD (Closed-shell coupled cluster)     Authors: C. Hampel, H.-J. Werner, 1991, M. Deegan, P.J. Knowles, 1992


 Convergence thresholds:  THRVAR = 1.00D-08  THRDEN = 1.00D-12

 CCSD(T)     terms to be evaluated (factor= 1.000)


 Number of core orbitals:           5 (   3   2 )
 Number of closed-shell orbitals:  16 (   8   8 )
 Number of external orbitals:     109 (  55  54 )

 Molecular orbitals read from record     2100.2  Type=RHF/CANONICAL (state 1.1)

 Number of N-1 electron functions:              16
 Number of N-2 electron functions:             136
 Number of singly external CSFs:               872
 Number of doubly external CSFs:            761256
 Total number of CSFs:                      762129

 Length of J-op  integral file:               0.00 MB
 Length of K-op  integral file:               0.62 MB
 Length of 3-ext integral record:             0.00 MB

 Memory could be reduced to 14.22 Mwords without degradation in triples

 Integral transformation finished. Total CPU:   0.86 sec, npass=  1  Memory used:   8.40 MW

 Reference energy:                   -196.34772350

 MP2 singlet pair energy:              -0.48845315
 MP2 triplet pair energy:              -0.25007804
 MP2 correlation energy:               -0.73853120
 MP2 total energy:                   -197.08625469

 SCS-MP2 correlation energy:           -0.74174790   (PS=  1.200000  PT=  0.333333)
 SCS-MP2 total energy:               -197.08947140

 ITER.      SQ.NORM     CORR.ENERGY   TOTAL ENERGY   ENERGY CHANGE        DEN1      VAR(S)    VAR(P)  DIIS     TIME
   1      1.28821656    -0.80655638  -197.15427988    -0.06802519    -0.04667760  0.17D-02  0.47D-02  1  1     2.49
   2      1.31153021    -0.81148985  -197.15921334    -0.00493347    -0.02353881  0.47D-04  0.32D-03  2  2     4.21
   3      1.31553997    -0.81163968  -197.15936317    -0.00014983    -0.00243484  0.53D-05  0.22D-04  3  3     5.92
   4      1.31658395    -0.81170196  -197.15942546    -0.00006228    -0.00046357  0.25D-06  0.12D-05  4  4     7.63
   5      1.31670985    -0.81170635  -197.15942985    -0.00000439    -0.00005124  0.15D-07  0.93D-07  5  5     9.34
   6      1.31672233    -0.81170393  -197.15942742     0.00000242    -0.00000847  0.68D-09  0.61D-08  6  6    11.05
   7      1.31672090    -0.81170421  -197.15942770    -0.00000028     0.00000063  0.16D-09  0.52D-09  6  1    12.77
   8      1.31672061    -0.81170435  -197.15942785    -0.00000015     0.00000027  0.78D-11  0.30D-10  6  2    14.49
   9      1.31672032    -0.81170440  -197.15942790    -0.00000005     0.00000025  0.11D-11  0.25D-11  6  3    16.21
  10      1.31672021    -0.81170441  -197.15942791    -0.00000001     0.00000009  0.89D-13  0.22D-12  6  4    17.93
  11      1.31672015    -0.81170441  -197.15942791    -0.00000000     0.00000004  0.94D-14  0.24D-13  6  5    19.65
  12      1.31672011    -0.81170441  -197.15942791    -0.00000000     0.00000002  0.90D-15  0.12D-14  6  1    21.37
  13      1.31672011    -0.81170441  -197.15942791    -0.00000000     0.00000000  0.79D-16  0.70D-16  6  6    23.10
  14      1.31672011    -0.81170441  -197.15942791    -0.00000000     0.00000000  0.15D-16  0.96D-17  6  2    24.83
  15      1.31672011    -0.81170441  -197.15942791    -0.00000000     0.00000000  0.13D-17  0.11D-17  6  3    26.55
  16      1.31672011    -0.81170441  -197.15942791     0.00000000    -0.00000000  0.69D-19  0.91D-19  6  4    28.26
  17      1.31672011    -0.81170441  -197.15942791     0.00000000    -0.00000000  0.34D-20  0.85D-20  6  5    29.98
  18      1.31672011    -0.81170441  -197.15942791     0.00000000    -0.00000000  0.38D-21  0.12D-20  6  1    31.70
  19      1.31672011    -0.81170441  -197.15942791     0.00000000    -0.00000000  0.29D-22  0.16D-21  6  6    33.42

 Norm of t1 vector:      0.05469737      S-energy:     0.00000000      T1 diagnostic:  0.00683717
                                                                       D1 diagnostic:  0.01260911


 Total CPU time for triples:     32.76 sec


 RESULTS
 =======

  Reference energy                   -196.347723496329
  CCSD singlet pair energy             -0.577587960802
  CCSD triplet pair energy             -0.234116452907
  CCSD correlation energy              -0.811704413709

  Triples (T) contribution             -0.023942446595
  Total correlation energy             -0.835646860304

  CCSD total energy                  -197.159427910039
  CCSD[T] energy                     -197.183829695863
  CCSD-T energy                      -197.183121695276
 !CCSD(T) total energy               -197.183370356634

 Timing summary (sec):

 STEP                 CPU(USER)    SYS     CPU(TOT)    WALL
 Transformation          0.89      0.11      1.00      1.00
 CCSD iterations        32.53      1.10     33.63     33.70
 Triples                32.76      0.86     33.62     33.63

 Program statistics:

 Available memory in ccsd:               999998876
 Min. memory needed in ccsd:               2001507
 Max. memory used in ccsd:                 2680419
 Max. memory used in cckext:               2701130 (19 integral passes)



 **********************************************************************************************************************************
 DATASETS  * FILE   NREC   LENGTH (MB)   RECORD NAMES
              1      20      206.53       500      610      700      900      950      970     1000      129      960     1100   
                                          VAR    BASINP    GEOM    SYMINP    ZMAT    AOBASIS   BASIS     P2S    ABASIS      S 
                                         1400     1410     1200     1210     1080     1600     1650     1300     1700     1380   
                                           T        V       H0       H01     AOSYM     SMH    MOLCAS    ERIS     OPER     JKOP   

              2       3        0.72       700     1000     2100   
                                         GEOM     BASIS     RHF  

 PROGRAMS   *        TOTAL   CCSD(T)       RHF       INT
 CPU TIMES  *        71.61     66.19      1.65      3.71
 REAL TIME  *        74.52 SEC
 DISK USED  *       539.64 MB      
 GA USED    *         0.00 MB       (max)       0.00 MB       (current)
 **********************************************************************************************************************************

        CCSD(T)         RHF-SCF 
   -197.18337036   -196.34772350
 **********************************************************************************************************************************
 Variable memory released
