
 Primary working directories    : /tmp/943448.122.gen6.q
 Secondary working directories  : /tmp/943448.122.gen6.q
 Wavefunction directory         : /home/vulcan/mel64643/wfu/
 Main file repository           : /tmp/943448.122.gen6.q/

 ARCHNAME  : Linux/x86_64
 FC        : /opt/intel/compilers_and_libraries_2016.1.150/linux/bin/intel64/ifort
 FCVERSION : 16.0.1
 BLASLIB   : -mkl
 id        : ccgc

 Nodes     nprocs
 n091         1
 ga_uses_ma=false, calling ma_init with nominal heap.
 GA-space will be limited to   8.0 MW (determined by -G option)

 Using customized tuning parameters: mindgm=10; mindgv=16; mindgc=4; mindgr=1; noblas=0; mincuda=1000; minvec=7
 default implementation of scratch files=df  

 ***,Optimization of nh3_nitrosmethane
 memory,1000,m
 gthresh,energy=1.0d-12,orbital=1.0d-10,oneint=1.0d-16,twoint=1.0d-16,optgrad=1.0d-6,compress=1.0d-13
 geomtyp=xyz
 
 bohr
 geometry = {
  N   -5.2220314200   -0.1867102871    0.0021400525
  H   -6.3044646478    0.2276790741   -1.5355000984
  H   -3.7581379999    1.0568913792   -0.0031853055
  H   -6.2885710190    0.2283764926    1.5330388491
  H   -0.9318333206   -2.4060252330   -0.0004471778
  H    1.8799439323   -3.4281310721   -1.6665155079
  H    1.8787926552   -3.4294844281    1.6667325494
  C    1.1289633516   -2.4674760967    0.0002396541
  N    2.2693360982    0.0959614938    0.0016743296
  O    0.7121208600    1.7859756864    0.0018226550
 }
 
 basis=aug-cc-pvdz
 {rhf;maxit,200}
 {ccsd(t);maxit,200}

 Variables initialized (661), CPU time= 0.00 sec
 Commands  initialized (458), CPU time= 0.00 sec, 486 directives.
 Default parameters read. Elapsed time= 0.05 sec

 Checking input...
 Passed
1


                                         ***  PROGRAM SYSTEM MOLPRO  ***
                         Copyright, University College Cardiff Consultants Limited, 2008

                                    Version 2010.1 linked May 16 2016 07:17:05


 **********************************************************************************************************************************
 LABEL *   Optimization of nh3_nitrosmethane                                             
 Linux-4.4.3/n091(x86_64) 64 bit mpp version                                             DATE: 26-Oct-23          TIME: 11:47:19  
 **********************************************************************************************************************************

 SHA1:             9e8077add272b0f3cad6f7df79ec5211205f459d
 **********************************************************************************************************************************

 THRESHOLDS:

 ZERO    =  1.00D-12  ONEINT  =  1.00D-16  TWOINT  =  1.00D-16  PREFAC  =  1.00D-14  LOCALI  =  1.00D-09  EORDER  =  1.00D-04
 ENERGY  =  1.00D-12  ETEST   =  0.00D+00  EDENS   =  0.00D+00  THRDEDEF=  1.00D-06  GRADIENT=  1.00D-02  STEP    =  1.00D-03
 ORBITAL =  1.00D-10  CIVEC   =  1.00D-05  COEFF   =  1.00D-04  PRINTCI =  5.00D-02  PUNCHCI =  9.90D+01  OPTGRAD =  1.00D-06
 OPTENERG=  1.00D-06  OPTSTEP =  3.00D-04  THRGRAD =  1.00D-10  COMPRESS=  1.00D-13  VARMIN  =  1.00D-07  VARMAX  =  1.00D-03
 THRDOUB =  0.00D+00  THRDIV  =  1.00D-05  THRRED  =  1.00D-07  THRPSP  =  1.00D+00  THRDC   =  1.00D-10  THRCS   =  1.00D-10
 THRNRM  =  1.00D-08  THREQ   =  0.00D+00  THRDE   =  1.00D+00  THRREF  =  1.00D-05  SPARFAC =  1.00D+00  THRDLP  =  1.00D-07
 THRDIA  =  1.00D-10  THRDLS  =  1.00D-07  THRGPS  =  0.00D+00  THRKEX  =  0.00D+00  THRDIS  =  2.00D-01  THRVAR  =  1.00D-10
 THRLOC  =  1.00D-06  THRGAP  =  1.00D-06  THRLOCT = -1.00D+00  THRGAPT = -1.00D+00  THRORB  =  1.00D-06  THRMLTP =  0.00D+00
 THRCPQCI=  1.00D-10  KEXTA   =  0.00D+00  THRCOARS=  0.00D+00  SYMTOL  =  1.00D-06  GRADTOL =  1.00D-06  THROVL  =  1.00D-08
 THRORTH =  1.00D-08  GRID    =  1.00D-06  GRIDMAX =  1.00D-03  DTMAX   =  0.00D+00

 SETTING GEOMTYP        =    XYZ
 ZUNIT=BOHR
 

 Variable memory set to 1000000000 words,  buffer space   230000 words

 SETTING BASIS          =    AUG-CC-PVDZ


 Recomputing integrals since basis changed


 Using spherical harmonics

 Library entry N      S aug-cc-pVDZ          selected for orbital group  1
 Library entry N      P aug-cc-pVDZ          selected for orbital group  1
 Library entry N      D aug-cc-pVDZ          selected for orbital group  1
 Library entry H      S aug-cc-pVDZ          selected for orbital group  2
 Library entry H      P aug-cc-pVDZ          selected for orbital group  2
 Library entry C      S aug-cc-pVDZ          selected for orbital group  3
 Library entry C      P aug-cc-pVDZ          selected for orbital group  3
 Library entry C      D aug-cc-pVDZ          selected for orbital group  3
 Library entry O      S aug-cc-pVDZ          selected for orbital group  5
 Library entry O      P aug-cc-pVDZ          selected for orbital group  5
 Library entry O      D aug-cc-pVDZ          selected for orbital group  5

1PROGRAM * SEWARD (Integral evaluation for generally contracted gaussian basis sets)     Author: Roland Lindh, 1990

 Geometry written to block  1 of record 700


 Point group  C1  



 ATOMIC COORDINATES

 NR  ATOM    CHARGE       X              Y              Z

   1  N       7.00   -5.222031420   -0.186710287    0.002140053
   2  H       1.00   -6.304464648    0.227679074   -1.535500098
   3  H       1.00   -3.758138000    1.056891379   -0.003185305
   4  H       1.00   -6.288571019    0.228376493    1.533038849
   5  H       1.00   -0.931833321   -2.406025233   -0.000447178
   6  H       1.00    1.879943932   -3.428131072   -1.666515508
   7  H       1.00    1.878792655   -3.429484428    1.666732549
   8  C       6.00    1.128963352   -2.467476097    0.000239654
   9  N       7.00    2.269336098    0.095961494    0.001674330
  10  O       8.00    0.712120860    1.785975686    0.001822655

 Bond lengths in Bohr (Angstrom)

 1-2  1.925543422  1-3  1.920822066  1-4  1.911401286  5-8  2.061712784  6-8  2.065164058
     ( 1.018953694)     ( 1.016455260)     ( 1.011469998)     ( 1.091011417)     ( 1.092837752)

  7- 8  2.065164057   8- 9  2.805648649   9-10  2.298057286
       ( 1.092837752)       ( 1.484685321)       ( 1.216079541)

 Bond angles

  2-1-3  106.67095378   2-1-4  106.21107417   3-1-4  106.67095379   5-8-6  112.15270614

  5-8-7  112.15270611   5-8-9  112.27441393   6-8-7  107.61116520   6-8-9  106.11828862

  7- 8- 9  106.11828861   8- 9-10  113.35946296

 NUCLEAR CHARGE:                   34
 NUMBER OF PRIMITIVE AOS:         214
 NUMBER OF SYMMETRY AOS:          206
 NUMBER OF CONTRACTIONS:          146   ( 146A   )
 NUMBER OF CORE ORBITALS:           4   (   4A   )
 NUMBER OF VALENCE ORBITALS:       22   (  22A   )


 NUCLEAR REPULSION ENERGY  117.38042449


 Eigenvalues of metric

         1 0.325E-03 0.516E-03 0.621E-03 0.673E-03 0.106E-02 0.118E-02 0.126E-02 0.186E-02


 Contracted 2-electron integrals neglected if value below      1.0D-16
 AO integral compression algorithm  1   Integral accuracy      1.0D-16

     486.539 MB (compressed) written to integral file ( 90.8%)

     Node minimum: 486.539 MB, node maximum: 486.539 MB


 NUMBER OF SORTED TWO-ELECTRON INTEGRALS:   57582546.     BUFFER LENGTH:  32768
 NUMBER OF SEGMENTS:   4  SEGMENT LENGTH:   15999503      RECORD LENGTH: 524288

 Memory used in sort:      16.56 MW

 SORT1 READ    67015859. AND WROTE    57254401. INTEGRALS IN    166 RECORDS. CPU TIME:     0.58 SEC, REAL TIME:     0.93 SEC
 SORT2 READ    57254401. AND WROTE    57582546. INTEGRALS IN   1856 RECORDS. CPU TIME:     0.43 SEC, REAL TIME:     0.65 SEC

 FILE SIZES:   FILE 1:   428.1 MBYTE,  FILE 4:   696.3 MBYTE,   TOTAL:   1124.3 MBYTE

 OPERATOR DM      FOR CENTER  0  COORDINATES:    0.000000    0.000000    0.000000


 **********************************************************************************************************************************
 DATASETS  * FILE   NREC   LENGTH (MB)   RECORD NAMES
              1      19      428.32       500      610      700      900      950      970     1000      129      960     1100   
                                          VAR    BASINP    GEOM    SYMINP    ZMAT    AOBASIS   BASIS     P2S    ABASIS      S 
                                         1400     1410     1200     1210     1080     1600     1650     1300     1700   
                                           T        V       H0       H01     AOSYM     SMH    MOLCAS    ERIS     OPER   

 PROGRAMS   *        TOTAL       INT
 CPU TIMES  *         2.98      2.95
 REAL TIME  *         3.95 SEC
 DISK USED  *         1.61 GB      
 GA USED    *         0.00 MB       (max)       0.00 MB       (current)
 **********************************************************************************************************************************

1PROGRAM * RHF-SCF (CLOSED SHELL)       Authors: W. Meyer, H.-J. Werner


 NUMBER OF ELECTRONS:      17+   17-    SPACE SYMMETRY=1    SPIN SYMMETRY: Singlet 
 CONVERGENCE THRESHOLDS:    1.00E-10 (Density)    1.00E-13 (Energy)
 MAX. NUMBER OF ITERATIONS:      200
 INTERPOLATION TYPE:            DIIS
 INTERPOLATION STEPS:              2 (START)      1 (STEP)
 LEVEL SHIFTS:                  0.00 (CLOSED)  0.00 (OPEN) 



 Orbital guess generated from atomic densities. Full valence occupancy:   26

 Molecular orbital dump at record        2100.2

 ITERATION    DDIFF          GRAD             ENERGY        2-EL.EN.            DIPOLE MOMENTS         DIIS
    1      0.000D+00      0.000D+00      -224.96608697    393.072927    0.06699   -0.58063   -0.00587    0
    2      0.000D+00      0.594D-02      -225.02687691    392.691000   -0.58286   -0.38347   -0.00077    1
    3      0.111D-01      0.416D-02      -225.06085924    393.241800   -0.23856   -0.56267   -0.00142    2
    4      0.481D-02      0.829D-03      -225.06312001    393.077157   -0.31622   -0.46495   -0.00127    3
    5      0.121D-02      0.329D-03      -225.06354440    393.088707   -0.31396   -0.49471   -0.00102    4
    6      0.540D-03      0.799D-04      -225.06358734    393.116170   -0.31939   -0.49176   -0.00100    5
    7      0.180D-03      0.305D-04      -225.06359346    393.099974   -0.32102   -0.49180   -0.00098    6
    8      0.749D-04      0.124D-04      -225.06359446    393.106442   -0.32203   -0.49170   -0.00099    7
    9      0.285D-04      0.531D-05      -225.06359468    393.105309   -0.32231   -0.49140   -0.00099    8
   10      0.160D-04      0.163D-05      -225.06359470    393.105017   -0.32239   -0.49122   -0.00099    8
   11      0.483D-05      0.547D-06      -225.06359470    393.105124   -0.32241   -0.49113   -0.00099    8
   12      0.162D-05      0.167D-06      -225.06359470    393.105087   -0.32241   -0.49111   -0.00099    8
   13      0.580D-06      0.524D-07      -225.06359470    393.105081   -0.32241   -0.49110   -0.00099    8
   14      0.145D-06      0.265D-07      -225.06359470    393.105083   -0.32241   -0.49110   -0.00099    9
   15      0.651D-07      0.253D-08      -225.06359470    393.105083   -0.32241   -0.49110   -0.00099    8
   16      0.625D-08      0.716D-09      -225.06359470    393.105083   -0.32241   -0.49110   -0.00099    7
   17      0.216D-08      0.176D-09      -225.06359470    393.105083   -0.32241   -0.49110   -0.00099    7
   18      0.459D-09      0.932D-10      -225.06359470    393.105083   -0.32241   -0.49110   -0.00099    7
   19      0.231D-09      0.653D-10      -225.06359470    393.105083   -0.32241   -0.49110   -0.00099    7
   20      0.252D-09      0.442D-10      -225.06359470    393.105083   -0.32241   -0.49110   -0.00099    7
   21      0.372D-09      0.162D-10      -225.06359470    393.105083   -0.32241   -0.49110   -0.00099    7
   22      0.159D-09      0.553D-11      -225.06359470    393.105083   -0.32241   -0.49110   -0.00099    8
   23      0.199D-10      0.140D-11      -225.06359470    393.105083   -0.32241   -0.49110   -0.00099    9
   24      0.694D-11      0.385D-12      -225.06359470    393.105083   -0.32241   -0.49110   -0.00099    9
   25      0.207D-11      0.195D-12      -225.06359470    393.105083   -0.32241   -0.49110   -0.00099    9
   26      0.121D-11      0.843D-13      -225.06359470    393.105083   -0.32241   -0.49110   -0.00099    9
   27      0.130D-11      0.676D-13      -225.06359470    393.105083   -0.32241   -0.49110   -0.00099    9
   28      0.718D-12      0.655D-13      -225.06359470    393.105083   -0.32241   -0.49110   -0.00099    9
   29      0.538D-12      0.428D-13      -225.06359470    393.105083   -0.32241   -0.49110   -0.00099    9
   30      0.394D-12      0.711D-13      -225.06359470    393.105083   -0.32241   -0.49110   -0.00099    0

 Final occupancy:  17

 !RHF STATE 1.1 Energy               -225.063594702843
 Nuclear energy                       117.38042449
 One-electron energy                 -538.99656092
 Two-electron energy                  196.55254172
 Virial quotient                       -1.00217528
 !RHF STATE 1.1 Dipole moment          -0.32241273    -0.49110224    -0.00098738
 Dipole moment /Debye                  -0.81943774    -1.24817563    -0.00250950

 Orbital energies:

         1.1          2.1          3.1          4.1          5.1          6.1          7.1          8.1          9.1         10.1
    -20.640382   -15.714956   -15.548722   -11.270821    -1.515021    -1.140544    -1.076208    -0.862321    -0.691126    -0.676169

        11.1         12.1         13.1         14.1         15.1         16.1         17.1         18.1         19.1
     -0.636368    -0.625039    -0.623216    -0.555641    -0.534366    -0.428597    -0.406242     0.034985     0.046242


 **********************************************************************************************************************************
 DATASETS  * FILE   NREC   LENGTH (MB)   RECORD NAMES
              1      19      428.32       500      610      700      900      950      970     1000      129      960     1100   
                                          VAR    BASINP    GEOM    SYMINP    ZMAT    AOBASIS   BASIS     P2S    ABASIS      S 
                                         1400     1410     1200     1210     1080     1600     1650     1300     1700   
                                           T        V       H0       H01     AOSYM     SMH    MOLCAS    ERIS     OPER   

              2       3        0.86       700     1000     2100   
                                         GEOM     BASIS     RHF  

 PROGRAMS   *        TOTAL       RHF       INT
 CPU TIMES  *        13.83     10.85      2.95
 REAL TIME  *        15.97 SEC
 DISK USED  *         1.61 GB      
 GA USED    *         0.00 MB       (max)       0.00 MB       (current)
 **********************************************************************************************************************************


1PROGRAM * CCSD (Closed-shell coupled cluster)     Authors: C. Hampel, H.-J. Werner, 1991, M. Deegan, P.J. Knowles, 1992


 Convergence thresholds:  THRVAR = 1.00D-08  THRDEN = 1.00D-12

 CCSD(T)     terms to be evaluated (factor= 1.000)


 Number of core orbitals:           4 (   4 )
 Number of closed-shell orbitals:  13 (  13 )
 Number of external orbitals:     129 ( 129 )

 Molecular orbitals read from record     2100.2  Type=RHF/CANONICAL (state 1.1)

 Number of N-1 electron functions:              13
 Number of N-2 electron functions:              91
 Number of singly external CSFs:              1677
 Number of doubly external CSFs:           1407003
 Total number of CSFs:                     1408681

 Length of J-op  integral file:               0.00 MB
 Length of K-op  integral file:               1.50 MB
 Length of 3-ext integral record:             0.00 MB

 Memory could be reduced to 37.23 Mwords without degradation in triples

 Integral transformation finished. Total CPU:   1.95 sec, npass=  1  Memory used:  25.63 MW

 Reference energy:                   -225.06359470

 MP2 singlet pair energy:              -0.45131932
 MP2 triplet pair energy:              -0.26574358
 MP2 correlation energy:               -0.71706290
 MP2 total energy:                   -225.78065761

 SCS-MP2 correlation energy:           -0.70693475   (PS=  1.200000  PT=  0.333333)
 SCS-MP2 total energy:               -225.77052945

 ITER.      SQ.NORM     CORR.ENERGY   TOTAL ENERGY   ENERGY CHANGE        DEN1      VAR(S)    VAR(P)  DIIS     TIME
   1      1.24223419    -0.75080519  -225.81439989    -0.03374229    -0.00983755  0.53D-02  0.49D-02  1  1     6.01
   2      1.26409927    -0.75386301  -225.81745771    -0.00305782    -0.02116329  0.17D-03  0.87D-03  2  2    10.12
   3      1.27420336    -0.75457085  -225.81816555    -0.00070784    -0.00465132  0.12D-03  0.62D-04  3  3    14.23
   4      1.27838836    -0.75453520  -225.81812990     0.00003565    -0.00138409  0.11D-04  0.11D-04  4  4    18.34
   5      1.28006513    -0.75455320  -225.81814790    -0.00001800    -0.00036549  0.20D-05  0.17D-05  5  5    22.46
   6      1.28053204    -0.75452284  -225.81811754     0.00003036    -0.00005593  0.17D-06  0.34D-06  6  6    26.58
   7      1.28063726    -0.75451940  -225.81811410     0.00000344    -0.00000442  0.37D-07  0.91D-07  6  2    30.68
   8      1.28066426    -0.75452020  -225.81811491    -0.00000080    -0.00000065  0.52D-08  0.22D-07  6  1    34.80
   9      1.28067046    -0.75451955  -225.81811425     0.00000066     0.00000234  0.20D-08  0.33D-08  6  3    38.91
  10      1.28066510    -0.75452051  -225.81811521    -0.00000096     0.00000152  0.46D-09  0.63D-09  6  5    43.03
  11      1.28066450    -0.75452069  -225.81811539    -0.00000018     0.00000058  0.14D-09  0.68D-10  6  4    47.17
  12      1.28066353    -0.75452073  -225.81811544    -0.00000004     0.00000018  0.39D-10  0.13D-10  6  6    51.29
  13      1.28066288    -0.75452078  -225.81811549    -0.00000005     0.00000007  0.88D-11  0.34D-11  6  2    55.40
  14      1.28066238    -0.75452079  -225.81811549    -0.00000001     0.00000007  0.23D-11  0.77D-12  6  1    59.53
  15      1.28066208    -0.75452080  -225.81811550    -0.00000001     0.00000005  0.29D-12  0.20D-12  6  5    63.65
  16      1.28066192    -0.75452081  -225.81811551    -0.00000001     0.00000003  0.34D-13  0.29D-13  6  3    67.78
  17      1.28066188    -0.75452081  -225.81811551    -0.00000000     0.00000001  0.75D-14  0.69D-14  6  4    71.91
  18      1.28066187    -0.75452081  -225.81811551    -0.00000000     0.00000000  0.21D-14  0.22D-14  6  6    76.03
  19      1.28066186    -0.75452081  -225.81811551     0.00000000     0.00000000  0.72D-15  0.39D-15  6  2    80.15
  20      1.28066186    -0.75452081  -225.81811551     0.00000000     0.00000000  0.46D-15  0.92D-16  6  1    84.26
  21      1.28066186    -0.75452081  -225.81811551    -0.00000000     0.00000000  0.31D-15  0.37D-16  6  5    88.38
  22      1.28066186    -0.75452081  -225.81811551     0.00000000    -0.00000000  0.20D-15  0.24D-16  6  3    92.51
  23      1.28066186    -0.75452081  -225.81811551     0.00000000    -0.00000000  0.87D-16  0.16D-16  6  4    96.62
  24      1.28066186    -0.75452081  -225.81811551     0.00000000    -0.00000000  0.17D-16  0.69D-17  6  6   100.74
  25      1.28066186    -0.75452081  -225.81811551     0.00000000    -0.00000000  0.23D-17  0.18D-17  6  2   104.85
  26      1.28066186    -0.75452081  -225.81811551    -0.00000000     0.00000000  0.40D-18  0.44D-18  6  1   108.97
  27      1.28066186    -0.75452081  -225.81811551     0.00000000    -0.00000000  0.14D-18  0.11D-18  6  5   113.09
  28      1.28066186    -0.75452081  -225.81811551    -0.00000000    -0.00000000  0.26D-19  0.22D-19  6  6   117.21

 Norm of t1 vector:      0.11182730      S-energy:     0.00000000      T1 diagnostic:  0.01550766
                                                                       D1 diagnostic:  0.04952686

 Doubles amplitudes (print threshold =  0.500E-01):

         I         J         SYM. A    SYM. B    A         B      T(IJ, AB)

         7         7         1         1         7         7     -0.05232894
        11         7         1         1         7         7     -0.05295159
        11        11         1         1         7         7     -0.07520893


 Total CPU time for triples:     65.09 sec


 RESULTS
 =======

  Reference energy                   -225.063594702843
  CCSD singlet pair energy             -0.519388591889
  CCSD triplet pair energy             -0.235132219033
  CCSD correlation energy              -0.754520810921

  Triples (T) contribution             -0.026869202760
  Total correlation energy             -0.781390013681

  CCSD total energy                  -225.818115513763
  CCSD[T] energy                     -225.846613991587
  CCSD-T energy                      -225.844473963542
 !CCSD(T) total energy               -225.844984716524

 Timing summary (sec):

 STEP                 CPU(USER)    SYS     CPU(TOT)    WALL
 Transformation          2.01      0.20      2.21      2.22
 CCSD iterations       115.20      3.16    118.36    119.31
 Triples                65.09      1.24     66.33     66.33

 Program statistics:

 Available memory in ccsd:               999999224
 Min. memory needed in ccsd:               3720021
 Max. memory used in ccsd:                 4957023
 Max. memory used in cckext:               4136268 (28 integral passes)



 **********************************************************************************************************************************
 DATASETS  * FILE   NREC   LENGTH (MB)   RECORD NAMES
              1      20      564.60       500      610      700      900      950      970     1000      129      960     1100   
                                          VAR    BASINP    GEOM    SYMINP    ZMAT    AOBASIS   BASIS     P2S    ABASIS      S 
                                         1400     1410     1200     1210     1080     1600     1650     1300     1700     1380   
                                           T        V       H0       H01     AOSYM     SMH    MOLCAS    ERIS     OPER     JKOP   

              2       3        0.86       700     1000     2100   
                                         GEOM     BASIS     RHF  

 PROGRAMS   *        TOTAL   CCSD(T)       RHF       INT
 CPU TIMES  *       196.14    182.31     10.85      2.95
 REAL TIME  *       203.88 SEC
 DISK USED  *         1.61 GB      
 GA USED    *         0.00 MB       (max)       0.00 MB       (current)
 **********************************************************************************************************************************

        CCSD(T)         RHF-SCF 
   -225.84498472   -225.06359470
 **********************************************************************************************************************************
 Variable memory released
