
 Primary working directories    : /tmp/662446.188.gen6.q
 Secondary working directories  : /tmp/662446.188.gen6.q
 Wavefunction directory         : /home/vulcan/mel64643/wfu/
 Main file repository           : /tmp/662446.188.gen6.q/

 ARCHNAME  : Linux/x86_64
 FC        : /opt/intel/compilers_and_libraries_2016.1.150/linux/bin/intel64/ifort
 FCVERSION : 16.0.1
 BLASLIB   : -mkl
 id        : ccgc

 Nodes     nprocs
 n086         1
 ga_uses_ma=false, calling ma_init with nominal heap.
 GA-space will be limited to   8.0 MW (determined by -G option)

 Using customized tuning parameters: mindgm=10; mindgv=16; mindgc=4; mindgr=1; noblas=0; mincuda=1000; minvec=7
 default implementation of scratch files=df  

 ***,Optimization of min3
 memory,1000,m
 gthresh,energy=1.0d-12,orbital=1.0d-10,oneint=1.0d-16,twoint=1.0d-16,optgrad=1.0d-6,compress=1.0d-13
 geomtyp=xyz
 
 
 
  bohr
  geometry = {
  C    0.0011788361   -0.0003858149    1.6742010251
  H    0.0008256670   -1.7265396145    2.7894326339
  H    0.0007929412    1.7263050590    2.7888830785
  C    1.2291771520    0.0007594482   -0.8999818052
  C   -1.2291600893    0.0007601717   -0.9189248454
  H    2.9858052335   -0.0004533473   -1.9295928390
  H   -2.9886197405   -0.0004459021   -1.9257811780
 }
 
 basis=cc-pvdz
 {rhf;maxit,200}
 {ccsd(t);maxit,200}

 Variables initialized (661), CPU time= 0.01 sec
 Commands  initialized (458), CPU time= 0.00 sec, 486 directives.
 Default parameters read. Elapsed time= 0.05 sec

 Checking input...
 Passed
1


                                         ***  PROGRAM SYSTEM MOLPRO  ***
                         Copyright, University College Cardiff Consultants Limited, 2008

                                    Version 2010.1 linked May 16 2016 07:17:05


 **********************************************************************************************************************************
 LABEL *   Optimization of min3                                                          
 Linux-4.4.3/n086(x86_64) 64 bit mpp version                                             DATE: 18-Mar-22          TIME: 17:56:16  
 **********************************************************************************************************************************

 SHA1:             9e8077add272b0f3cad6f7df79ec5211205f459d
 **********************************************************************************************************************************

 THRESHOLDS:

 ZERO    =  1.00D-12  ONEINT  =  1.00D-16  TWOINT  =  1.00D-16  PREFAC  =  1.00D-14  LOCALI  =  1.00D-09  EORDER  =  1.00D-04
 ENERGY  =  1.00D-12  ETEST   =  0.00D+00  EDENS   =  0.00D+00  THRDEDEF=  1.00D-06  GRADIENT=  1.00D-02  STEP    =  1.00D-03
 ORBITAL =  1.00D-10  CIVEC   =  1.00D-05  COEFF   =  1.00D-04  PRINTCI =  5.00D-02  PUNCHCI =  9.90D+01  OPTGRAD =  1.00D-06
 OPTENERG=  1.00D-06  OPTSTEP =  3.00D-04  THRGRAD =  1.00D-10  COMPRESS=  1.00D-13  VARMIN  =  1.00D-07  VARMAX  =  1.00D-03
 THRDOUB =  0.00D+00  THRDIV  =  1.00D-05  THRRED  =  1.00D-07  THRPSP  =  1.00D+00  THRDC   =  1.00D-10  THRCS   =  1.00D-10
 THRNRM  =  1.00D-08  THREQ   =  0.00D+00  THRDE   =  1.00D+00  THRREF  =  1.00D-05  SPARFAC =  1.00D+00  THRDLP  =  1.00D-07
 THRDIA  =  1.00D-10  THRDLS  =  1.00D-07  THRGPS  =  0.00D+00  THRKEX  =  0.00D+00  THRDIS  =  2.00D-01  THRVAR  =  1.00D-10
 THRLOC  =  1.00D-06  THRGAP  =  1.00D-06  THRLOCT = -1.00D+00  THRGAPT = -1.00D+00  THRORB  =  1.00D-06  THRMLTP =  0.00D+00
 THRCPQCI=  1.00D-10  KEXTA   =  0.00D+00  THRCOARS=  0.00D+00  SYMTOL  =  1.00D-06  GRADTOL =  1.00D-06  THROVL  =  1.00D-08
 THRORTH =  1.00D-08  GRID    =  1.00D-06  GRIDMAX =  1.00D-03  DTMAX   =  0.00D+00

 SETTING GEOMTYP        =    XYZ
 ZUNIT=BOHR
 

 Variable memory set to 1000000000 words,  buffer space   230000 words

 SETTING BASIS          =    CC-PVDZ


 Recomputing integrals since basis changed


 Using spherical harmonics

 Library entry C      S cc-pVDZ              selected for orbital group  1
 Library entry C      P cc-pVDZ              selected for orbital group  1
 Library entry C      D cc-pVDZ              selected for orbital group  1
 Library entry H      S cc-pVDZ              selected for orbital group  2
 Library entry H      P cc-pVDZ              selected for orbital group  2

1PROGRAM * SEWARD (Integral evaluation for generally contracted gaussian basis sets)     Author: Roland Lindh, 1990

 Geometry written to block  1 of record 700


 Point group  C1  



 ATOMIC COORDINATES

 NR  ATOM    CHARGE       X              Y              Z

   1  C       6.00    0.001178836   -0.000385815    1.674201025
   2  H       1.00    0.000825667   -1.726539615    2.789432634
   3  H       1.00    0.000792941    1.726305059    2.788883079
   4  C       6.00    1.229177152    0.000759448   -0.899981805
   5  C       6.00   -1.229160089    0.000760172   -0.918924845
   6  H       1.00    2.985805233   -0.000453347   -1.929592839
   7  H       1.00   -2.988619740   -0.000445902   -1.925781178

 Bond lengths in Bohr (Angstrom)

 1-2  2.055078735  1-3  2.055231764  1-4  2.852086678  1-5  2.870198071  4-5  2.458410224
     ( 1.087500829)     ( 1.087581809)     ( 1.509259268)     ( 1.518843404)     ( 1.300934661)

 4-6  2.036134222  5-7  2.027180158
     ( 1.077475825)     ( 1.072737538)

 Bond angles

  1-4-5   64.93830071   1-4-6  145.87895989   1-5-4   64.17596220   1-5-7  145.16298777

  2-1-3  114.28968883   2-1-4  119.35406075   2-1-5  119.37650071   3-1-4  119.29191979

  3-1-5  119.31368139   4-1-5   50.88573709   4-5-7  150.66098922   5-4-6  149.18267830

 NUCLEAR CHARGE:                   22
 NUMBER OF PRIMITIVE AOS:         109
 NUMBER OF SYMMETRY AOS:          106
 NUMBER OF CONTRACTIONS:           62   (  62A   )
 NUMBER OF CORE ORBITALS:           3   (   3A   )
 NUMBER OF VALENCE ORBITALS:       16   (  16A   )


 NUCLEAR REPULSION ENERGY   63.65670758


 Eigenvalues of metric

         1 0.171E-02 0.414E-02 0.174E-01 0.194E-01 0.238E-01 0.255E-01 0.334E-01 0.367E-01


 Contracted 2-electron integrals neglected if value below      1.0D-16
 AO integral compression algorithm  1   Integral accuracy      1.0D-16

     18.088 MB (compressed) written to integral file ( 98.6%)

     Node minimum: 18.088 MB, node maximum: 18.088 MB


 NUMBER OF SORTED TWO-ELECTRON INTEGRALS:    1908081.     BUFFER LENGTH:  32768
 NUMBER OF SEGMENTS:   1  SEGMENT LENGTH:    1908081      RECORD LENGTH: 524288

 Memory used in sort:       2.47 MW

 SORT1 READ     2265018. AND WROTE     1893313. INTEGRALS IN      6 RECORDS. CPU TIME:     0.02 SEC, REAL TIME:     0.04 SEC
 SORT2 READ     1893313. AND WROTE     1908081. INTEGRALS IN     69 RECORDS. CPU TIME:     0.03 SEC, REAL TIME:     0.04 SEC

 FILE SIZES:   FILE 1:    17.9 MBYTE,  FILE 4:    25.2 MBYTE,   TOTAL:     43.1 MBYTE

 OPERATOR DM      FOR CENTER  0  COORDINATES:    0.000000    0.000000    0.000000


 **********************************************************************************************************************************
 DATASETS  * FILE   NREC   LENGTH (MB)   RECORD NAMES
              1      19       18.00       500      610      700      900      950      970     1000      129      960     1100   
                                          VAR    BASINP    GEOM    SYMINP    ZMAT    AOBASIS   BASIS     P2S    ABASIS      S 
                                         1400     1410     1200     1210     1080     1600     1650     1300     1700   
                                           T        V       H0       H01     AOSYM     SMH    MOLCAS    ERIS     OPER   

 PROGRAMS   *        TOTAL       INT
 CPU TIMES  *         0.31      0.27
 REAL TIME  *         0.54 SEC
 DISK USED  *        61.90 MB      
 GA USED    *         0.00 MB       (max)       0.00 MB       (current)
 **********************************************************************************************************************************

1PROGRAM * RHF-SCF (CLOSED SHELL)       Authors: W. Meyer, H.-J. Werner


 NUMBER OF ELECTRONS:      11+   11-    SPACE SYMMETRY=1    SPIN SYMMETRY: Singlet 
 CONVERGENCE THRESHOLDS:    1.00E-10 (Density)    1.00E-13 (Energy)
 MAX. NUMBER OF ITERATIONS:      200
 INTERPOLATION TYPE:            DIIS
 INTERPOLATION STEPS:              2 (START)      1 (STEP)
 LEVEL SHIFTS:                  0.00 (CLOSED)  0.00 (OPEN) 



 Orbital guess generated from atomic densities. Full valence occupancy:   19

 Molecular orbital dump at record        2100.2

 ITERATION    DDIFF          GRAD             ENERGY        2-EL.EN.            DIPOLE MOMENTS         DIIS
    1      0.000D+00      0.000D+00      -115.81230839    203.558554   -0.00160   -0.00043   -0.29791    0
    2      0.000D+00      0.507D-02      -115.83043392    202.454187    0.00095   -0.00059   -0.20183    1
    3      0.105D-01      0.159D-02      -115.83206051    203.070529   -0.00163   -0.00059   -0.22259    2
    4      0.349D-02      0.598D-03      -115.83231614    202.896674   -0.00033   -0.00062   -0.19864    3
    5      0.111D-02      0.900D-04      -115.83232500    202.899460   -0.00132   -0.00062   -0.19879    4
    6      0.273D-03      0.246D-04      -115.83232572    202.903494   -0.00072   -0.00062   -0.19686    5
    7      0.707D-04      0.907D-05      -115.83232580    202.902244   -0.00108   -0.00062   -0.19673    6
    8      0.237D-04      0.215D-05      -115.83232581    202.902214   -0.00093   -0.00062   -0.19665    7
    9      0.613D-05      0.855D-06      -115.83232581    202.902275   -0.00101   -0.00062   -0.19662    7
   10      0.159D-05      0.210D-06      -115.83232581    202.902268   -0.00100   -0.00062   -0.19661    7
   11      0.537D-06      0.410D-07      -115.83232581    202.902268   -0.00100   -0.00062   -0.19661    7
   12      0.167D-06      0.151D-07      -115.83232581    202.902270   -0.00100   -0.00062   -0.19661    7
   13      0.485D-07      0.616D-08      -115.83232581    202.902269   -0.00100   -0.00062   -0.19661    7
   14      0.199D-07      0.227D-08      -115.83232581    202.902269   -0.00100   -0.00062   -0.19661    7
   15      0.829D-08      0.650D-09      -115.83232581    202.902269   -0.00100   -0.00062   -0.19661    8
   16      0.223D-08      0.769D-10      -115.83232581    202.902269   -0.00100   -0.00062   -0.19661    7
   17      0.170D-09      0.336D-10      -115.83232581    202.902269   -0.00100   -0.00062   -0.19661    7
   18      0.888D-10      0.104D-10      -115.83232581    202.902269   -0.00100   -0.00062   -0.19661    8
   19      0.296D-10      0.359D-11      -115.83232581    202.902269   -0.00100   -0.00062   -0.19661    0

 Final occupancy:  11

 !RHF STATE 1.1 Energy               -115.832325808702
 Nuclear energy                        63.65670758
 One-electron energy                 -280.94016797
 Two-electron energy                  101.45113459
 Virial quotient                       -1.00180508
 !RHF STATE 1.1 Dipole moment          -0.00100097    -0.00061947    -0.19660864
 Dipole moment /Debye                  -0.00254403    -0.00157443    -0.49969659

 Orbital energies:

         1.1          2.1          3.1          4.1          5.1          6.1          7.1          8.1          9.1         10.1
    -11.250758   -11.248688   -11.244930    -1.153245    -0.822896    -0.765999    -0.677377    -0.594344    -0.488074    -0.417669

        11.1         12.1         13.1
     -0.354969     0.167210     0.215660


 **********************************************************************************************************************************
 DATASETS  * FILE   NREC   LENGTH (MB)   RECORD NAMES
              1      19       18.00       500      610      700      900      950      970     1000      129      960     1100   
                                          VAR    BASINP    GEOM    SYMINP    ZMAT    AOBASIS   BASIS     P2S    ABASIS      S 
                                         1400     1410     1200     1210     1080     1600     1650     1300     1700   
                                           T        V       H0       H01     AOSYM     SMH    MOLCAS    ERIS     OPER   

              2       3        0.44       700     1000     2100   
                                         GEOM     BASIS     RHF  

 PROGRAMS   *        TOTAL       RHF       INT
 CPU TIMES  *         0.53      0.22      0.27
 REAL TIME  *         0.79 SEC
 DISK USED  *        61.90 MB      
 GA USED    *         0.00 MB       (max)       0.00 MB       (current)
 **********************************************************************************************************************************


1PROGRAM * CCSD (Closed-shell coupled cluster)     Authors: C. Hampel, H.-J. Werner, 1991, M. Deegan, P.J. Knowles, 1992


 Convergence thresholds:  THRVAR = 1.00D-08  THRDEN = 1.00D-12

 CCSD(T)     terms to be evaluated (factor= 1.000)


 Number of core orbitals:           3 (   3 )
 Number of closed-shell orbitals:   8 (   8 )
 Number of external orbitals:      51 (  51 )

 Molecular orbitals read from record     2100.2  Type=RHF/CANONICAL (state 1.1)

 Number of N-1 electron functions:               8
 Number of N-2 electron functions:              36
 Number of singly external CSFs:               408
 Number of doubly external CSFs:             83436
 Total number of CSFs:                       83845

 Length of J-op  integral file:               0.00 MB
 Length of K-op  integral file:               0.30 MB
 Length of 3-ext integral record:             0.00 MB

 Memory could be reduced to 1.93 Mwords without degradation in triples

 Integral transformation finished. Total CPU:   0.04 sec, npass=  1  Memory used:   1.45 MW

 Reference energy:                   -115.83232581

 MP2 singlet pair energy:              -0.25578433
 MP2 triplet pair energy:              -0.14563418
 MP2 correlation energy:               -0.40141851
 MP2 total energy:                   -116.23374432

 SCS-MP2 correlation energy:           -0.39755802   (PS=  1.200000  PT=  0.333333)
 SCS-MP2 total energy:               -116.22988383

 ITER.      SQ.NORM     CORR.ENERGY   TOTAL ENERGY   ENERGY CHANGE        DEN1      VAR(S)    VAR(P)  DIIS     TIME
   1      1.16386324    -0.42767808  -116.26000389    -0.02625957    -0.01448125  0.13D-02  0.29D-02  1  1     0.12
   2      1.17864585    -0.43086700  -116.26319281    -0.00318892    -0.01246590  0.29D-04  0.36D-03  2  2     0.22
   3      1.18313831    -0.43105184  -116.26337765    -0.00018485    -0.00209714  0.69D-05  0.36D-04  3  3     0.30
   4      1.18503192    -0.43113128  -116.26345709    -0.00007944    -0.00057386  0.36D-06  0.33D-05  4  4     0.39
   5      1.18544779    -0.43113729  -116.26346310    -0.00000601    -0.00008945  0.34D-07  0.29D-06  5  5     0.48
   6      1.18551429    -0.43113431  -116.26346012     0.00000298    -0.00000915  0.38D-08  0.17D-07  6  6     0.58
   7      1.18552256    -0.43113458  -116.26346038    -0.00000026     0.00000076  0.44D-09  0.12D-08  6  2     0.67
   8      1.18552391    -0.43113445  -116.26346026     0.00000013    -0.00000003  0.33D-10  0.96D-10  6  1     0.75
   9      1.18552420    -0.43113442  -116.26346023     0.00000003    -0.00000009  0.63D-11  0.80D-11  6  3     0.84
  10      1.18552408    -0.43113443  -116.26346024    -0.00000001     0.00000010  0.40D-12  0.64D-12  6  4     0.94
  11      1.18552399    -0.43113444  -116.26346025    -0.00000001     0.00000005  0.74D-13  0.75D-13  6  5     1.03
  12      1.18552393    -0.43113444  -116.26346025    -0.00000000     0.00000002  0.62D-14  0.14D-13  6  6     1.12
  13      1.18552390    -0.43113444  -116.26346025    -0.00000000     0.00000001  0.63D-15  0.26D-14  6  2     1.21
  14      1.18552389    -0.43113444  -116.26346025    -0.00000000     0.00000000  0.66D-16  0.30D-15  6  1     1.30
  15      1.18552389    -0.43113444  -116.26346025    -0.00000000     0.00000000  0.20D-16  0.32D-16  6  3     1.39
  16      1.18552388    -0.43113444  -116.26346025    -0.00000000     0.00000000  0.41D-17  0.40D-17  6  4     1.48
  17      1.18552388    -0.43113444  -116.26346025    -0.00000000     0.00000000  0.96D-18  0.51D-18  6  5     1.58
  18      1.18552388    -0.43113444  -116.26346025    -0.00000000     0.00000000  0.15D-18  0.66D-19  6  6     1.67
  19      1.18552388    -0.43113444  -116.26346025     0.00000000    -0.00000000  0.32D-19  0.11D-19  6  2     1.76

 Norm of t1 vector:      0.05153262      S-energy:    -0.00000000      T1 diagnostic:  0.00910977
                                                                       D1 diagnostic:  0.02719025

 Doubles amplitudes (print threshold =  0.500E-01):

         I         J         SYM. A    SYM. B    A         B      T(IJ, AB)

         8         8         1         1         1         1     -0.10692532


 Total CPU time for triples:      0.56 sec


 RESULTS
 =======

  Reference energy                   -115.832325808703
  CCSD singlet pair energy             -0.301180015372
  CCSD triplet pair energy             -0.129954426569
  CCSD correlation energy              -0.431134441942

  Triples (T) contribution             -0.016230051794
  Total correlation energy             -0.447364493736

  CCSD total energy                  -116.263460250645
  CCSD[T] energy                     -116.280045024079
  CCSD-T energy                      -116.279515950688
 !CCSD(T) total energy               -116.279690302438

 Timing summary (sec):

 STEP                 CPU(USER)    SYS     CPU(TOT)    WALL
 Transformation          0.04      0.01      0.05      0.05
 CCSD iterations         1.72      0.09      1.81      1.83
 Triples                 0.56      0.01      0.57      0.57

 Program statistics:

 Available memory in ccsd:               999999644
 Min. memory needed in ccsd:                278748
 Max. memory used in ccsd:                  341544
 Max. memory used in cckext:                342982 (19 integral passes)



 **********************************************************************************************************************************
 DATASETS  * FILE   NREC   LENGTH (MB)   RECORD NAMES
              1      20       24.08       500      610      700      900      950      970     1000      129      960     1100   
                                          VAR    BASINP    GEOM    SYMINP    ZMAT    AOBASIS   BASIS     P2S    ABASIS      S 
                                         1400     1410     1200     1210     1080     1600     1650     1300     1700     1380   
                                           T        V       H0       H01     AOSYM     SMH    MOLCAS    ERIS     OPER     JKOP   

              2       3        0.44       700     1000     2100   
                                         GEOM     BASIS     RHF  

 PROGRAMS   *        TOTAL   CCSD(T)       RHF       INT
 CPU TIMES  *         2.86      2.33      0.22      0.27
 REAL TIME  *         3.28 SEC
 DISK USED  *        61.90 MB      
 GA USED    *         0.00 MB       (max)       0.00 MB       (current)
 **********************************************************************************************************************************

        CCSD(T)         RHF-SCF 
   -116.27969030   -115.83232581
 **********************************************************************************************************************************
 Variable memory released
