
 Primary working directories    : /tmp/1049502.1362.gen4.q
 Secondary working directories  : /tmp/1049502.1362.gen4.q
 Wavefunction directory         : /home/vulcan/jj04645/wfu/
 Main file repository           : /tmp/1049502.1362.gen4.q/

 ARCHNAME  : Linux/x86_64
 FC        : /opt/intel/compilers_and_libraries_2016.1.150/linux/bin/intel64/ifort
 FCVERSION : 16.0.1
 BLASLIB   : -mkl
 id        : ccgc

 Nodes     nprocs
 n049         1
 ga_uses_ma=false, calling ma_init with nominal heap.
 GA-space will be limited to   8.0 MW (determined by -G option)

 Using customized tuning parameters: mindgm=10; mindgv=16; mindgc=4; mindgr=1; noblas=0; mincuda=1000; minvec=7
 default implementation of scratch files=df  

 ***,Optimization of neopentane
 memory,1000,m
 gthresh,energy=1.0d-12,orbital=1.0d-10,oneint=1.0d-16,twoint=1.0d-16,optgrad=1.0d-6,compress=1.0d-13
 geomtyp=xyz
 
 bohr
 geometry = {
  C   -0.0066240000    0.0066287158   -0.0000033344
  C    2.3621784548   -0.0035166468   -1.6678297167
  C    0.0009963817   -2.3613405122    1.6690192850
  C    0.0026555895    2.3695227148    1.6761883842
  C   -2.3686805502   -0.0018134018   -1.6773793876
  H    2.4156158512    1.6695361557   -2.8807595757
  H   -1.6727039498   -2.4129769243    2.8811335370
  H    1.6844062924    2.4133100897    2.8774199680
  H   -2.4046659664   -1.6758101635   -2.8896499724
  H    4.0760986106   -0.0116625219   -0.5121604634
  H    0.0085036578   -4.0758475529    0.5142165628
  H   -0.0081393576    4.0875472303    0.5266513852
  H   -4.0872671392   -0.0059666589   -0.5286396580
  H    2.4004835670   -1.6761571140   -2.8819000049
  H    1.6729982413   -2.4002245744    2.8839505137
  H   -1.6612266682    2.4088696613    2.9022013247
  H   -2.4146290148    1.6699015032   -2.8924588475
 }
 
 basis=VDZ
 {rhf;maxit,200}
 {ccsd(t);maxit,200}

 Variables initialized (661), CPU time= 0.00 sec
 Commands  initialized (458), CPU time= 0.01 sec, 486 directives.
 Default parameters read. Elapsed time= 0.05 sec

 Checking input...
 Passed
1


                                         ***  PROGRAM SYSTEM MOLPRO  ***
                         Copyright, University College Cardiff Consultants Limited, 2008

                                    Version 2010.1 linked May 16 2016 07:17:05


 **********************************************************************************************************************************
 LABEL *   Optimization of neopentane                                                    
 Linux-4.4.3/n049(x86_64) 64 bit mpp version                                             DATE: 31-Mar-24          TIME: 01:05:07  
 **********************************************************************************************************************************

 SHA1:             9e8077add272b0f3cad6f7df79ec5211205f459d
 **********************************************************************************************************************************

 THRESHOLDS:

 ZERO    =  1.00D-12  ONEINT  =  1.00D-16  TWOINT  =  1.00D-16  PREFAC  =  1.00D-14  LOCALI  =  1.00D-09  EORDER  =  1.00D-04
 ENERGY  =  1.00D-12  ETEST   =  0.00D+00  EDENS   =  0.00D+00  THRDEDEF=  1.00D-06  GRADIENT=  1.00D-02  STEP    =  1.00D-03
 ORBITAL =  1.00D-10  CIVEC   =  1.00D-05  COEFF   =  1.00D-04  PRINTCI =  5.00D-02  PUNCHCI =  9.90D+01  OPTGRAD =  1.00D-06
 OPTENERG=  1.00D-06  OPTSTEP =  3.00D-04  THRGRAD =  1.00D-10  COMPRESS=  1.00D-13  VARMIN  =  1.00D-07  VARMAX  =  1.00D-03
 THRDOUB =  0.00D+00  THRDIV  =  1.00D-05  THRRED  =  1.00D-07  THRPSP  =  1.00D+00  THRDC   =  1.00D-10  THRCS   =  1.00D-10
 THRNRM  =  1.00D-08  THREQ   =  0.00D+00  THRDE   =  1.00D+00  THRREF  =  1.00D-05  SPARFAC =  1.00D+00  THRDLP  =  1.00D-07
 THRDIA  =  1.00D-10  THRDLS  =  1.00D-07  THRGPS  =  0.00D+00  THRKEX  =  0.00D+00  THRDIS  =  2.00D-01  THRVAR  =  1.00D-10
 THRLOC  =  1.00D-06  THRGAP  =  1.00D-06  THRLOCT = -1.00D+00  THRGAPT = -1.00D+00  THRORB  =  1.00D-06  THRMLTP =  0.00D+00
 THRCPQCI=  1.00D-10  KEXTA   =  0.00D+00  THRCOARS=  0.00D+00  SYMTOL  =  1.00D-06  GRADTOL =  1.00D-06  THROVL  =  1.00D-08
 THRORTH =  1.00D-08  GRID    =  1.00D-06  GRIDMAX =  1.00D-03  DTMAX   =  0.00D+00

 SETTING GEOMTYP        =    XYZ
 ZUNIT=BOHR
 

 Variable memory set to 1000000000 words,  buffer space   230000 words

 SETTING BASIS          =    VDZ


 Recomputing integrals since basis changed


 Using spherical harmonics

 Library entry C      S cc-pVDZ              selected for orbital group  1
 Library entry C      P cc-pVDZ              selected for orbital group  1
 Library entry C      D cc-pVDZ              selected for orbital group  1
 Library entry H      S cc-pVDZ              selected for orbital group  2
 Library entry H      P cc-pVDZ              selected for orbital group  2

1PROGRAM * SEWARD (Integral evaluation for generally contracted gaussian basis sets)     Author: Roland Lindh, 1990

 Geometry written to block  1 of record 700


 Point group  C1  



 ATOMIC COORDINATES

 NR  ATOM    CHARGE       X              Y              Z

   1  C       6.00   -0.006624000    0.006628716   -0.000003334
   2  C       6.00    2.362178455   -0.003516647   -1.667829717
   3  C       6.00    0.000996382   -2.361340512    1.669019285
   4  C       6.00    0.002655590    2.369522715    1.676188384
   5  C       6.00   -2.368680550   -0.001813402   -1.677379388
   6  H       1.00    2.415615851    1.669536156   -2.880759576
   7  H       1.00   -1.672703950   -2.412976924    2.881133537
   8  H       1.00    1.684406292    2.413310090    2.877419968
   9  H       1.00   -2.404665966   -1.675810164   -2.889649972
  10  H       1.00    4.076098611   -0.011662522   -0.512160463
  11  H       1.00    0.008503658   -4.075847553    0.514216563
  12  H       1.00   -0.008139358    4.087547230    0.526651385
  13  H       1.00   -4.087267139   -0.005966659   -0.528639658
  14  H       1.00    2.400483567   -1.676157114   -2.881900005
  15  H       1.00    1.672998241   -2.400224574    2.883950514
  16  H       1.00   -1.661226668    2.408869661    2.902201325
  17  H       1.00   -2.414629015    1.669901503   -2.892458847

 Bond lengths in Bohr (Angstrom)

 1-2  2.897062795  1-3  2.897062795  1-4  2.897062795  1-5  2.897062795  2-6  2.067162325
     ( 1.533059604)     ( 1.533059604)     ( 1.533059604)     ( 1.533059604)     ( 1.093895190)

  2-10  2.067162325   2-14  2.067162325   3- 7  2.067162325   3-11  2.067162325   3-15  2.067162325
       ( 1.093895190)       ( 1.093895190)       ( 1.093895190)       ( 1.093895190)       ( 1.093895190)

  4- 8  2.067162325   4-12  2.067162325   4-16  2.067162325   5- 9  2.067162325   5-13  2.067162325
       ( 1.093895190)       ( 1.093895190)       ( 1.093895190)       ( 1.093895190)       ( 1.093895190)

  5-17  2.067162325
       ( 1.093895190)

 Bond angles

  1- 2- 6  110.86076933   1- 2-10  110.86076849   1- 2-14  110.86076848   1- 3- 7  110.86076908

  1- 3-11  110.86076861   1- 3-15  110.86076861   1- 4- 8  110.86076920   1- 4-12  110.86076851

  1- 4-16  110.86076861   1- 5- 9  110.86076920   1- 5-13  110.86076862   1- 5-17  110.86076850

  2-1-3  109.06557187   2-1-4  109.47071421   2-1-5  109.47071421   3-1-4  109.47071421

  3- 1- 5  109.47071421   4- 1- 5  109.87585655   6- 2-10  108.04663929   6- 2-14  108.04663928

  7- 3-11  108.04663905   7- 3-15  108.04663904   8- 4-12  108.04663905   8- 4-16  108.04663925

  9- 5-13  108.04663926   9- 5-17  108.04663904  10- 2-14  108.04663768  11- 3-15  108.04663815

 12- 4-16  108.04663793  13- 5-17  108.04663793

 NUCLEAR CHARGE:                   42
 NUMBER OF PRIMITIVE AOS:         219
 NUMBER OF SYMMETRY AOS:          214
 NUMBER OF CONTRACTIONS:          130   ( 130A   )
 NUMBER OF CORE ORBITALS:           5   (   5A   )
 NUMBER OF VALENCE ORBITALS:       32   (  32A   )


 NUCLEAR REPULSION ENERGY  198.59973504


 Eigenvalues of metric

         1 0.280E-02 0.500E-02 0.504E-02 0.507E-02 0.171E-01 0.189E-01 0.189E-01 0.190E-01


 Contracted 2-electron integrals neglected if value below      1.0D-16
 AO integral compression algorithm  1   Integral accuracy      1.0D-16

     303.563 MB (compressed) written to integral file ( 97.3%)

     Node minimum: 303.563 MB, node maximum: 303.563 MB


 NUMBER OF SORTED TWO-ELECTRON INTEGRALS:   36256870.     BUFFER LENGTH:  32768
 NUMBER OF SEGMENTS:   3  SEGMENT LENGTH:   15998004      RECORD LENGTH: 524288

 Memory used in sort:      16.56 MW

 SORT1 READ    38983212. AND WROTE    36209758. INTEGRALS IN    105 RECORDS. CPU TIME:     0.38 SEC, REAL TIME:     0.59 SEC
 SORT2 READ    36209758. AND WROTE    36256870. INTEGRALS IN   1158 RECORDS. CPU TIME:     0.28 SEC, REAL TIME:     0.43 SEC

 FILE SIZES:   FILE 1:   283.9 MBYTE,  FILE 4:   440.4 MBYTE,   TOTAL:    724.3 MBYTE

 OPERATOR DM      FOR CENTER  0  COORDINATES:    0.000000    0.000000    0.000000


 **********************************************************************************************************************************
 DATASETS  * FILE   NREC   LENGTH (MB)   RECORD NAMES
              1      19      284.08       500      610      700      900      950      970     1000      129      960     1100   
                                          VAR    BASINP    GEOM    SYMINP    ZMAT    AOBASIS   BASIS     P2S    ABASIS      S 
                                         1400     1410     1200     1210     1080     1600     1650     1300     1700   
                                           T        V       H0       H01     AOSYM     SMH    MOLCAS    ERIS     OPER   

 PROGRAMS   *        TOTAL       INT
 CPU TIMES  *         4.14      4.09
 REAL TIME  *         4.82 SEC
 DISK USED  *         1.03 GB      
 GA USED    *         0.01 MB       (max)       0.00 MB       (current)
 **********************************************************************************************************************************

1PROGRAM * RHF-SCF (CLOSED SHELL)       Authors: W. Meyer, H.-J. Werner


 NUMBER OF ELECTRONS:      21+   21-    SPACE SYMMETRY=1    SPIN SYMMETRY: Singlet 
 CONVERGENCE THRESHOLDS:    1.00E-10 (Density)    1.00E-13 (Energy)
 MAX. NUMBER OF ITERATIONS:      200
 INTERPOLATION TYPE:            DIIS
 INTERPOLATION STEPS:              2 (START)      1 (STEP)
 LEVEL SHIFTS:                  0.00 (CLOSED)  0.00 (OPEN) 



 Orbital guess generated from atomic densities. Full valence occupancy:   37

 Molecular orbital dump at record        2100.2

 ITERATION    DDIFF          GRAD             ENERGY        2-EL.EN.            DIPOLE MOMENTS         DIIS
    1      0.000D+00      0.000D+00      -196.27089095    527.678322   -0.00015    0.00016   -0.00000    0
    2      0.000D+00      0.467D-02      -196.33874875    521.944946   -0.00060    0.00061   -0.00000    1
    3      0.930D-02      0.177D-02      -196.34653913    524.515041   -0.00081    0.00082   -0.00000    2
    4      0.346D-02      0.571D-03      -196.34768588    523.813718   -0.00079    0.00079   -0.00000    3
    5      0.114D-02      0.118D-03      -196.34772046    523.880225   -0.00075    0.00076   -0.00000    4
    6      0.198D-03      0.238D-04      -196.34772213    523.876465   -0.00077    0.00078   -0.00000    5
    7      0.659D-04      0.226D-05      -196.34772215    523.876232   -0.00076    0.00077   -0.00000    6
    8      0.684D-05      0.490D-06      -196.34772216    523.876190   -0.00077    0.00077   -0.00000    6
    9      0.137D-05      0.771D-07      -196.34772216    523.876183   -0.00076    0.00077   -0.00000    5
   10      0.242D-06      0.203D-07      -196.34772216    523.876186   -0.00077    0.00077   -0.00000    6
   11      0.464D-07      0.423D-08      -196.34772216    523.876188   -0.00077    0.00077   -0.00000    6
   12      0.107D-07      0.721D-09      -196.34772216    523.876187   -0.00077    0.00077   -0.00000    6
   13      0.157D-08      0.315D-09      -196.34772216    523.876188   -0.00077    0.00077   -0.00000    6
   14      0.619D-09      0.465D-10      -196.34772216    523.876188   -0.00077    0.00077   -0.00000    6
   15      0.115D-09      0.164D-10      -196.34772216    523.876188   -0.00077    0.00077   -0.00000    6
   16      0.360D-10      0.539D-11      -196.34772216    523.876188   -0.00077    0.00077   -0.00000    7
   17      0.171D-10      0.626D-12      -196.34772216    523.876188   -0.00077    0.00077   -0.00000    7
   18      0.167D-11      0.126D-12      -196.34772216    523.876188   -0.00077    0.00077   -0.00000    7
   19      0.382D-12      0.478D-13      -196.34772216    523.876188   -0.00077    0.00077   -0.00000    6
   20      0.199D-12      0.327D-13      -196.34772216    523.876188   -0.00077    0.00077   -0.00000    7
   21      0.124D-12      0.265D-13      -196.34772216    523.876188   -0.00077    0.00077   -0.00000    8
   22      0.710D-13      0.269D-13      -196.34772216    523.876188   -0.00077    0.00077   -0.00000    9
   23      0.413D-13      0.284D-13      -196.34772216    523.876188   -0.00077    0.00077   -0.00000    9
   24      0.318D-13      0.244D-13      -196.34772216    523.876188   -0.00077    0.00077   -0.00000    9
   25      0.172D-13      0.220D-13      -196.34772216    523.876188   -0.00077    0.00077   -0.00000    9
   26      0.191D-13      0.194D-13      -196.34772216    523.876188   -0.00077    0.00077   -0.00000    0

 Final occupancy:  21

 !RHF STATE 1.1 Energy               -196.347722156203
 Nuclear energy                       198.59973504
 One-electron energy                 -656.88555103
 Two-electron energy                  261.93809383
 Virial quotient                       -1.00118119
 !RHF STATE 1.1 Dipole moment          -0.00076554     0.00076920    -0.00000140
 Dipole moment /Debye                  -0.00194568     0.00195499    -0.00000355

 Orbital energies:

         1.1          2.1          3.1          4.1          5.1          6.1          7.1          8.1          9.1         10.1
    -11.230713   -11.214275   -11.214253   -11.213933   -11.213908    -1.103751    -0.927982    -0.927563    -0.927134    -0.728614

        11.1         12.1         13.1         14.1         15.1         16.1         17.1         18.1         19.1         20.1
     -0.609367    -0.609075    -0.608784    -0.550491    -0.550487    -0.508001    -0.507784    -0.507573    -0.451063    -0.450335

        21.1         22.1         23.1
     -0.449596     0.170677     0.231079


 **********************************************************************************************************************************
 DATASETS  * FILE   NREC   LENGTH (MB)   RECORD NAMES
              1      19      284.08       500      610      700      900      950      970     1000      129      960     1100   
                                          VAR    BASINP    GEOM    SYMINP    ZMAT    AOBASIS   BASIS     P2S    ABASIS      S 
                                         1400     1410     1200     1210     1080     1600     1650     1300     1700   
                                           T        V       H0       H01     AOSYM     SMH    MOLCAS    ERIS     OPER   

              2       3        0.89       700     1000     2100   
                                         GEOM     BASIS     RHF  

 PROGRAMS   *        TOTAL       RHF       INT
 CPU TIMES  *        11.14      7.01      4.09
 REAL TIME  *        12.68 SEC
 DISK USED  *         1.03 GB      
 GA USED    *         0.01 MB       (max)       0.00 MB       (current)
 **********************************************************************************************************************************


1PROGRAM * CCSD (Closed-shell coupled cluster)     Authors: C. Hampel, H.-J. Werner, 1991, M. Deegan, P.J. Knowles, 1992


 Convergence thresholds:  THRVAR = 1.00D-08  THRDEN = 1.00D-12

 CCSD(T)     terms to be evaluated (factor= 1.000)


 Number of core orbitals:           5 (   5 )
 Number of closed-shell orbitals:  16 (  16 )
 Number of external orbitals:     109 ( 109 )

 Molecular orbitals read from record     2100.2  Type=RHF/CANONICAL (state 1.1)

 Number of N-1 electron functions:              16
 Number of N-2 electron functions:             136
 Number of singly external CSFs:              1744
 Number of doubly external CSFs:           1521640
 Total number of CSFs:                     1523385

 Length of J-op  integral file:               0.00 MB
 Length of K-op  integral file:               1.20 MB
 Length of 3-ext integral record:             0.00 MB

 Memory could be reduced to 28.13 Mwords without degradation in triples

 Integral transformation finished. Total CPU:   1.89 sec, npass=  1  Memory used:  22.98 MW

 Reference energy:                   -196.34772216

 MP2 singlet pair energy:              -0.48845350
 MP2 triplet pair energy:              -0.25007846
 MP2 correlation energy:               -0.73853195
 MP2 total energy:                   -197.08625411

 SCS-MP2 correlation energy:           -0.74174857   (PS=  1.200000  PT=  0.333333)
 SCS-MP2 total energy:               -197.08947072

 ITER.      SQ.NORM     CORR.ENERGY   TOTAL ENERGY   ENERGY CHANGE        DEN1      VAR(S)    VAR(P)  DIIS     TIME
   1      1.28821635    -0.80655686  -197.15427902    -0.06802491    -0.04667731  0.17D-02  0.47D-02  1  1     6.96
   2      1.31153024    -0.81149030  -197.15921246    -0.00493344    -0.02353910  0.47D-04  0.32D-03  2  2    12.09
   3      1.31553953    -0.81164015  -197.15936230    -0.00014984    -0.00243441  0.53D-05  0.22D-04  3  3    17.22
   4      1.31658361    -0.81170243  -197.15942458    -0.00006228    -0.00046365  0.25D-06  0.12D-05  4  4    22.35
   5      1.31670955    -0.81170680  -197.15942896    -0.00000438    -0.00005128  0.15D-07  0.93D-07  5  5    27.50
   6      1.31672202    -0.81170438  -197.15942654     0.00000242    -0.00000846  0.68D-09  0.61D-08  6  6    32.64
   7      1.31672059    -0.81170466  -197.15942682    -0.00000028     0.00000063  0.16D-09  0.52D-09  6  1    37.79
   8      1.31672030    -0.81170481  -197.15942697    -0.00000015     0.00000027  0.78D-11  0.30D-10  6  2    42.94
   9      1.31672001    -0.81170486  -197.15942701    -0.00000005     0.00000025  0.11D-11  0.25D-11  6  3    48.09
  10      1.31671990    -0.81170487  -197.15942702    -0.00000001     0.00000009  0.90D-13  0.22D-12  6  4    53.24
  11      1.31671984    -0.81170487  -197.15942702    -0.00000000     0.00000004  0.95D-14  0.24D-13  6  5    58.39
  12      1.31671981    -0.81170487  -197.15942703    -0.00000000     0.00000002  0.91D-15  0.12D-14  6  1    63.53
  13      1.31671980    -0.81170487  -197.15942703    -0.00000000     0.00000000  0.81D-16  0.70D-16  6  6    68.68
  14      1.31671980    -0.81170487  -197.15942703    -0.00000000     0.00000000  0.15D-16  0.97D-17  6  2    73.83
  15      1.31671980    -0.81170487  -197.15942703    -0.00000000     0.00000000  0.13D-17  0.11D-17  6  3    78.98
  16      1.31671980    -0.81170487  -197.15942703     0.00000000    -0.00000000  0.76D-19  0.94D-19  6  4    84.13
  17      1.31671980    -0.81170487  -197.15942703     0.00000000    -0.00000000  0.46D-20  0.89D-20  6  5    89.27
  18      1.31671980    -0.81170487  -197.15942703     0.00000000    -0.00000000  0.65D-21  0.13D-20  6  1    94.42
  19      1.31671980    -0.81170487  -197.15942703     0.00000000    -0.00000000  0.73D-22  0.18D-21  6  6    99.56

 Norm of t1 vector:      0.05469745      S-energy:    -0.00000000      T1 diagnostic:  0.00683718
                                                                       D1 diagnostic:  0.01260579


 Total CPU time for triples:     81.52 sec


 RESULTS
 =======

  Reference energy                   -196.347722156203
  CCSD singlet pair energy             -0.577588182603
  CCSD triplet pair energy             -0.234116687416
  CCSD correlation energy              -0.811704870019

  Triples (T) contribution             -0.023942509232
  Total correlation energy             -0.835647379252

  CCSD total energy                  -197.159427026222
  CCSD[T] energy                     -197.183828877240
  CCSD-T energy                      -197.183120871448
 !CCSD(T) total energy               -197.183369535455

 Timing summary (sec):

 STEP                 CPU(USER)    SYS     CPU(TOT)    WALL
 Transformation          1.97      0.17      2.14      2.14
 CCSD iterations        97.59      2.10     99.69     99.77
 Triples                81.52      1.51     83.03     83.05

 Program statistics:

 Available memory in ccsd:               999998876
 Min. memory needed in ccsd:               3966807
 Max. memory used in ccsd:                 5311887
 Max. memory used in cckext:               4858018 (19 integral passes)



 **********************************************************************************************************************************
 DATASETS  * FILE   NREC   LENGTH (MB)   RECORD NAMES
              1      20      395.79       500      610      700      900      950      970     1000      129      960     1100   
                                          VAR    BASINP    GEOM    SYMINP    ZMAT    AOBASIS   BASIS     P2S    ABASIS      S 
                                         1400     1410     1200     1210     1080     1600     1650     1300     1700     1380   
                                           T        V       H0       H01     AOSYM     SMH    MOLCAS    ERIS     OPER     JKOP   

              2       3        0.89       700     1000     2100   
                                         GEOM     BASIS     RHF  

 PROGRAMS   *        TOTAL   CCSD(T)       RHF       INT
 CPU TIMES  *       192.24    181.09      7.01      4.09
 REAL TIME  *       197.69 SEC
 DISK USED  *         1.03 GB      
 GA USED    *         0.01 MB       (max)       0.00 MB       (current)
 **********************************************************************************************************************************

        CCSD(T)         RHF-SCF 
   -197.18336954   -196.34772216
 **********************************************************************************************************************************
 Variable memory released
