
 Primary working directories    : /tmp/917057.293.gen6.q
 Secondary working directories  : /tmp/917057.293.gen6.q
 Wavefunction directory         : /home/vulcan/lo21740/wfu/
 Main file repository           : /tmp/917057.293.gen6.q/

 ARCHNAME  : Linux/x86_64
 FC        : /opt/intel/compilers_and_libraries_2016.1.150/linux/bin/intel64/ifort
 FCVERSION : 16.0.1
 BLASLIB   : -mkl
 id        : ccgc

 Nodes     nprocs
 n088         1
 ga_uses_ma=false, calling ma_init with nominal heap.
 GA-space will be limited to   8.0 MW (determined by -G option)

 Using customized tuning parameters: mindgm=10; mindgv=16; mindgc=4; mindgr=1; noblas=0; mincuda=1000; minvec=7
 default implementation of scratch files=df  

 ***,Optimization of h2o_2
 memory,1000,m
 gthresh,energy=1.0d-12,orbital=1.0d-10,oneint=1.0d-16,twoint=1.0d-16,optgrad=1.0d-6,compress=1.0d-13
 geomtyp=xyz
 
 bohr
 geometry = {
  C    0.0008897985   -3.4222746219    0.0001798133
  H   -0.9703633272   -2.7344775518   -1.6810870433
  H   -0.9703649307   -2.7328199536    1.6807666745
  H    1.9410815964   -2.7303872615   -0.0001604038
  H    0.0031952406   -5.4820849392    0.0011954261
  C   -0.0009125938    3.4263479786    0.0031462978
  H    0.0076894606    5.4811415516    0.0042173795
  H    0.9665965904    2.7317974015   -1.6836272021
  H    0.9667711516    2.7333925715    1.6782233049
  H   -1.9445829864    2.7293648248   -0.0028542468
 }
 
 basis=AVDZ
 {rhf;maxit,200}
 {ccsd(t);maxit,200}

 Variables initialized (661), CPU time= 0.00 sec
 Commands  initialized (458), CPU time= 0.01 sec, 486 directives.
 Default parameters read. Elapsed time= 0.04 sec

 Checking input...
 Passed
1


                                         ***  PROGRAM SYSTEM MOLPRO  ***
                         Copyright, University College Cardiff Consultants Limited, 2008

                                    Version 2010.1 linked May 16 2016 07:17:05


 **********************************************************************************************************************************
 LABEL *   Optimization of h2o_2                                                         
 Linux-4.4.3/n088(x86_64) 64 bit mpp version                                             DATE: 20-Jul-23          TIME: 14:19:11  
 **********************************************************************************************************************************

 SHA1:             9e8077add272b0f3cad6f7df79ec5211205f459d
 **********************************************************************************************************************************

 THRESHOLDS:

 ZERO    =  1.00D-12  ONEINT  =  1.00D-16  TWOINT  =  1.00D-16  PREFAC  =  1.00D-14  LOCALI  =  1.00D-09  EORDER  =  1.00D-04
 ENERGY  =  1.00D-12  ETEST   =  0.00D+00  EDENS   =  0.00D+00  THRDEDEF=  1.00D-06  GRADIENT=  1.00D-02  STEP    =  1.00D-03
 ORBITAL =  1.00D-10  CIVEC   =  1.00D-05  COEFF   =  1.00D-04  PRINTCI =  5.00D-02  PUNCHCI =  9.90D+01  OPTGRAD =  1.00D-06
 OPTENERG=  1.00D-06  OPTSTEP =  3.00D-04  THRGRAD =  1.00D-10  COMPRESS=  1.00D-13  VARMIN  =  1.00D-07  VARMAX  =  1.00D-03
 THRDOUB =  0.00D+00  THRDIV  =  1.00D-05  THRRED  =  1.00D-07  THRPSP  =  1.00D+00  THRDC   =  1.00D-10  THRCS   =  1.00D-10
 THRNRM  =  1.00D-08  THREQ   =  0.00D+00  THRDE   =  1.00D+00  THRREF  =  1.00D-05  SPARFAC =  1.00D+00  THRDLP  =  1.00D-07
 THRDIA  =  1.00D-10  THRDLS  =  1.00D-07  THRGPS  =  0.00D+00  THRKEX  =  0.00D+00  THRDIS  =  2.00D-01  THRVAR  =  1.00D-10
 THRLOC  =  1.00D-06  THRGAP  =  1.00D-06  THRLOCT = -1.00D+00  THRGAPT = -1.00D+00  THRORB  =  1.00D-06  THRMLTP =  0.00D+00
 THRCPQCI=  1.00D-10  KEXTA   =  0.00D+00  THRCOARS=  0.00D+00  SYMTOL  =  1.00D-06  GRADTOL =  1.00D-06  THROVL  =  1.00D-08
 THRORTH =  1.00D-08  GRID    =  1.00D-06  GRIDMAX =  1.00D-03  DTMAX   =  0.00D+00

 SETTING GEOMTYP        =    XYZ
 ZUNIT=BOHR
 

 Variable memory set to 1000000000 words,  buffer space   230000 words

 SETTING BASIS          =    AVDZ


 Recomputing integrals since basis changed


 Using spherical harmonics

 Library entry C      S aug-cc-pVDZ          selected for orbital group  1
 Library entry C      P aug-cc-pVDZ          selected for orbital group  1
 Library entry C      D aug-cc-pVDZ          selected for orbital group  1
 Library entry H      S aug-cc-pVDZ          selected for orbital group  2
 Library entry H      P aug-cc-pVDZ          selected for orbital group  2

1PROGRAM * SEWARD (Integral evaluation for generally contracted gaussian basis sets)     Author: Roland Lindh, 1990

 Geometry written to block  1 of record 700


 Point group  C1  



 ATOMIC COORDINATES

 NR  ATOM    CHARGE       X              Y              Z

   1  C       6.00    0.000889798   -3.422274622    0.000179813
   2  H       1.00   -0.970363327   -2.734477552   -1.681087043
   3  H       1.00   -0.970364931   -2.732819954    1.680766675
   4  H       1.00    1.941081596   -2.730387262   -0.000160404
   5  H       1.00    0.003195241   -5.482084939    0.001195426
   6  C       6.00   -0.000912594    3.426347979    0.003146298
   7  H       1.00    0.007689461    5.481141552    0.004217380
   8  H       1.00    0.966596590    2.731797402   -1.683627202
   9  H       1.00    0.966771152    2.733392572    1.678223305
  10  H       1.00   -1.944582986    2.729364825   -0.002854247

 Bond lengths in Bohr (Angstrom)

 1-2  2.059867881  1-3  2.059867881  1-4  2.059867095  1-5  2.059811858  6-7  2.054811858
     ( 1.090035136)     ( 1.090035136)     ( 1.090034720)     ( 1.090005490)     ( 1.087359604)

  6- 8  2.064867881   6- 9  2.054867881   6-10  2.064867095
       ( 1.092681022)       ( 1.087389250)       ( 1.092680606)

 Bond angles

  2-1-3  109.37992579   2-1-4  109.37980975   2-1-5  109.56240831   3-1-4  109.37980975

  3-1-5  109.56240831   4-1-5  109.56250040   7-6-8  109.56201345   7-6-9  109.56201345

  7- 6-10  109.96724787   8- 6- 9  109.37953094   8- 6-10  108.97427254   9- 6-10  109.37941490

 NUCLEAR CHARGE:                   20
 NUMBER OF PRIMITIVE AOS:         162
 NUMBER OF SYMMETRY AOS:          158
 NUMBER OF CONTRACTIONS:          118   ( 118A   )
 NUMBER OF CORE ORBITALS:           2   (   2A   )
 NUMBER OF VALENCE ORBITALS:       16   (  16A   )


 NUCLEAR REPULSION ENERGY   41.33559607


 Eigenvalues of metric

         1 0.371E-03 0.572E-03 0.573E-03 0.610E-03 0.728E-03 0.730E-03 0.777E-03 0.101E-02


 Contracted 2-electron integrals neglected if value below      1.0D-16
 AO integral compression algorithm  1   Integral accuracy      1.0D-16

     212.599 MB (compressed) written to integral file ( 92.9%)

     Node minimum: 212.599 MB, node maximum: 212.599 MB


 NUMBER OF SORTED TWO-ELECTRON INTEGRALS:   24650731.     BUFFER LENGTH:  32768
 NUMBER OF SEGMENTS:   2  SEGMENT LENGTH:   15997996      RECORD LENGTH: 524288

 Memory used in sort:      16.56 MW

 SORT1 READ    28594353. AND WROTE    24453821. INTEGRALS IN     71 RECORDS. CPU TIME:     0.24 SEC, REAL TIME:     0.38 SEC
 SORT2 READ    24453821. AND WROTE    24650731. INTEGRALS IN    811 RECORDS. CPU TIME:     0.20 SEC, REAL TIME:     0.31 SEC

 FILE SIZES:   FILE 1:   189.4 MBYTE,  FILE 4:   297.8 MBYTE,   TOTAL:    487.3 MBYTE

 OPERATOR DM      FOR CENTER  0  COORDINATES:    0.000000    0.000000    0.000000


 **********************************************************************************************************************************
 DATASETS  * FILE   NREC   LENGTH (MB)   RECORD NAMES
              1      19      189.61       500      610      700      900      950      970     1000      129      960     1100   
                                          VAR    BASINP    GEOM    SYMINP    ZMAT    AOBASIS   BASIS     P2S    ABASIS      S 
                                         1400     1410     1200     1210     1080     1600     1650     1300     1700   
                                           T        V       H0       H01     AOSYM     SMH    MOLCAS    ERIS     OPER   

 PROGRAMS   *        TOTAL       INT
 CPU TIMES  *         1.35      1.31
 REAL TIME  *         1.85 SEC
 DISK USED  *       700.65 MB      
 GA USED    *         0.00 MB       (max)       0.00 MB       (current)
 **********************************************************************************************************************************

1PROGRAM * RHF-SCF (CLOSED SHELL)       Authors: W. Meyer, H.-J. Werner


 NUMBER OF ELECTRONS:      10+   10-    SPACE SYMMETRY=1    SPIN SYMMETRY: Singlet 
 CONVERGENCE THRESHOLDS:    1.00E-10 (Density)    1.00E-13 (Energy)
 MAX. NUMBER OF ITERATIONS:      200
 INTERPOLATION TYPE:            DIIS
 INTERPOLATION STEPS:              2 (START)      1 (STEP)
 LEVEL SHIFTS:                  0.00 (CLOSED)  0.00 (OPEN) 



 Orbital guess generated from atomic densities. Full valence occupancy:   18

 Molecular orbital dump at record        2100.2

 ITERATION    DDIFF          GRAD             ENERGY        2-EL.EN.            DIPOLE MOMENTS         DIIS
    1      0.000D+00      0.000D+00       -80.36232147    134.779434   -0.00047   -0.00379   -0.00335    0
    2      0.000D+00      0.368D-02       -80.39420984    132.476526    0.00095   -0.00005    0.00081    1
    3      0.809D-02      0.137D-02       -80.39818353    133.303490    0.00099   -0.00016    0.00049    2
    4      0.256D-02      0.371D-03       -80.39877042    133.172830    0.00114    0.00027    0.00085    3
    5      0.868D-03      0.458D-04       -80.39877915    133.179741    0.00116    0.00034    0.00091    4
    6      0.877D-04      0.296D-05       -80.39877920    133.179574    0.00116    0.00034    0.00090    5
    7      0.107D-04      0.223D-06       -80.39877920    133.179558    0.00116    0.00035    0.00091    5
    8      0.155D-05      0.354D-07       -80.39877920    133.179557    0.00116    0.00035    0.00091    4
    9      0.292D-06      0.597D-08       -80.39877920    133.179558    0.00116    0.00035    0.00091    4
   10      0.199D-07      0.921D-09       -80.39877920    133.179558    0.00116    0.00035    0.00091    5
   11      0.236D-08      0.262D-09       -80.39877920    133.179558    0.00116    0.00035    0.00091    5
   12      0.121D-08      0.813D-10       -80.39877920    133.179558    0.00116    0.00035    0.00091    6
   13      0.256D-09      0.148D-10       -80.39877920    133.179558    0.00116    0.00035    0.00091    6
   14      0.410D-10      0.300D-11       -80.39877920    133.179558    0.00116    0.00035    0.00091    6
   15      0.156D-10      0.464D-12       -80.39877920    133.179558    0.00116    0.00035    0.00091    6
   16      0.221D-11      0.156D-12       -80.39877920    133.179558    0.00116    0.00035    0.00091    7
   17      0.123D-11      0.490D-13       -80.39877920    133.179558    0.00116    0.00035    0.00091    7
   18      0.718D-12      0.657D-13       -80.39877920    133.179558    0.00116    0.00035    0.00091    0

 Final occupancy:  10

 !RHF STATE 1.1 Energy                -80.398779196578
 Nuclear energy                        41.33559607
 One-electron energy                 -188.32415443
 Two-electron energy                   66.58977916
 Virial quotient                       -1.00196171
 !RHF STATE 1.1 Dipole moment           0.00116272     0.00034725     0.00090615
 Dipole moment /Debye                   0.00295515     0.00088257     0.00230306

 Orbital energies:

         1.1          2.1          3.1          4.1          5.1          6.1          7.1          8.1          9.1         10.1
    -11.214659   -11.214644    -0.945573    -0.939633    -0.551479    -0.546802    -0.545804    -0.539338    -0.538164    -0.536203

        11.1         12.1
      0.035477     0.045864


 **********************************************************************************************************************************
 DATASETS  * FILE   NREC   LENGTH (MB)   RECORD NAMES
              1      19      189.61       500      610      700      900      950      970     1000      129      960     1100   
                                          VAR    BASINP    GEOM    SYMINP    ZMAT    AOBASIS   BASIS     P2S    ABASIS      S 
                                         1400     1410     1200     1210     1080     1600     1650     1300     1700   
                                           T        V       H0       H01     AOSYM     SMH    MOLCAS    ERIS     OPER   

              2       3        0.70       700     1000     2100   
                                         GEOM     BASIS     RHF  

 PROGRAMS   *        TOTAL       RHF       INT
 CPU TIMES  *         4.06      2.70      1.31
 REAL TIME  *         4.92 SEC
 DISK USED  *       700.65 MB      
 GA USED    *         0.00 MB       (max)       0.00 MB       (current)
 **********************************************************************************************************************************


1PROGRAM * CCSD (Closed-shell coupled cluster)     Authors: C. Hampel, H.-J. Werner, 1991, M. Deegan, P.J. Knowles, 1992


 Convergence thresholds:  THRVAR = 1.00D-08  THRDEN = 1.00D-12

 CCSD(T)     terms to be evaluated (factor= 1.000)


 Number of core orbitals:           2 (   2 )
 Number of closed-shell orbitals:   8 (   8 )
 Number of external orbitals:     108 ( 108 )

 Molecular orbitals read from record     2100.2  Type=RHF/CANONICAL (state 1.1)

 Number of N-1 electron functions:               8
 Number of N-2 electron functions:              36
 Number of singly external CSFs:               864
 Number of doubly external CSFs:            373680
 Total number of CSFs:                      374545

 Length of J-op  integral file:               0.00 MB
 Length of K-op  integral file:               1.00 MB
 Length of 3-ext integral record:             0.00 MB

 Memory could be reduced to 14.62 Mwords without degradation in triples

 Integral transformation finished. Total CPU:   0.55 sec, npass=  1  Memory used:   8.61 MW

 Reference energy:                    -80.39877920

 MP2 singlet pair energy:              -0.24106531
 MP2 triplet pair energy:              -0.09675861
 MP2 correlation energy:               -0.33782392
 MP2 total energy:                    -80.73660311

 SCS-MP2 correlation energy:           -0.34948373   (PS=  1.200000  PT=  0.333333)
 SCS-MP2 total energy:                -80.74826292

 ITER.      SQ.NORM     CORR.ENERGY   TOTAL ENERGY   ENERGY CHANGE        DEN1      VAR(S)    VAR(P)  DIIS     TIME
   1      1.14044071    -0.38147617   -80.78025537    -0.04365225    -0.03251943  0.70D-03  0.24D-02  1  1     1.25
   2      1.15349136    -0.38423184   -80.78301104    -0.00275567    -0.01269524  0.16D-04  0.11D-03  2  2     2.01
   3      1.15560318    -0.38436463   -80.78314383    -0.00013279    -0.00112979  0.25D-05  0.71D-05  3  3     2.75
   4      1.15605038    -0.38438279   -80.78316198    -0.00001816    -0.00017675  0.10D-06  0.45D-06  4  4     3.51
   5      1.15612148    -0.38437947   -80.78315867     0.00000331    -0.00003217  0.39D-08  0.31D-07  5  5     4.27
   6      1.15612535    -0.38437847   -80.78315767     0.00000101    -0.00000141  0.28D-09  0.20D-08  6  6     5.03
   7      1.15612573    -0.38437869   -80.78315788    -0.00000022    -0.00000002  0.24D-10  0.13D-09  6  1     5.79
   8      1.15612579    -0.38437871   -80.78315790    -0.00000002    -0.00000006  0.24D-11  0.96D-11  6  2     6.55
   9      1.15612574    -0.38437871   -80.78315791    -0.00000000     0.00000003  0.45D-12  0.75D-12  6  3     7.32
  10      1.15612570    -0.38437871   -80.78315791    -0.00000000     0.00000002  0.35D-13  0.66D-13  6  4     8.07
  11      1.15612567    -0.38437871   -80.78315791    -0.00000000     0.00000002  0.33D-14  0.71D-14  6  5     8.82
  12      1.15612566    -0.38437871   -80.78315791    -0.00000000     0.00000001  0.28D-15  0.85D-15  6  6     9.59
  13      1.15612565    -0.38437871   -80.78315791    -0.00000000     0.00000000  0.22D-16  0.10D-15  6  1    10.35
  14      1.15612565    -0.38437871   -80.78315791    -0.00000000     0.00000000  0.26D-17  0.11D-16  6  3    11.10
  15      1.15612565    -0.38437871   -80.78315791    -0.00000000     0.00000000  0.19D-18  0.60D-18  6  2    11.85
  16      1.15612565    -0.38437871   -80.78315791    -0.00000000     0.00000000  0.26D-19  0.46D-19  6  4    12.62
  17      1.15612565    -0.38437871   -80.78315791    -0.00000000     0.00000000  0.31D-20  0.59D-20  6  5    13.38
  18      1.15612565    -0.38437871   -80.78315791    -0.00000000     0.00000000  0.35D-21  0.49D-21  6  6    14.14

 Norm of t1 vector:      0.03916239      S-energy:     0.00000000      T1 diagnostic:  0.00692300
                                                                       D1 diagnostic:  0.01252365


 Total CPU time for triples:      8.68 sec


 RESULTS
 =======

  Reference energy                    -80.398779196578
  CCSD singlet pair energy             -0.290157019991
  CCSD triplet pair energy             -0.094221692485
  CCSD correlation energy              -0.384378712476

  Triples (T) contribution             -0.009219579252
  Total correlation energy             -0.393598291729

  CCSD total energy                   -80.783157909054
  CCSD[T] energy                      -80.792598398867
  CCSD-T energy                       -80.792260265925
 !CCSD(T) total energy                -80.792377488307

 Timing summary (sec):

 STEP                 CPU(USER)    SYS     CPU(TOT)    WALL
 Transformation          0.56      0.08      0.64      0.64
 CCSD iterations        13.58      0.62     14.20     14.25
 Triples                 8.68      0.16      8.84      8.84

 Program statistics:

 Available memory in ccsd:               999999644
 Min. memory needed in ccsd:               1156281
 Max. memory used in ccsd:                 1468601
 Max. memory used in cckext:               1135046 (18 integral passes)



 **********************************************************************************************************************************
 DATASETS  * FILE   NREC   LENGTH (MB)   RECORD NAMES
              1      20      236.59       500      610      700      900      950      970     1000      129      960     1100   
                                          VAR    BASINP    GEOM    SYMINP    ZMAT    AOBASIS   BASIS     P2S    ABASIS      S 
                                         1400     1410     1200     1210     1080     1600     1650     1300     1700     1380   
                                           T        V       H0       H01     AOSYM     SMH    MOLCAS    ERIS     OPER     JKOP   

              2       3        0.70       700     1000     2100   
                                         GEOM     BASIS     RHF  

 PROGRAMS   *        TOTAL   CCSD(T)       RHF       INT
 CPU TIMES  *        26.88     22.83      2.70      1.31
 REAL TIME  *        28.68 SEC
 DISK USED  *       700.65 MB      
 GA USED    *         0.00 MB       (max)       0.00 MB       (current)
 **********************************************************************************************************************************

        CCSD(T)         RHF-SCF 
    -80.79237749    -80.39877920
 **********************************************************************************************************************************
 Variable memory released
