
 Primary working directories    : /tmp/943217.601.gen4.q
 Secondary working directories  : /tmp/943217.601.gen4.q
 Wavefunction directory         : /home/vulcan/mel64643/wfu/
 Main file repository           : /tmp/943217.601.gen4.q/

 ARCHNAME  : Linux/x86_64
 FC        : /opt/intel/compilers_and_libraries_2016.1.150/linux/bin/intel64/ifort
 FCVERSION : 16.0.1
 BLASLIB   : -mkl
 id        : ccgc

 Nodes     nprocs
 n066         1
 ga_uses_ma=false, calling ma_init with nominal heap.
 GA-space will be limited to   8.0 MW (determined by -G option)

 Using customized tuning parameters: mindgm=10; mindgv=16; mindgc=4; mindgr=1; noblas=0; mincuda=1000; minvec=7
 default implementation of scratch files=df  

 ***,Optimization of formic acid
 memory,1000,m
 gthresh,energy=1.0d-12,orbital=1.0d-10,oneint=1.0d-16,twoint=1.0d-16,optgrad=1.0d-6,compress=1.0d-13
 geomtyp=xyz
 
 bohr
 geometry = {
  C   -3.5006037363   -0.8307718225   -0.0046843013
  O   -3.0943481964    1.6226833465   -0.0028767768
  O   -1.8853846352   -2.4812210294   -0.0008113208
  H   -5.5198260044   -1.2733723611    0.0043630778
  H   -1.2421899953    1.9540385225    0.0022104476
  C    3.5006037363    0.8307718225    0.0046843013
  O    3.0943481964   -1.6226833465    0.0028767768
  O    1.8853846352    2.4812210294    0.0008113208
  H    5.5198260044    1.2733723611   -0.0043630778
  H    1.2421899953   -1.9540385225   -0.0022104476
 }
 
 basis=VDZ
 {rhf;maxit,200}
 {ccsd(t);maxit,200}

 Variables initialized (661), CPU time= 0.00 sec
 Commands  initialized (458), CPU time= 0.00 sec, 486 directives.
 Default parameters read. Elapsed time= 0.05 sec

 Checking input...
 Passed
1


                                         ***  PROGRAM SYSTEM MOLPRO  ***
                         Copyright, University College Cardiff Consultants Limited, 2008

                                    Version 2010.1 linked May 16 2016 07:17:05


 **********************************************************************************************************************************
 LABEL *   Optimization of formic acid                                                   
 Linux-4.4.3/n066(x86_64) 64 bit mpp version                                             DATE: 24-Oct-23          TIME: 12:25:49  
 **********************************************************************************************************************************

 SHA1:             9e8077add272b0f3cad6f7df79ec5211205f459d
 **********************************************************************************************************************************

 THRESHOLDS:

 ZERO    =  1.00D-12  ONEINT  =  1.00D-16  TWOINT  =  1.00D-16  PREFAC  =  1.00D-14  LOCALI  =  1.00D-09  EORDER  =  1.00D-04
 ENERGY  =  1.00D-12  ETEST   =  0.00D+00  EDENS   =  0.00D+00  THRDEDEF=  1.00D-06  GRADIENT=  1.00D-02  STEP    =  1.00D-03
 ORBITAL =  1.00D-10  CIVEC   =  1.00D-05  COEFF   =  1.00D-04  PRINTCI =  5.00D-02  PUNCHCI =  9.90D+01  OPTGRAD =  1.00D-06
 OPTENERG=  1.00D-06  OPTSTEP =  3.00D-04  THRGRAD =  1.00D-10  COMPRESS=  1.00D-13  VARMIN  =  1.00D-07  VARMAX  =  1.00D-03
 THRDOUB =  0.00D+00  THRDIV  =  1.00D-05  THRRED  =  1.00D-07  THRPSP  =  1.00D+00  THRDC   =  1.00D-10  THRCS   =  1.00D-10
 THRNRM  =  1.00D-08  THREQ   =  0.00D+00  THRDE   =  1.00D+00  THRREF  =  1.00D-05  SPARFAC =  1.00D+00  THRDLP  =  1.00D-07
 THRDIA  =  1.00D-10  THRDLS  =  1.00D-07  THRGPS  =  0.00D+00  THRKEX  =  0.00D+00  THRDIS  =  2.00D-01  THRVAR  =  1.00D-10
 THRLOC  =  1.00D-06  THRGAP  =  1.00D-06  THRLOCT = -1.00D+00  THRGAPT = -1.00D+00  THRORB  =  1.00D-06  THRMLTP =  0.00D+00
 THRCPQCI=  1.00D-10  KEXTA   =  0.00D+00  THRCOARS=  0.00D+00  SYMTOL  =  1.00D-06  GRADTOL =  1.00D-06  THROVL  =  1.00D-08
 THRORTH =  1.00D-08  GRID    =  1.00D-06  GRIDMAX =  1.00D-03  DTMAX   =  0.00D+00

 SETTING GEOMTYP        =    XYZ
 ZUNIT=BOHR
 

 Variable memory set to 1000000000 words,  buffer space   230000 words

 SETTING BASIS          =    VDZ


 Recomputing integrals since basis changed


 Using spherical harmonics

 Library entry C      S cc-pVDZ              selected for orbital group  1
 Library entry C      P cc-pVDZ              selected for orbital group  1
 Library entry C      D cc-pVDZ              selected for orbital group  1
 Library entry O      S cc-pVDZ              selected for orbital group  2
 Library entry O      P cc-pVDZ              selected for orbital group  2
 Library entry O      D cc-pVDZ              selected for orbital group  2
 Library entry H      S cc-pVDZ              selected for orbital group  3
 Library entry H      P cc-pVDZ              selected for orbital group  3

1PROGRAM * SEWARD (Integral evaluation for generally contracted gaussian basis sets)     Author: Roland Lindh, 1990

 Geometry written to block  1 of record 700


 Point group  Ci  



 ATOMIC COORDINATES

 NR  ATOM    CHARGE       X              Y              Z

   1  C       6.00   -3.500603736   -0.830771823   -0.004684301
   2  C       6.00    3.500603736    0.830771823    0.004684301
   3  O       8.00   -3.094348196    1.622683346   -0.002876777
   4  O       8.00    3.094348196   -1.622683346    0.002876777
   5  O       8.00   -1.885384635   -2.481221029   -0.000811321
   6  O       8.00    1.885384635    2.481221029    0.000811321
   7  H       1.00   -5.519826004   -1.273372361    0.004363078
   8  H       1.00    5.519826004    1.273372361   -0.004363078
   9  H       1.00   -1.242189995    1.954038523    0.002210448
  10  H       1.00    1.242189995   -1.954038523   -0.002210448

 Bond lengths in Bohr (Angstrom)

 1-3  2.486863305  1-5  2.309313822  1-7  2.067180606  2-4  2.486863305  2-6  2.309313822
     ( 1.315991383)     ( 1.222036243)     ( 1.093904864)     ( 1.315991383)     ( 1.222036243)

  2- 8  2.067180606   3- 9  1.881571719   4-10  1.881571719
       ( 1.093904864)       ( 0.995684871)       ( 0.995684871)

 Bond angles

  1- 3- 9  109.54509197   2- 4-10  109.54509197   3- 1- 5  126.21591209   3- 1- 7  111.76493323

  4-2-6  126.21591209   4-2-8  111.76493323   5-1-7  122.01768707   6-2-8  122.01768707

 NUCLEAR CHARGE:                   48
 NUMBER OF PRIMITIVE AOS:         190
 NUMBER OF SYMMETRY AOS:          184
 NUMBER OF CONTRACTIONS:          104   (  52Ag  +  52Au  )
 NUMBER OF CORE ORBITALS:           6   (   3Ag  +   3Au  )
 NUMBER OF VALENCE ORBITALS:       28   (  14Ag  +  14Au  )


 NUCLEAR REPULSION ENERGY  235.53066739


 Eigenvalues of metric

         1 0.818E-02 0.138E-01 0.167E-01 0.299E-01 0.376E-01 0.443E-01 0.555E-01 0.934E-01
         2 0.871E-02 0.140E-01 0.165E-01 0.307E-01 0.354E-01 0.441E-01 0.529E-01 0.962E-01


 Contracted 2-electron integrals neglected if value below      1.0D-16
 AO integral compression algorithm  1   Integral accuracy      1.0D-16

     73.138 MB (compressed) written to integral file ( 96.3%)

     Node minimum: 73.138 MB, node maximum: 73.138 MB


 NUMBER OF SORTED TWO-ELECTRON INTEGRALS:    7596914.     BUFFER LENGTH:  32768
 NUMBER OF SEGMENTS:   1  SEGMENT LENGTH:    7596914      RECORD LENGTH: 524288

 Memory used in sort:       8.15 MW

 SORT1 READ     9494560. AND WROTE     7596910. INTEGRALS IN     22 RECORDS. CPU TIME:     0.09 SEC, REAL TIME:     0.14 SEC
 SORT2 READ     7596910. AND WROTE     7596914. INTEGRALS IN    279 RECORDS. CPU TIME:     0.11 SEC, REAL TIME:     0.15 SEC

 FILE SIZES:   FILE 1:    62.2 MBYTE,  FILE 4:    92.3 MBYTE,   TOTAL:    154.5 MBYTE

 OPERATOR DM      FOR CENTER  0  COORDINATES:    0.000000    0.000000    0.000000


 **********************************************************************************************************************************
 DATASETS  * FILE   NREC   LENGTH (MB)   RECORD NAMES
              1      19       62.24       500      610      700      900      950      970     1000      129      960     1100   
                                          VAR    BASINP    GEOM    SYMINP    ZMAT    AOBASIS   BASIS     P2S    ABASIS      S 
                                         1400     1410     1200     1210     1080     1600     1650     1300     1700   
                                           T        V       H0       H01     AOSYM     SMH    MOLCAS    ERIS     OPER   

 PROGRAMS   *        TOTAL       INT
 CPU TIMES  *         1.29      1.25
 REAL TIME  *         1.60 SEC
 DISK USED  *       228.41 MB      
 GA USED    *         0.00 MB       (max)       0.00 MB       (current)
 **********************************************************************************************************************************

1PROGRAM * RHF-SCF (CLOSED SHELL)       Authors: W. Meyer, H.-J. Werner


 NUMBER OF ELECTRONS:      24+   24-
 CONVERGENCE THRESHOLDS:    1.00E-10 (Density)    1.00E-13 (Energy)
 MAX. NUMBER OF ITERATIONS:      200
 INTERPOLATION TYPE:            DIIS
 INTERPOLATION STEPS:              2 (START)      1 (STEP)
 LEVEL SHIFTS:                  0.00 (CLOSED)  0.00 (OPEN) 



 Orbital guess generated from atomic densities. Full valence occupancy:   17  17

 Molecular orbital dump at record        2100.2

 Initial alpha occupancy:  12  12
 Initial beta  occupancy:  12  12
 Wave function symmetry:    1

 ITERATION    DDIFF          GRAD             ENERGY        2-EL.EN.            DIPOLE MOMENTS         DIIS
    1      0.000D+00      0.000D+00      -377.44987159    747.055958    0.00000    0.00000    0.00000    0
    2      0.000D+00      0.156D-01      -377.53761916    744.207974    0.00000    0.00000    0.00000    1
    3      0.307D-01      0.963D-02      -377.58426729    746.457202    0.00000    0.00000    0.00000    2
    4      0.112D-01      0.136D-02      -377.58575778    746.177314    0.00000    0.00000    0.00000    3
    5      0.218D-02      0.566D-03      -377.58601846    746.203129    0.00000    0.00000    0.00000    4
    6      0.897D-03      0.162D-03      -377.58606465    746.247418    0.00000    0.00000    0.00000    5
    7      0.311D-03      0.741D-04      -377.58607600    746.232259    0.00000    0.00000    0.00000    6
    8      0.186D-03      0.220D-04      -377.58607701    746.237464    0.00000    0.00000    0.00000    7
    9      0.579D-04      0.745D-05      -377.58607711    746.236012    0.00000    0.00000    0.00000    8
   10      0.202D-04      0.204D-05      -377.58607712    746.236180    0.00000    0.00000    0.00000    7
   11      0.568D-05      0.498D-06      -377.58607712    746.236126    0.00000    0.00000    0.00000    8
   12      0.132D-05      0.140D-06      -377.58607712    746.236147    0.00000    0.00000    0.00000    7
   13      0.364D-06      0.561D-07      -377.58607712    746.236135    0.00000    0.00000    0.00000    8
   14      0.106D-06      0.170D-07      -377.58607712    746.236138    0.00000    0.00000    0.00000    7
   15      0.435D-07      0.508D-08      -377.58607712    746.236138    0.00000    0.00000    0.00000    7
   16      0.900D-08      0.141D-08      -377.58607712    746.236137    0.00000    0.00000    0.00000    7
   17      0.288D-08      0.551D-09      -377.58607712    746.236138    0.00000    0.00000    0.00000    7
   18      0.109D-08      0.166D-09      -377.58607712    746.236137    0.00000    0.00000    0.00000    8
   19      0.405D-09      0.553D-10      -377.58607712    746.236137    0.00000    0.00000    0.00000    8
   20      0.137D-09      0.141D-10      -377.58607712    746.236137    0.00000    0.00000    0.00000    7
   21      0.364D-10      0.477D-11      -377.58607712    746.236137    0.00000    0.00000    0.00000    7
   22      0.121D-10      0.181D-11      -377.58607712    746.236137    0.00000    0.00000    0.00000    0

 Final occupancy:  12  12

 !RHF STATE 1.1 Energy               -377.586077118282
 Nuclear energy                       235.53066739
 One-electron energy                 -986.23481324
 Two-electron energy                  373.11806873
 Virial quotient                       -1.00122992
 !RHF STATE 1.1 Dipole moment           0.00000000     0.00000000     0.00000000
 Dipole moment /Debye                   0.00000000     0.00000000     0.00000000

 Orbital energies:

         1.1          2.1          3.1          4.1          5.1          6.1          7.1          8.1          9.1         10.1
    -20.613827   -20.575514   -11.412068    -1.482087    -1.369629    -0.914404    -0.728057    -0.688812    -0.628854    -0.615091

        11.1         12.1         13.1         14.1
     -0.498413    -0.489558     0.165963     0.204189

         1.2          2.2          3.2          4.2          5.2          6.2          7.2          8.2          9.2         10.2
    -20.613825   -20.575515   -11.412068    -1.469364    -1.383625    -0.878491    -0.763266    -0.719300    -0.638421    -0.573625

        11.2         12.2         13.2         14.2
     -0.487744    -0.467781     0.160902     0.209787


 **********************************************************************************************************************************
 DATASETS  * FILE   NREC   LENGTH (MB)   RECORD NAMES
              1      19       62.24       500      610      700      900      950      970     1000      129      960     1100   
                                          VAR    BASINP    GEOM    SYMINP    ZMAT    AOBASIS   BASIS     P2S    ABASIS      S 
                                         1400     1410     1200     1210     1080     1600     1650     1300     1700   
                                           T        V       H0       H01     AOSYM     SMH    MOLCAS    ERIS     OPER   

              2       3        0.53       700     1000     2100   
                                         GEOM     BASIS     RHF  

 PROGRAMS   *        TOTAL       RHF       INT
 CPU TIMES  *         2.14      0.85      1.25
 REAL TIME  *         2.63 SEC
 DISK USED  *       228.41 MB      
 GA USED    *         0.00 MB       (max)       0.00 MB       (current)
 **********************************************************************************************************************************


1PROGRAM * CCSD (Closed-shell coupled cluster)     Authors: C. Hampel, H.-J. Werner, 1991, M. Deegan, P.J. Knowles, 1992


 Convergence thresholds:  THRVAR = 1.00D-08  THRDEN = 1.00D-12

 CCSD(T)     terms to be evaluated (factor= 1.000)


 Number of core orbitals:           6 (   3   3 )
 Number of closed-shell orbitals:  18 (   9   9 )
 Number of external orbitals:      80 (  40  40 )

 Molecular orbitals read from record     2100.2  Type=RHF/CANONICAL (state 1.1)

 Number of N-1 electron functions:              18
 Number of N-2 electron functions:             171
 Number of singly external CSFs:               720
 Number of doubly external CSFs:            519120
 Total number of CSFs:                      519841

 Length of J-op  integral file:               0.00 MB
 Length of K-op  integral file:               0.41 MB
 Length of 3-ext integral record:             0.00 MB

 Memory could be reduced to 6.90 Mwords without degradation in triples

 Integral transformation finished. Total CPU:   0.39 sec, npass=  1  Memory used:   5.16 MW

 Reference energy:                   -377.58607712

 MP2 singlet pair energy:              -0.59906044
 MP2 triplet pair energy:              -0.40690375
 MP2 correlation energy:               -1.00596420
 MP2 total energy:                   -378.59204132

 SCS-MP2 correlation energy:           -0.97205709   (PS=  1.200000  PT=  0.333333)
 SCS-MP2 total energy:               -378.55813421

 ITER.      SQ.NORM     CORR.ENERGY   TOTAL ENERGY   ENERGY CHANGE        DEN1      VAR(S)    VAR(P)  DIIS     TIME
   1      1.28158330    -1.02620590  -378.61228302    -0.02024170     0.01051052  0.10D-01  0.55D-02  1  1     1.13
   2      1.30525194    -1.02808739  -378.61416451    -0.00188150    -0.02505174  0.25D-03  0.10D-02  2  2     1.91
   3      1.31827633    -1.02903656  -378.61511368    -0.00094917    -0.00595408  0.20D-03  0.42D-04  3  3     2.71
   4      1.32361852    -1.02880324  -378.61488036     0.00023332    -0.00175110  0.18D-04  0.71D-05  4  4     3.50
   5      1.32568302    -1.02871362  -378.61479074     0.00008962    -0.00045830  0.11D-05  0.68D-06  5  5     4.28
   6      1.32602664    -1.02869320  -378.61477032     0.00002042    -0.00001561  0.10D-06  0.60D-07  6  6     5.06
   7      1.32609538    -1.02868559  -378.61476271     0.00000762    -0.00000448  0.79D-08  0.88D-08  6  2     5.86
   8      1.32609863    -1.02868644  -378.61476356    -0.00000085     0.00000208  0.16D-08  0.89D-09  6  1     6.65
   9      1.32609941    -1.02868611  -378.61476323     0.00000032     0.00000091  0.33D-09  0.16D-09  6  4     7.44
  10      1.32610122    -1.02868596  -378.61476308     0.00000016    -0.00000062  0.93D-10  0.26D-10  6  3     8.24
  11      1.32610070    -1.02868608  -378.61476320    -0.00000012     0.00000025  0.21D-10  0.54D-11  6  5     9.01
  12      1.32610035    -1.02868610  -378.61476322    -0.00000002     0.00000005  0.27D-11  0.11D-11  6  6     9.80
  13      1.32610003    -1.02868614  -378.61476326    -0.00000004     0.00000013  0.31D-12  0.21D-12  6  1    10.59
  14      1.32609991    -1.02868614  -378.61476326    -0.00000000     0.00000002  0.33D-13  0.24D-13  6  2    11.38
  15      1.32609988    -1.02868615  -378.61476326    -0.00000000     0.00000001  0.76D-14  0.31D-14  6  4    12.16
  16      1.32609987    -1.02868615  -378.61476327    -0.00000000     0.00000000  0.15D-14  0.71D-15  6  5    12.95
  17      1.32609986    -1.02868615  -378.61476327    -0.00000000    -0.00000000  0.34D-15  0.93D-16  6  3    13.73
  18      1.32609986    -1.02868615  -378.61476327    -0.00000000     0.00000000  0.12D-15  0.26D-16  6  6    14.52
  19      1.32609986    -1.02868615  -378.61476327    -0.00000000     0.00000000  0.32D-16  0.79D-17  6  1    15.31
  20      1.32609986    -1.02868615  -378.61476327     0.00000000    -0.00000000  0.63D-17  0.18D-17  6  2    16.10
  21      1.32609986    -1.02868615  -378.61476327     0.00000000     0.00000000  0.12D-17  0.44D-18  6  4    16.90
  22      1.32609986    -1.02868615  -378.61476327     0.00000000    -0.00000000  0.23D-18  0.77D-19  6  5    17.70
  23      1.32609986    -1.02868615  -378.61476327     0.00000000    -0.00000000  0.36D-19  0.16D-19  6  3    18.48
  24      1.32609986    -1.02868615  -378.61476327    -0.00000000    -0.00000000  0.53D-20  0.35D-20  6  6    19.27
  25      1.32609986    -1.02868615  -378.61476327     0.00000000    -0.00000000  0.14D-20  0.72D-21  6  1    20.05

 Norm of t1 vector:      0.15246863      S-energy:     0.00000000      T1 diagnostic:  0.01796860
                                                                       D1 diagnostic:  0.06496278

 Singles amplitudes (print threshold =  0.500E-01):

         I         SYM. A    A   T(IA)

         6         1         1      0.06124983
        15         2         1      0.05944127


 Total CPU time for triples:     11.21 sec


 RESULTS
 =======

  Reference energy                   -377.586077118282
  CCSD singlet pair energy             -0.670880137915
  CCSD triplet pair energy             -0.357806009590
  CCSD correlation energy              -1.028686147503

  Triples (T) contribution             -0.031909924833
  Total correlation energy             -1.060596072336

  CCSD total energy                  -378.614763265785
  CCSD[T] energy                     -378.649957403950
  CCSD-T energy                      -378.645593537864
 !CCSD(T) total energy               -378.646673190619

 Timing summary (sec):

 STEP                 CPU(USER)    SYS     CPU(TOT)    WALL
 Transformation          0.40      0.04      0.44      0.45
 CCSD iterations        19.66      0.88     20.54     20.56
 Triples                11.21      0.32     11.53     11.54

 Program statistics:

 Available memory in ccsd:               999998604
 Min. memory needed in ccsd:               1434204
 Max. memory used in ccsd:                 1896588
 Max. memory used in cckext:               2097662 (25 integral passes)



 **********************************************************************************************************************************
 DATASETS  * FILE   NREC   LENGTH (MB)   RECORD NAMES
              1      20       92.54       500      610      700      900      950      970     1000      129      960     1100   
                                          VAR    BASINP    GEOM    SYMINP    ZMAT    AOBASIS   BASIS     P2S    ABASIS      S 
                                         1400     1410     1200     1210     1080     1600     1650     1300     1700     1380   
                                           T        V       H0       H01     AOSYM     SMH    MOLCAS    ERIS     OPER     JKOP   

              2       3        0.53       700     1000     2100   
                                         GEOM     BASIS     RHF  

 PROGRAMS   *        TOTAL   CCSD(T)       RHF       INT
 CPU TIMES  *        33.41     31.27      0.85      1.25
 REAL TIME  *        35.22 SEC
 DISK USED  *       258.43 MB      
 GA USED    *         0.00 MB       (max)       0.00 MB       (current)
 **********************************************************************************************************************************

        CCSD(T)         RHF-SCF 
   -378.64667319   -377.58607712
 **********************************************************************************************************************************
 Variable memory released
