
 Primary working directories    : /tmp/999602.625.gen6.q
 Secondary working directories  : /tmp/999602.625.gen6.q
 Wavefunction directory         : /home/vulcan/jj04645/wfu/
 Main file repository           : /tmp/999602.625.gen6.q/

 ARCHNAME  : Linux/x86_64
 FC        : /opt/intel/compilers_and_libraries_2016.1.150/linux/bin/intel64/ifort
 FCVERSION : 16.0.1
 BLASLIB   : -mkl
 id        : ccgc

 Nodes     nprocs
 n077         1
 ga_uses_ma=false, calling ma_init with nominal heap.
 GA-space will be limited to   8.0 MW (determined by -G option)

 Using customized tuning parameters: mindgm=10; mindgv=16; mindgc=4; mindgr=1; noblas=0; mincuda=1000; minvec=7
 default implementation of scratch files=df  

 ***,Optimization of 1,3-difluorobenzene
 memory,1000,m
 gthresh,energy=1.0d-12,orbital=1.0d-10,oneint=1.0d-16,twoint=1.0d-16,optgrad=1.0d-6,compress=1.0d-13
 geomtyp=xyz
 
 bohr
 geometry = {
  F   -0.0004722450    4.4306958894   -1.7592468997
  C   -0.0014510159    2.2389992232   -0.4799935527
  C   -0.0034602734   -2.3007426892    2.1461057591
  C   -0.0003993555   -0.0000000000   -1.8545135977
  C   -0.0034602734    2.3007426892    2.1461057591
  C   -0.0044499108    0.0000000000    3.4395616414
  C   -0.0014510159   -2.2389992232   -0.4799935527
  H    0.0011625386   -0.0000000000   -3.8959089931
  H    0.0102341862    4.0943043177    3.1230389200
  H   -0.0060145761    0.0000000000    5.4845789319
  F   -0.0004722450   -4.4306958894   -1.7592468997
  H    0.0102341862   -4.0943043177    3.1230389200
 }
 
 basis=VDZ
 {rhf;maxit,200}
 {ccsd(t);maxit,200}

 Variables initialized (661), CPU time= 0.00 sec
 Commands  initialized (458), CPU time= 0.00 sec, 486 directives.
 Default parameters read. Elapsed time= 0.04 sec

 Checking input...
 Passed
1


                                         ***  PROGRAM SYSTEM MOLPRO  ***
                         Copyright, University College Cardiff Consultants Limited, 2008

                                    Version 2010.1 linked May 16 2016 07:17:05


 **********************************************************************************************************************************
 LABEL *   Optimization of 1,3-difluorobenzene                                           
 Linux-4.4.3/n077(x86_64) 64 bit mpp version                                             DATE: 07-Feb-24          TIME: 17:16:22  
 **********************************************************************************************************************************

 SHA1:             9e8077add272b0f3cad6f7df79ec5211205f459d
 **********************************************************************************************************************************

 THRESHOLDS:

 ZERO    =  1.00D-12  ONEINT  =  1.00D-16  TWOINT  =  1.00D-16  PREFAC  =  1.00D-14  LOCALI  =  1.00D-09  EORDER  =  1.00D-04
 ENERGY  =  1.00D-12  ETEST   =  0.00D+00  EDENS   =  0.00D+00  THRDEDEF=  1.00D-06  GRADIENT=  1.00D-02  STEP    =  1.00D-03
 ORBITAL =  1.00D-10  CIVEC   =  1.00D-05  COEFF   =  1.00D-04  PRINTCI =  5.00D-02  PUNCHCI =  9.90D+01  OPTGRAD =  1.00D-06
 OPTENERG=  1.00D-06  OPTSTEP =  3.00D-04  THRGRAD =  1.00D-10  COMPRESS=  1.00D-13  VARMIN  =  1.00D-07  VARMAX  =  1.00D-03
 THRDOUB =  0.00D+00  THRDIV  =  1.00D-05  THRRED  =  1.00D-07  THRPSP  =  1.00D+00  THRDC   =  1.00D-10  THRCS   =  1.00D-10
 THRNRM  =  1.00D-08  THREQ   =  0.00D+00  THRDE   =  1.00D+00  THRREF  =  1.00D-05  SPARFAC =  1.00D+00  THRDLP  =  1.00D-07
 THRDIA  =  1.00D-10  THRDLS  =  1.00D-07  THRGPS  =  0.00D+00  THRKEX  =  0.00D+00  THRDIS  =  2.00D-01  THRVAR  =  1.00D-10
 THRLOC  =  1.00D-06  THRGAP  =  1.00D-06  THRLOCT = -1.00D+00  THRGAPT = -1.00D+00  THRORB  =  1.00D-06  THRMLTP =  0.00D+00
 THRCPQCI=  1.00D-10  KEXTA   =  0.00D+00  THRCOARS=  0.00D+00  SYMTOL  =  1.00D-06  GRADTOL =  1.00D-06  THROVL  =  1.00D-08
 THRORTH =  1.00D-08  GRID    =  1.00D-06  GRIDMAX =  1.00D-03  DTMAX   =  0.00D+00

 SETTING GEOMTYP        =    XYZ
 ZUNIT=BOHR
 

 Variable memory set to 1000000000 words,  buffer space   230000 words

 SETTING BASIS          =    VDZ


 Recomputing integrals since basis changed


 Using spherical harmonics

 Library entry F      S cc-pVDZ              selected for orbital group  1
 Library entry F      P cc-pVDZ              selected for orbital group  1
 Library entry F      D cc-pVDZ              selected for orbital group  1
 Library entry C      S cc-pVDZ              selected for orbital group  2
 Library entry C      P cc-pVDZ              selected for orbital group  2
 Library entry C      D cc-pVDZ              selected for orbital group  2
 Library entry H      S cc-pVDZ              selected for orbital group  3
 Library entry H      P cc-pVDZ              selected for orbital group  3

1PROGRAM * SEWARD (Integral evaluation for generally contracted gaussian basis sets)     Author: Roland Lindh, 1990

 Geometry written to block  1 of record 700


 Point group  Cs  



 ATOMIC COORDINATES

 NR  ATOM    CHARGE       X              Y              Z

   1  F       9.00   -0.000472245    4.430695889   -1.759246900
   2  F       9.00   -0.000472245   -4.430695889   -1.759246900
   3  C       6.00   -0.001451016    2.238999223   -0.479993553
   4  C       6.00   -0.001451016   -2.238999223   -0.479993553
   5  C       6.00   -0.003460273   -2.300742689    2.146105759
   6  C       6.00   -0.003460273    2.300742689    2.146105759
   7  C       6.00   -0.000399356    0.000000000   -1.854513598
   8  C       6.00   -0.004449911    0.000000000    3.439561641
   9  H       1.00    0.001162539    0.000000000   -3.895908993
  10  H       1.00    0.010234186    4.094304318    3.123038920
  11  H       1.00    0.010234186   -4.094304318    3.123038920
  12  H       1.00   -0.006014576    0.000000000    5.484578932

 Bond lengths in Bohr (Angstrom)

 1-3  2.537720308  2-4  2.537720308  3-6  2.626825820  3-7  2.627246464  4-5  2.626825820
     ( 1.342903750)     ( 1.342903750)     ( 1.390056356)     ( 1.390278951)     ( 1.390056356)

  4- 7  2.627246464   5- 8  2.639402588   5-11  2.042412606   6- 8  2.639402588   6-10  2.042412606
       ( 1.390278951)       ( 1.396711695)       ( 1.080798203)       ( 1.396711695)       ( 1.080798203)

  7- 9  2.041395993   8-12  2.045017889
       ( 1.080260234)       ( 1.082176859)

 Bond angles

  1-3-6  118.92447706   1-3-7  118.18292121   2-4-5  118.92447706   2-4-7  118.18292121

  3- 6- 8  117.99743220   3- 6-10  119.92241083   3- 7- 4  116.90851593   3- 7- 9  121.54574203

  4- 5- 8  117.99743220   4- 5-11  119.92241083   4- 7- 9  121.54574203   5- 4- 7  122.89260174

  5- 8- 6  121.31141620   5- 8-12  119.34429190   6- 3- 7  122.89260174   6- 8-12  119.34429190

  8- 5-11  122.07843473   8- 6-10  122.07843473

 NUCLEAR CHARGE:                   58
 NUMBER OF PRIMITIVE AOS:         244
 NUMBER OF SYMMETRY AOS:          236
 NUMBER OF CONTRACTIONS:          132   (  75A'  +  57A"  )
 NUMBER OF CORE ORBITALS:           8   (   5A'  +   3A"  )
 NUMBER OF VALENCE ORBITALS:       36   (  21A'  +  15A"  )


 NUCLEAR REPULSION ENERGY  342.43025878


 Eigenvalues of metric

         1 0.394E-03 0.168E-02 0.307E-02 0.129E-01 0.148E-01 0.202E-01 0.238E-01 0.265E-01
         2 0.121E-02 0.262E-02 0.317E-02 0.125E-01 0.220E-01 0.267E-01 0.396E-01 0.618E-01


 Contracted 2-electron integrals neglected if value below      1.0D-16
 AO integral compression algorithm  1   Integral accuracy      1.0D-16

     158.335 MB (compressed) written to integral file ( 87.5%)

     Node minimum: 158.335 MB, node maximum: 158.335 MB


 NUMBER OF SORTED TWO-ELECTRON INTEGRALS:   19562856.     BUFFER LENGTH:  32768
 NUMBER OF SEGMENTS:   2  SEGMENT LENGTH:   15997506      RECORD LENGTH: 524288

 Memory used in sort:      16.55 MW

 SORT1 READ    22601070. AND WROTE    19308617. INTEGRALS IN     57 RECORDS. CPU TIME:     0.25 SEC, REAL TIME:     0.36 SEC
 SORT2 READ    19308617. AND WROTE    19562856. INTEGRALS IN    604 RECORDS. CPU TIME:     0.19 SEC, REAL TIME:     0.29 SEC

 FILE SIZES:   FILE 1:   143.2 MBYTE,  FILE 4:   239.1 MBYTE,   TOTAL:    382.3 MBYTE

 OPERATOR DM      FOR CENTER  0  COORDINATES:    0.000000    0.000000    0.000000


 **********************************************************************************************************************************
 DATASETS  * FILE   NREC   LENGTH (MB)   RECORD NAMES
              1      19      143.29       500      610      700      900      950      970     1000      129      960     1100   
                                          VAR    BASINP    GEOM    SYMINP    ZMAT    AOBASIS   BASIS     P2S    ABASIS      S 
                                         1400     1410     1200     1210     1080     1600     1650     1300     1700   
                                           T        V       H0       H01     AOSYM     SMH    MOLCAS    ERIS     OPER   

 PROGRAMS   *        TOTAL       INT
 CPU TIMES  *         2.34      2.31
 REAL TIME  *         2.80 SEC
 DISK USED  *       541.50 MB      
 GA USED    *         0.00 MB       (max)       0.00 MB       (current)
 **********************************************************************************************************************************

1PROGRAM * RHF-SCF (CLOSED SHELL)       Authors: W. Meyer, H.-J. Werner


 NUMBER OF ELECTRONS:      29+   29-
 CONVERGENCE THRESHOLDS:    1.00E-10 (Density)    1.00E-13 (Energy)
 MAX. NUMBER OF ITERATIONS:      200
 INTERPOLATION TYPE:            DIIS
 INTERPOLATION STEPS:              2 (START)      1 (STEP)
 LEVEL SHIFTS:                  0.00 (CLOSED)  0.00 (OPEN) 



 Orbital guess generated from atomic densities. Full valence occupancy:   26  18

 Molecular orbital dump at record        2100.2

 Initial alpha occupancy:  17  12
 Initial beta  occupancy:  17  12
 Wave function symmetry:    1

 ITERATION    DDIFF          GRAD             ENERGY        2-EL.EN.            DIPOLE MOMENTS         DIIS
    1      0.000D+00      0.000D+00      -428.34397096    993.202662    0.00499    0.00000    0.47676    0
    2      0.000D+00      0.846D-02      -428.41804710    992.742658    0.00368    0.00000    0.92328    1
    3      0.174D-01      0.384D-02      -428.43190733    993.072349    0.00456    0.00000    0.62094    2
    4      0.554D-02      0.102D-02      -428.43346415    993.129746    0.00443    0.00000    0.73379    3
    5      0.208D-02      0.307D-03      -428.43359816    993.094620    0.00446    0.00000    0.70089    4
    6      0.521D-03      0.638D-04      -428.43360574    993.103445    0.00446    0.00000    0.70523    5
    7      0.137D-03      0.193D-04      -428.43360675    993.106779    0.00446    0.00000    0.70359    6
    8      0.456D-04      0.674D-05      -428.43360687    993.106044    0.00446    0.00000    0.70401    7
    9      0.150D-04      0.298D-05      -428.43360689    993.106386    0.00446    0.00000    0.70374    8
   10      0.774D-05      0.111D-05      -428.43360690    993.106935    0.00446    0.00000    0.70380    7
   11      0.334D-05      0.642D-06      -428.43360690    993.106828    0.00446    0.00000    0.70378    8
   12      0.210D-05      0.268D-06      -428.43360690    993.106921    0.00446    0.00000    0.70378    8
   13      0.136D-05      0.465D-07      -428.43360690    993.106947    0.00446    0.00000    0.70378    8
   14      0.142D-06      0.190D-07      -428.43360690    993.106942    0.00446    0.00000    0.70378    9
   15      0.650D-07      0.403D-08      -428.43360690    993.106942    0.00446    0.00000    0.70378    9
   16      0.100D-07      0.151D-08      -428.43360690    993.106943    0.00446    0.00000    0.70378    9
   17      0.371D-08      0.622D-09      -428.43360690    993.106942    0.00446    0.00000    0.70378    8
   18      0.181D-08      0.107D-09      -428.43360690    993.106942    0.00446    0.00000    0.70378    7
   19      0.299D-09      0.318D-10      -428.43360690    993.106942    0.00446    0.00000    0.70378    7
   20      0.737D-10      0.118D-10      -428.43360690    993.106942    0.00446    0.00000    0.70378    0

 Final occupancy:  17  12

 !RHF STATE 1.1 Energy               -428.433606902725
 Nuclear energy                       342.43025878
 One-electron energy                -1267.41733691
 Two-electron energy                  496.55347122
 Virial quotient                       -1.00059515
 !RHF STATE 1.1 Dipole moment           0.00446183     0.00000000     0.70378291
 Dipole moment /Debye                   0.01134010     0.00000000     1.78872056

 Orbital energies:

         1.1          2.1          3.1          4.1          5.1          6.1          7.1          8.1          9.1         10.1
    -26.320573   -11.349564   -11.272898   -11.258771   -11.255802    -1.639344    -1.179004    -1.046900    -0.875012    -0.774373

        11.1         12.1         13.1         14.1         15.1         16.1         17.1         18.1         19.1
     -0.703744    -0.703160    -0.668097    -0.623083    -0.532897    -0.513731    -0.360345     0.113856     0.179826

         1.2          2.2          3.2          4.2          5.2          6.2          7.2          8.2          9.2         10.2
    -26.320574   -11.349559   -11.255855    -1.638742    -1.036937    -0.865046    -0.740870    -0.695666    -0.684541    -0.586034

        11.2         12.2         13.2         14.2
     -0.555675    -0.348399     0.131914     0.226626


 **********************************************************************************************************************************
 DATASETS  * FILE   NREC   LENGTH (MB)   RECORD NAMES
              1      19      143.29       500      610      700      900      950      970     1000      129      960     1100   
                                          VAR    BASINP    GEOM    SYMINP    ZMAT    AOBASIS   BASIS     P2S    ABASIS      S 
                                         1400     1410     1200     1210     1080     1600     1650     1300     1700   
                                           T        V       H0       H01     AOSYM     SMH    MOLCAS    ERIS     OPER   

              2       3        0.65       700     1000     2100   
                                         GEOM     BASIS     RHF  

 PROGRAMS   *        TOTAL       RHF       INT
 CPU TIMES  *         4.26      1.91      2.31
 REAL TIME  *         5.04 SEC
 DISK USED  *       541.50 MB      
 GA USED    *         0.00 MB       (max)       0.00 MB       (current)
 **********************************************************************************************************************************


1PROGRAM * CCSD (Closed-shell coupled cluster)     Authors: C. Hampel, H.-J. Werner, 1991, M. Deegan, P.J. Knowles, 1992


 Convergence thresholds:  THRVAR = 1.00D-08  THRDEN = 1.00D-12

 CCSD(T)     terms to be evaluated (factor= 1.000)


 Number of core orbitals:           8 (   5   3 )
 Number of closed-shell orbitals:  21 (  12   9 )
 Number of external orbitals:     103 (  58  45 )

 Molecular orbitals read from record     2100.2  Type=RHF/CANONICAL (state 1.1)

 Number of N-1 electron functions:              21
 Number of N-2 electron functions:             231
 Number of singly external CSFs:              1101
 Number of doubly external CSFs:           1171104
 Total number of CSFs:                     1172206

 Length of J-op  integral file:               0.00 MB
 Length of K-op  integral file:               0.64 MB
 Length of 3-ext integral record:             0.00 MB

 Memory could be reduced to 15.99 Mwords without degradation in triples

 Integral transformation finished. Total CPU:   0.80 sec, npass=  1  Memory used:  11.37 MW

 Reference energy:                   -428.43360690

 MP2 singlet pair energy:              -0.67260390
 MP2 triplet pair energy:              -0.46569669
 MP2 correlation energy:               -1.13830058
 MP2 total energy:                   -429.57190748

 SCS-MP2 correlation energy:           -1.09689150   (PS=  1.200000  PT=  0.333333)
 SCS-MP2 total energy:               -429.53049840

 ITER.      SQ.NORM     CORR.ENERGY   TOTAL ENERGY   ENERGY CHANGE        DEN1      VAR(S)    VAR(P)  DIIS     TIME
   1      1.36206856    -1.16805975  -429.60166666    -0.02975917     0.00047283  0.67D-02  0.73D-02  1  1     2.81
   2      1.38852989    -1.17159086  -429.60519776    -0.00353111    -0.02699314  0.13D-03  0.11D-02  2  2     4.90
   3      1.39932810    -1.17219296  -429.60579987    -0.00060210    -0.00538190  0.86D-04  0.99D-04  3  3     6.98
   4      1.40336237    -1.17211850  -429.60572540     0.00007446    -0.00142440  0.49D-05  0.20D-04  4  4     9.07
   5      1.40520417    -1.17214913  -429.60575603    -0.00003063    -0.00045052  0.92D-06  0.22D-05  5  5    11.15
   6      1.40568123    -1.17215490  -429.60576181    -0.00000578    -0.00006809  0.13D-06  0.24D-06  6  6    13.24
   7      1.40576887    -1.17214990  -429.60575680     0.00000501     0.00000025  0.30D-07  0.22D-07  6  1    15.33
   8      1.40579406    -1.17215103  -429.60575793    -0.00000113    -0.00000758  0.65D-08  0.30D-08  6  2    17.41
   9      1.40579550    -1.17215170  -429.60575860    -0.00000067     0.00000229  0.19D-08  0.35D-09  6  3    19.50
  10      1.40579794    -1.17215147  -429.60575838     0.00000023    -0.00000123  0.39D-09  0.79D-10  6  4    21.59
  11      1.40579802    -1.17215172  -429.60575862    -0.00000024     0.00000033  0.45D-10  0.21D-10  6  5    23.68
  12      1.40579821    -1.17215170  -429.60575860     0.00000002    -0.00000007  0.11D-10  0.24D-11  6  6    25.77
  13      1.40579820    -1.17215172  -429.60575862    -0.00000002     0.00000005  0.58D-12  0.57D-12  6  1    27.85
  14      1.40579819    -1.17215173  -429.60575863    -0.00000001     0.00000002  0.15D-12  0.88D-13  6  2    29.94
  15      1.40579818    -1.17215173  -429.60575863     0.00000000     0.00000000  0.41D-13  0.14D-13  6  3    32.01
  16      1.40579818    -1.17215173  -429.60575863    -0.00000000     0.00000000  0.64D-14  0.42D-14  6  4    34.10
  17      1.40579818    -1.17215173  -429.60575863    -0.00000000    -0.00000000  0.16D-14  0.72D-15  6  5    36.19
  18      1.40579818    -1.17215173  -429.60575863    -0.00000000    -0.00000000  0.21D-15  0.11D-15  6  6    38.28
  19      1.40579818    -1.17215173  -429.60575863    -0.00000000    -0.00000000  0.31D-16  0.23D-16  6  1    40.37
  20      1.40579818    -1.17215173  -429.60575863     0.00000000    -0.00000000  0.13D-16  0.29D-17  6  2    42.46
  21      1.40579818    -1.17215173  -429.60575863    -0.00000000    -0.00000000  0.14D-17  0.67D-18  6  3    44.55
  22      1.40579818    -1.17215173  -429.60575863     0.00000000    -0.00000000  0.43D-18  0.14D-18  6  4    46.64
  23      1.40579818    -1.17215173  -429.60575863     0.00000000    -0.00000000  0.84D-19  0.23D-19  6  5    48.74
  24      1.40579818    -1.17215173  -429.60575863    -0.00000000    -0.00000000  0.72D-20  0.49D-20  6  6    50.83
  25      1.40579818    -1.17215173  -429.60575863    -0.00000000     0.00000000  0.18D-20  0.11D-20  6  1    52.92

 Norm of t1 vector:      0.10839663      S-energy:     0.00000000      T1 diagnostic:  0.01182704
                                                                       D1 diagnostic:  0.03176030

 Doubles amplitudes (print threshold =  0.500E-01):

         I         J         SYM. A    SYM. B    A         B      T(IJ, AB)

        12        12         1         1         1         1     -0.08674720
        21        21         2         2         1         1     -0.08394786
        21        12         1         2         1         1     -0.05128604


 Total CPU time for triples:     36.57 sec


 RESULTS
 =======

  Reference energy                   -428.433606902725
  CCSD singlet pair energy             -0.756675595615
  CCSD triplet pair energy             -0.415476132710
  CCSD correlation energy              -1.172151728319

  Triples (T) contribution             -0.043062445362
  Total correlation energy             -1.215214173681

  CCSD total energy                  -429.605758631044
  CCSD[T] energy                     -429.650821977297
  CCSD-T energy                      -429.648097090171
 !CCSD(T) total energy               -429.648821076406

 Timing summary (sec):

 STEP                 CPU(USER)    SYS     CPU(TOT)    WALL
 Transformation          0.83      0.12      0.95      0.94
 CCSD iterations        52.09      1.65     53.74     53.82
 Triples                36.57      1.31     37.88     37.89

 Program statistics:

 Available memory in ccsd:               999998136
 Min. memory needed in ccsd:               3061744
 Max. memory used in ccsd:                 4118008
 Max. memory used in cckext:               4447226 (25 integral passes)



 **********************************************************************************************************************************
 DATASETS  * FILE   NREC   LENGTH (MB)   RECORD NAMES
              1      20      214.05       500      610      700      900      950      970     1000      129      960     1100   
                                          VAR    BASINP    GEOM    SYMINP    ZMAT    AOBASIS   BASIS     P2S    ABASIS      S 
                                         1400     1410     1200     1210     1080     1600     1650     1300     1700     1380   
                                           T        V       H0       H01     AOSYM     SMH    MOLCAS    ERIS     OPER     JKOP   

              2       3        0.65       700     1000     2100   
                                         GEOM     BASIS     RHF  

 PROGRAMS   *        TOTAL   CCSD(T)       RHF       INT
 CPU TIMES  *        93.76     89.51      1.91      2.31
 REAL TIME  *        97.72 SEC
 DISK USED  *       575.09 MB      
 GA USED    *         0.00 MB       (max)       0.00 MB       (current)
 **********************************************************************************************************************************

        CCSD(T)         RHF-SCF 
   -429.64882108   -428.43360690
 **********************************************************************************************************************************
 Variable memory released
