
 Primary working directories    : /tmp/1221498.29.gen4.q
 Secondary working directories  : /tmp/1221498.29.gen4.q
 Wavefunction directory         : /home/vulcan/mel64643/wfu/
 Main file repository           : /tmp/1221498.29.gen4.q/

 ARCHNAME  : Linux/x86_64
 FC        : /opt/intel/compilers_and_libraries_2016.1.150/linux/bin/intel64/ifort
 FCVERSION : 16.0.1
 BLASLIB   : -mkl
 id        : ccgc

 Nodes     nprocs
 n056         1
 ga_uses_ma=false, calling ma_init with nominal heap.
 GA-space will be limited to   8.0 MW (determined by -G option)

 Using customized tuning parameters: mindgm=10; mindgv=16; mindgc=4; mindgr=1; noblas=0; mincuda=1000; minvec=7
 default implementation of scratch files=df  

 ***,Optimization of min3
 memory,1000,m
 gthresh,energy=1.0d-12,orbital=1.0d-10,oneint=1.0d-16,twoint=1.0d-16,optgrad=1.0d-6,compress=1.0d-13
 geomtyp=xyz
 
 
 
  bohr
  geometry = {
  H    0.0543396636    2.8401874675    0.0000000000
  C    0.1862183532    0.7857594353    0.0000000000
  O    2.1269112428   -0.4015621091    0.0000000000
  O   -2.1488520220   -0.2322823519    0.0000000000
  H   -1.9266823824   -2.0519017731   -0.0000000000
 }
 
 basis=aug-cc-pvtz
 {rhf;maxit,200}
 {ccsd(t);maxit,200}

 Variables initialized (661), CPU time= 0.00 sec
 Commands  initialized (458), CPU time= 0.00 sec, 486 directives.
 Default parameters read. Elapsed time= 0.04 sec

 Checking input...
 Passed
1


                                         ***  PROGRAM SYSTEM MOLPRO  ***
                         Copyright, University College Cardiff Consultants Limited, 2008

                                    Version 2010.1 linked May 16 2016 07:17:05


 **********************************************************************************************************************************
 LABEL *   Optimization of min3                                                          
 Linux-4.4.3/n056(x86_64) 64 bit mpp version                                             DATE: 08-Feb-25          TIME: 16:35:29  
 **********************************************************************************************************************************

 SHA1:             9e8077add272b0f3cad6f7df79ec5211205f459d
 **********************************************************************************************************************************

 THRESHOLDS:

 ZERO    =  1.00D-12  ONEINT  =  1.00D-16  TWOINT  =  1.00D-16  PREFAC  =  1.00D-14  LOCALI  =  1.00D-09  EORDER  =  1.00D-04
 ENERGY  =  1.00D-12  ETEST   =  0.00D+00  EDENS   =  0.00D+00  THRDEDEF=  1.00D-06  GRADIENT=  1.00D-02  STEP    =  1.00D-03
 ORBITAL =  1.00D-10  CIVEC   =  1.00D-05  COEFF   =  1.00D-04  PRINTCI =  5.00D-02  PUNCHCI =  9.90D+01  OPTGRAD =  1.00D-06
 OPTENERG=  1.00D-06  OPTSTEP =  3.00D-04  THRGRAD =  1.00D-10  COMPRESS=  1.00D-13  VARMIN  =  1.00D-07  VARMAX  =  1.00D-03
 THRDOUB =  0.00D+00  THRDIV  =  1.00D-05  THRRED  =  1.00D-07  THRPSP  =  1.00D+00  THRDC   =  1.00D-10  THRCS   =  1.00D-10
 THRNRM  =  1.00D-08  THREQ   =  0.00D+00  THRDE   =  1.00D+00  THRREF  =  1.00D-05  SPARFAC =  1.00D+00  THRDLP  =  1.00D-07
 THRDIA  =  1.00D-10  THRDLS  =  1.00D-07  THRGPS  =  0.00D+00  THRKEX  =  0.00D+00  THRDIS  =  2.00D-01  THRVAR  =  1.00D-10
 THRLOC  =  1.00D-06  THRGAP  =  1.00D-06  THRLOCT = -1.00D+00  THRGAPT = -1.00D+00  THRORB  =  1.00D-06  THRMLTP =  0.00D+00
 THRCPQCI=  1.00D-10  KEXTA   =  0.00D+00  THRCOARS=  0.00D+00  SYMTOL  =  1.00D-06  GRADTOL =  1.00D-06  THROVL  =  1.00D-08
 THRORTH =  1.00D-08  GRID    =  1.00D-06  GRIDMAX =  1.00D-03  DTMAX   =  0.00D+00

 SETTING GEOMTYP        =    XYZ
 ZUNIT=BOHR
 

 Variable memory set to 1000000000 words,  buffer space   230000 words

 SETTING BASIS          =    AUG-CC-PVTZ


 Recomputing integrals since basis changed


 Using spherical harmonics

 Library entry H      S aug-cc-pVTZ          selected for orbital group  1
 Library entry H      P aug-cc-pVTZ          selected for orbital group  1
 Library entry H      D aug-cc-pVTZ          selected for orbital group  1
 Library entry C      S aug-cc-pVTZ          selected for orbital group  2
 Library entry C      P aug-cc-pVTZ          selected for orbital group  2
 Library entry C      D aug-cc-pVTZ          selected for orbital group  2
 Library entry C      F aug-cc-pVTZ          selected for orbital group  2
 Library entry O      S aug-cc-pVTZ          selected for orbital group  3
 Library entry O      P aug-cc-pVTZ          selected for orbital group  3
 Library entry O      D aug-cc-pVTZ          selected for orbital group  3
 Library entry O      F aug-cc-pVTZ          selected for orbital group  3

1PROGRAM * SEWARD (Integral evaluation for generally contracted gaussian basis sets)     Author: Roland Lindh, 1990

 Geometry written to block  1 of record 700


 Point group  Cs  



 ATOMIC COORDINATES

 NR  ATOM    CHARGE       X              Y              Z

   1  H       1.00    0.054339664    2.840187467    0.000000000
   2  C       6.00    0.186218353    0.785759435    0.000000000
   3  O       8.00    2.126911243   -0.401562109    0.000000000
   4  O       8.00   -2.148852022   -0.232282352    0.000000000
   5  H       1.00   -1.926682382   -2.051901773    0.000000000

 Bond lengths in Bohr (Angstrom)

 1-2  2.058656486  2-3  2.275087106  2-4  2.547344252  4-5  1.833132343
     ( 1.089394094)     ( 1.203924245)     ( 1.347996522)     ( 0.970051857)

 Bond angles

  1-2-3  125.13133070   1-2-4  109.88327871   2-4-5  106.59501945   3-2-4  124.98539058

 NUCLEAR CHARGE:                   24
 NUMBER OF PRIMITIVE AOS:         255
 NUMBER OF SYMMETRY AOS:          224
 NUMBER OF CONTRACTIONS:          184   ( 122A'  +  62A"  )
 NUMBER OF CORE ORBITALS:           3   (   3A'  +   0A"  )
 NUMBER OF VALENCE ORBITALS:       14   (  11A'  +   3A"  )


 NUCLEAR REPULSION ENERGY   70.08468505


 Eigenvalues of metric

         1 0.682E-04 0.168E-03 0.304E-03 0.394E-03 0.479E-03 0.753E-03 0.929E-03 0.128E-02
         2 0.353E-02 0.437E-02 0.654E-02 0.104E-01 0.140E-01 0.207E-01 0.275E-01 0.310E-01


 Contracted 2-electron integrals neglected if value below      1.0D-16
 AO integral compression algorithm  1   Integral accuracy      1.0D-16

     705.954 MB (compressed) written to integral file (100.0%)

     Node minimum: 705.954 MB, node maximum: 705.954 MB


 NUMBER OF SORTED TWO-ELECTRON INTEGRALS:   74019414.     BUFFER LENGTH:  32768
 NUMBER OF SEGMENTS:   5  SEGMENT LENGTH:   15997996      RECORD LENGTH: 524288

 Memory used in sort:      16.56 MW

 SORT1 READ    87886196. AND WROTE    73256978. INTEGRALS IN    212 RECORDS. CPU TIME:     0.88 SEC, REAL TIME:     1.34 SEC
 SORT2 READ    73256978. AND WROTE    74019414. INTEGRALS IN   2693 RECORDS. CPU TIME:     0.60 SEC, REAL TIME:     0.93 SEC

 FILE SIZES:   FILE 1:   603.7 MBYTE,  FILE 4:   889.2 MBYTE,   TOTAL:   1492.9 MBYTE

 OPERATOR DM      FOR CENTER  0  COORDINATES:    0.000000    0.000000    0.000000


 **********************************************************************************************************************************
 DATASETS  * FILE   NREC   LENGTH (MB)   RECORD NAMES
              1      19      603.92       500      610      700      900      950      970     1000      129      960     1100   
                                          VAR    BASINP    GEOM    SYMINP    ZMAT    AOBASIS   BASIS     P2S    ABASIS      S 
                                         1400     1410     1200     1210     1080     1600     1650     1300     1700   
                                           T        V       H0       H01     AOSYM     SMH    MOLCAS    ERIS     OPER   

 PROGRAMS   *        TOTAL       INT
 CPU TIMES  *         6.06      6.02
 REAL TIME  *         7.52 SEC
 DISK USED  *         2.20 GB      
 GA USED    *         0.00 MB       (max)       0.00 MB       (current)
 **********************************************************************************************************************************

1PROGRAM * RHF-SCF (CLOSED SHELL)       Authors: W. Meyer, H.-J. Werner


 NUMBER OF ELECTRONS:      12+   12-
 CONVERGENCE THRESHOLDS:    1.00E-10 (Density)    1.00E-13 (Energy)
 MAX. NUMBER OF ITERATIONS:      200
 INTERPOLATION TYPE:            DIIS
 INTERPOLATION STEPS:              2 (START)      1 (STEP)
 LEVEL SHIFTS:                  0.00 (CLOSED)  0.00 (OPEN) 



 Orbital guess generated from atomic densities. Full valence occupancy:   14   3

 Molecular orbital dump at record        2100.2

 Initial alpha occupancy:  10   2
 Initial beta  occupancy:  10   2
 Wave function symmetry:    1

 ITERATION    DDIFF          GRAD             ENERGY        2-EL.EN.            DIPOLE MOMENTS         DIIS
    1      0.000D+00      0.000D+00      -188.76145144    278.778787   -1.11878    0.18690    0.00000    0
    2      0.000D+00      0.650D-02      -188.80789954    276.667346   -0.42884   -0.06473    0.00000    1
    3      0.108D-01      0.473D-02      -188.84252634    277.891659   -0.72524    0.17060    0.00000    2
    4      0.444D-02      0.570D-03      -188.84346493    277.823968   -0.65660    0.15539    0.00000    3
    5      0.795D-03      0.269D-03      -188.84366903    277.797712   -0.66723    0.16435    0.00000    4
    6      0.354D-03      0.805D-04      -188.84370694    277.827562   -0.65933    0.16544    0.00000    5
    7      0.143D-03      0.340D-04      -188.84371547    277.817464   -0.65741    0.16487    0.00000    6
    8      0.816D-04      0.121D-04      -188.84371643    277.822186   -0.65671    0.16428    0.00000    7
    9      0.303D-04      0.374D-05      -188.84371651    277.821175   -0.65650    0.16419    0.00000    8
   10      0.906D-05      0.976D-06      -188.84371652    277.821300   -0.65642    0.16411    0.00000    7
   11      0.256D-05      0.283D-06      -188.84371652    277.821299   -0.65640    0.16411    0.00000    8
   12      0.767D-06      0.583D-07      -188.84371652    277.821289   -0.65639    0.16411    0.00000    8
   13      0.112D-06      0.210D-07      -188.84371652    277.821293   -0.65639    0.16411    0.00000    8
   14      0.406D-07      0.495D-08      -188.84371652    277.821293   -0.65639    0.16411    0.00000    7
   15      0.108D-07      0.181D-08      -188.84371652    277.821293   -0.65639    0.16411    0.00000    7
   16      0.287D-08      0.658D-09      -188.84371652    277.821293   -0.65639    0.16411    0.00000    7
   17      0.107D-08      0.253D-09      -188.84371652    277.821293   -0.65639    0.16411    0.00000    7
   18      0.470D-09      0.830D-10      -188.84371652    277.821293   -0.65639    0.16411    0.00000    7
   19      0.202D-09      0.247D-10      -188.84371652    277.821293   -0.65639    0.16411    0.00000    8
   20      0.664D-10      0.657D-11      -188.84371652    277.821293   -0.65639    0.16411    0.00000    8
   21      0.147D-10      0.198D-11      -188.84371652    277.821293   -0.65639    0.16411    0.00000    8
   22      0.837D-11      0.812D-12      -188.84371652    277.821293   -0.65639    0.16411    0.00000    0

 Final occupancy:  10   2

 !RHF STATE 1.1 Energy               -188.843716521365
 Nuclear energy                        70.08468505
 One-electron energy                 -397.83904792
 Two-electron energy                  138.91064635
 Virial quotient                       -1.00187559
 !RHF STATE 1.1 Dipole moment          -0.65639277     0.16410712     0.00000000
 Dipole moment /Debye                  -1.66827474     0.41709138     0.00000000

 Orbital energies:

         1.1          2.1          3.1          4.1          5.1          6.1          7.1          8.1          9.1         10.1
    -20.629728   -20.569048   -11.398403    -1.476906    -1.377785    -0.898001    -0.725774    -0.714502    -0.607146    -0.475739

        11.1         12.1
      0.029413     0.037393

         1.2          2.2          3.2          4.2
     -0.637805    -0.498040     0.074122     0.143035


 **********************************************************************************************************************************
 DATASETS  * FILE   NREC   LENGTH (MB)   RECORD NAMES
              1      19      603.92       500      610      700      900      950      970     1000      129      960     1100   
                                          VAR    BASINP    GEOM    SYMINP    ZMAT    AOBASIS   BASIS     P2S    ABASIS      S 
                                         1400     1410     1200     1210     1080     1600     1650     1300     1700   
                                           T        V       H0       H01     AOSYM     SMH    MOLCAS    ERIS     OPER   

              2       3        0.73       700     1000     2100   
                                         GEOM     BASIS     RHF  

 PROGRAMS   *        TOTAL       RHF       INT
 CPU TIMES  *        14.20      8.14      6.02
 REAL TIME  *        17.39 SEC
 DISK USED  *         2.20 GB      
 GA USED    *         0.00 MB       (max)       0.00 MB       (current)
 **********************************************************************************************************************************


1PROGRAM * CCSD (Closed-shell coupled cluster)     Authors: C. Hampel, H.-J. Werner, 1991, M. Deegan, P.J. Knowles, 1992


 Convergence thresholds:  THRVAR = 1.00D-08  THRDEN = 1.00D-12

 CCSD(T)     terms to be evaluated (factor= 1.000)


 Number of core orbitals:           3 (   3   0 )
 Number of closed-shell orbitals:   9 (   7   2 )
 Number of external orbitals:     172 ( 112  60 )

 Molecular orbitals read from record     2100.2  Type=RHF/CANONICAL (state 1.1)

 Number of N-1 electron functions:               9
 Number of N-2 electron functions:              45
 Number of singly external CSFs:               904
 Number of doubly external CSFs:            616750
 Total number of CSFs:                      617655

 Length of J-op  integral file:               0.00 MB
 Length of K-op  integral file:               1.33 MB
 Length of 3-ext integral record:             0.00 MB

 Memory could be reduced to 31.84 Mwords without degradation in triples

 Integral transformation finished. Total CPU:   1.47 sec, npass=  1  Memory used:   9.53 MW

 Reference energy:                   -188.84371652

 MP2 singlet pair energy:              -0.39689381
 MP2 triplet pair energy:              -0.24613740
 MP2 correlation energy:               -0.64303121
 MP2 total energy:                   -189.48674774

 SCS-MP2 correlation energy:           -0.62942473   (PS=  1.200000  PT=  0.333333)
 SCS-MP2 total energy:               -189.47314126

 ITER.      SQ.NORM     CORR.ENERGY   TOTAL ENERGY   ENERGY CHANGE        DEN1      VAR(S)    VAR(P)  DIIS     TIME
   1      1.15850304    -0.64637559  -189.49009211    -0.00334438     0.01568782  0.51D-02  0.34D-02  1  1     3.00
   2      1.17037317    -0.64596710  -189.48968362     0.00040849    -0.01471299  0.11D-03  0.48D-03  2  2     4.65
   3      1.17617780    -0.64626473  -189.48998125    -0.00029763    -0.00273887  0.11D-03  0.27D-04  3  3     6.33
   4      1.17877063    -0.64613427  -189.48985079     0.00013047    -0.00097202  0.12D-04  0.50D-05  4  4     7.99
   5      1.17996729    -0.64610959  -189.48982611     0.00002468    -0.00028046  0.14D-05  0.46D-06  5  5     9.65
   6      1.18026109    -0.64608609  -189.48980261     0.00002350    -0.00003083  0.12D-06  0.55D-07  6  6    11.33
   7      1.18032057    -0.64608259  -189.48979911     0.00000350    -0.00000667  0.15D-07  0.10D-07  6  2    13.02
   8      1.18032569    -0.64608280  -189.48979932    -0.00000021     0.00000198  0.35D-08  0.12D-08  6  1    14.67
   9      1.18032944    -0.64608246  -189.48979898     0.00000035     0.00000034  0.60D-09  0.19D-09  6  3    16.32
  10      1.18032930    -0.64608259  -189.48979911    -0.00000013     0.00000016  0.13D-09  0.34D-10  6  5    17.97
  11      1.18032977    -0.64608262  -189.48979914    -0.00000003     0.00000008  0.16D-10  0.57D-11  6  4    19.63
  12      1.18032981    -0.64608262  -189.48979914     0.00000000    -0.00000002  0.27D-11  0.82D-12  6  6    21.30
  13      1.18032966    -0.64608264  -189.48979916    -0.00000002     0.00000003  0.33D-12  0.17D-12  6  1    22.96
  14      1.18032961    -0.64608264  -189.48979916     0.00000000     0.00000001  0.48D-13  0.24D-13  6  2    24.62
  15      1.18032957    -0.64608264  -189.48979916    -0.00000000     0.00000001  0.11D-13  0.34D-14  6  3    26.29
  16      1.18032956    -0.64608264  -189.48979916    -0.00000000     0.00000000  0.23D-14  0.71D-15  6  5    27.96
  17      1.18032956    -0.64608264  -189.48979916     0.00000000    -0.00000000  0.38D-15  0.16D-15  6  4    29.62
  18      1.18032957    -0.64608264  -189.48979916     0.00000000    -0.00000000  0.72D-16  0.24D-16  6  6    31.28
  19      1.18032957    -0.64608264  -189.48979916     0.00000000    -0.00000000  0.16D-16  0.38D-17  6  1    32.94
  20      1.18032957    -0.64608264  -189.48979916     0.00000000     0.00000000  0.39D-17  0.11D-17  6  2    34.61
  21      1.18032957    -0.64608264  -189.48979916    -0.00000000     0.00000000  0.32D-18  0.15D-18  6  4    36.28
  22      1.18032957    -0.64608264  -189.48979916     0.00000000     0.00000000  0.40D-19  0.26D-19  6  3    37.95
  23      1.18032957    -0.64608264  -189.48979916    -0.00000000     0.00000000  0.49D-20  0.39D-20  6  5    39.63
  24      1.18032957    -0.64608264  -189.48979916     0.00000000    -0.00000000  0.17D-20  0.36D-21  6  6    41.29
  25      1.18032957    -0.64608264  -189.48979916    -0.00000000     0.00000000  0.47D-21  0.11D-21  6  1    42.96

 Norm of t1 vector:      0.10033210      S-energy:     0.00000000      T1 diagnostic:  0.01672202
                                                                       D1 diagnostic:  0.05372786


 Total CPU time for triples:     26.74 sec


 RESULTS
 =======

  Reference energy                   -188.843716521364
  CCSD singlet pair energy             -0.429558417772
  CCSD triplet pair energy             -0.216524223384
  CCSD correlation energy              -0.646082641154

  Triples (T) contribution             -0.027950352331
  Total correlation energy             -0.674032993485

  CCSD total energy                  -189.489799162518
  CCSD[T] energy                     -189.519482238085
  CCSD-T energy                      -189.517044365172
 !CCSD(T) total energy               -189.517749514849

 Timing summary (sec):

 STEP                 CPU(USER)    SYS     CPU(TOT)    WALL
 Transformation          1.49      0.19      1.68      1.69
 CCSD iterations        41.47      2.61     44.08     44.72
 Triples                26.74      0.50     27.24     27.29

 Program statistics:

 Available memory in ccsd:               999999576
 Min. memory needed in ccsd:               1814795
 Max. memory used in ccsd:                 2349055
 Max. memory used in cckext:               2687966 (25 integral passes)



 **********************************************************************************************************************************
 DATASETS  * FILE   NREC   LENGTH (MB)   RECORD NAMES
              1      20      708.05       500      610      700      900      950      970     1000      129      960     1100   
                                          VAR    BASINP    GEOM    SYMINP    ZMAT    AOBASIS   BASIS     P2S    ABASIS      S 
                                         1400     1410     1200     1210     1080     1600     1650     1300     1700     1380   
                                           T        V       H0       H01     AOSYM     SMH    MOLCAS    ERIS     OPER     JKOP   

              2       3        0.73       700     1000     2100   
                                         GEOM     BASIS     RHF  

 PROGRAMS   *        TOTAL   CCSD(T)       RHF       INT
 CPU TIMES  *        83.92     69.72      8.14      6.02
 REAL TIME  *        91.30 SEC
 DISK USED  *         2.20 GB      
 GA USED    *         0.00 MB       (max)       0.00 MB       (current)
 **********************************************************************************************************************************

        CCSD(T)         RHF-SCF 
   -189.51774951   -188.84371652
 **********************************************************************************************************************************
 Variable memory released
