
 Primary working directories    : /tmp/1003441.357.gen5.q
 Secondary working directories  : /tmp/1003441.357.gen5.q
 Wavefunction directory         : /home/vulcan/jj04645/wfu/
 Main file repository           : /tmp/1003441.357.gen5.q/

 ARCHNAME  : Linux/x86_64
 FC        : /opt/intel/compilers_and_libraries_2016.1.150/linux/bin/intel64/ifort
 FCVERSION : 16.0.1
 BLASLIB   : -mkl
 id        : ccgc

 Nodes     nprocs
 n070         1
 ga_uses_ma=false, calling ma_init with nominal heap.
 GA-space will be limited to   8.0 MW (determined by -G option)

 Using customized tuning parameters: mindgm=10; mindgv=16; mindgc=4; mindgr=1; noblas=0; mincuda=1000; minvec=7
 default implementation of scratch files=df  

 ***,Optimization of acetyl acetylene
 memory,1000,m
 gthresh,energy=1.0d-12,orbital=1.0d-10,oneint=1.0d-16,twoint=1.0d-16,optgrad=1.0d-6,compress=1.0d-13
 geomtyp=xyz
 
 bohr
 geometry = {
  H    3.3659575216   -1.7695416360   -1.6667682137
  C    2.2774270169   -2.3091500591    0.0019013011
  H    1.9155984178   -4.3331667734   -0.0037966430
  C   -0.2109901245   -0.9148303452    0.0019013011
  H    3.3898026862   -1.7831675369    1.6591570501
  O   -2.2561641833   -1.9591319497    0.0019013011
  C   -0.0185842818    1.8520164003    0.0019013011
  C    0.2054028687    4.1336240478    0.0019013011
  H    0.3526752577    6.1389126893    0.0019013011
 }
 
 basis=VDZ
 {rhf;maxit,200}
 {ccsd(t);maxit,200}

 Variables initialized (661), CPU time= 0.00 sec
 Commands  initialized (458), CPU time= 0.01 sec, 486 directives.
 Default parameters read. Elapsed time= 0.07 sec

 Checking input...
 Passed
1


                                         ***  PROGRAM SYSTEM MOLPRO  ***
                         Copyright, University College Cardiff Consultants Limited, 2008

                                    Version 2010.1 linked May 16 2016 07:17:05


 **********************************************************************************************************************************
 LABEL *   Optimization of acetyl acetylene                                              
 Linux-4.4.3/n070(x86_64) 64 bit mpp version                                             DATE: 15-Feb-24          TIME: 14:01:39  
 **********************************************************************************************************************************

 SHA1:             9e8077add272b0f3cad6f7df79ec5211205f459d
 **********************************************************************************************************************************

 THRESHOLDS:

 ZERO    =  1.00D-12  ONEINT  =  1.00D-16  TWOINT  =  1.00D-16  PREFAC  =  1.00D-14  LOCALI  =  1.00D-09  EORDER  =  1.00D-04
 ENERGY  =  1.00D-12  ETEST   =  0.00D+00  EDENS   =  0.00D+00  THRDEDEF=  1.00D-06  GRADIENT=  1.00D-02  STEP    =  1.00D-03
 ORBITAL =  1.00D-10  CIVEC   =  1.00D-05  COEFF   =  1.00D-04  PRINTCI =  5.00D-02  PUNCHCI =  9.90D+01  OPTGRAD =  1.00D-06
 OPTENERG=  1.00D-06  OPTSTEP =  3.00D-04  THRGRAD =  1.00D-10  COMPRESS=  1.00D-13  VARMIN  =  1.00D-07  VARMAX  =  1.00D-03
 THRDOUB =  0.00D+00  THRDIV  =  1.00D-05  THRRED  =  1.00D-07  THRPSP  =  1.00D+00  THRDC   =  1.00D-10  THRCS   =  1.00D-10
 THRNRM  =  1.00D-08  THREQ   =  0.00D+00  THRDE   =  1.00D+00  THRREF  =  1.00D-05  SPARFAC =  1.00D+00  THRDLP  =  1.00D-07
 THRDIA  =  1.00D-10  THRDLS  =  1.00D-07  THRGPS  =  0.00D+00  THRKEX  =  0.00D+00  THRDIS  =  2.00D-01  THRVAR  =  1.00D-10
 THRLOC  =  1.00D-06  THRGAP  =  1.00D-06  THRLOCT = -1.00D+00  THRGAPT = -1.00D+00  THRORB  =  1.00D-06  THRMLTP =  0.00D+00
 THRCPQCI=  1.00D-10  KEXTA   =  0.00D+00  THRCOARS=  0.00D+00  SYMTOL  =  1.00D-06  GRADTOL =  1.00D-06  THROVL  =  1.00D-08
 THRORTH =  1.00D-08  GRID    =  1.00D-06  GRIDMAX =  1.00D-03  DTMAX   =  0.00D+00

 SETTING GEOMTYP        =    XYZ
 ZUNIT=BOHR
 

 Variable memory set to 1000000000 words,  buffer space   230000 words

 SETTING BASIS          =    VDZ


 Recomputing integrals since basis changed


 Using spherical harmonics

 Library entry H      S cc-pVDZ              selected for orbital group  1
 Library entry H      P cc-pVDZ              selected for orbital group  1
 Library entry C      S cc-pVDZ              selected for orbital group  2
 Library entry C      P cc-pVDZ              selected for orbital group  2
 Library entry C      D cc-pVDZ              selected for orbital group  2
 Library entry O      S cc-pVDZ              selected for orbital group  6
 Library entry O      P cc-pVDZ              selected for orbital group  6
 Library entry O      D cc-pVDZ              selected for orbital group  6

1PROGRAM * SEWARD (Integral evaluation for generally contracted gaussian basis sets)     Author: Roland Lindh, 1990

 Geometry written to block  1 of record 700


 Point group  C1  



 ATOMIC COORDINATES

 NR  ATOM    CHARGE       X              Y              Z

   1  H       1.00    3.365957522   -1.769541636   -1.666768214
   2  C       6.00    2.277427017   -2.309150059    0.001901301
   3  H       1.00    1.915598418   -4.333166773   -0.003796643
   4  C       6.00   -0.210990124   -0.914830345    0.001901301
   5  H       1.00    3.389802686   -1.783167537    1.659157050
   6  O       8.00   -2.256164183   -1.959131950    0.001901301
   7  C       6.00   -0.018584282    1.852016400    0.001901301
   8  C       6.00    0.205402869    4.133624048    0.001901301
   9  H       1.00    0.352675258    6.138912689    0.001901301

 Bond lengths in Bohr (Angstrom)

 1-2  2.064106068  2-3  2.056111880  2-4  2.852428322  2-5  2.064106068  4-6  2.296367299
     ( 1.092277888)     ( 1.088047546)     ( 1.509440058)     ( 1.092277888)     ( 1.215185238)

 4-7  2.773528605  7-8  2.292575779  8-9  2.010689357
     ( 1.467688126)     ( 1.213178852)     ( 1.064010982)

 Bond angles

  1-2-3  110.35936788   1-2-4  109.40682348   1-2-5  107.35292554   2-4-6  123.68739543

  2-4-7  115.28502355   3-2-4  109.12731436   3-2-5  110.35936425   4-2-5  110.21710629

  4-7-8  178.37112628   6-4-7  121.02758103   7-8-9  178.59357076

 NUCLEAR CHARGE:                   36
 NUMBER OF PRIMITIVE AOS:         163
 NUMBER OF SYMMETRY AOS:          158
 NUMBER OF CONTRACTIONS:           90   (  90A   )
 NUMBER OF CORE ORBITALS:           5   (   5A   )
 NUMBER OF VALENCE ORBITALS:       24   (  24A   )


 NUCLEAR REPULSION ENERGY  142.22819137


 Eigenvalues of metric

         1 0.304E-03 0.211E-02 0.377E-02 0.954E-02 0.161E-01 0.176E-01 0.219E-01 0.329E-01


 Contracted 2-electron integrals neglected if value below      1.0D-16
 AO integral compression algorithm  1   Integral accuracy      1.0D-16

     54.002 MB (compressed) written to integral file ( 70.8%)

     Node minimum: 54.002 MB, node maximum: 54.002 MB


 NUMBER OF SORTED TWO-ELECTRON INTEGRALS:    8386560.     BUFFER LENGTH:  32768
 NUMBER OF SEGMENTS:   1  SEGMENT LENGTH:    8386560      RECORD LENGTH: 524288

 Memory used in sort:       8.94 MW

 SORT1 READ     9559587. AND WROTE     6360795. INTEGRALS IN     19 RECORDS. CPU TIME:     0.08 SEC, REAL TIME:     0.13 SEC
 SORT2 READ     6360795. AND WROTE     8386560. INTEGRALS IN    206 RECORDS. CPU TIME:     0.12 SEC, REAL TIME:     0.15 SEC

 FILE SIZES:   FILE 1:    50.3 MBYTE,  FILE 4:    79.7 MBYTE,   TOTAL:    130.0 MBYTE

 OPERATOR DM      FOR CENTER  0  COORDINATES:    0.000000    0.000000    0.000000


 **********************************************************************************************************************************
 DATASETS  * FILE   NREC   LENGTH (MB)   RECORD NAMES
              1      19       50.42       500      610      700      900      950      970     1000      129      960     1100   
                                          VAR    BASINP    GEOM    SYMINP    ZMAT    AOBASIS   BASIS     P2S    ABASIS      S 
                                         1400     1410     1200     1210     1080     1600     1650     1300     1700   
                                           T        V       H0       H01     AOSYM     SMH    MOLCAS    ERIS     OPER   

 PROGRAMS   *        TOTAL       INT
 CPU TIMES  *         1.41      1.34
 REAL TIME  *         2.06 SEC
 DISK USED  *       184.79 MB      
 GA USED    *         0.00 MB       (max)       0.00 MB       (current)
 **********************************************************************************************************************************

1PROGRAM * RHF-SCF (CLOSED SHELL)       Authors: W. Meyer, H.-J. Werner


 NUMBER OF ELECTRONS:      18+   18-    SPACE SYMMETRY=1    SPIN SYMMETRY: Singlet 
 CONVERGENCE THRESHOLDS:    1.00E-10 (Density)    1.00E-13 (Energy)
 MAX. NUMBER OF ITERATIONS:      200
 INTERPOLATION TYPE:            DIIS
 INTERPOLATION STEPS:              2 (START)      1 (STEP)
 LEVEL SHIFTS:                  0.00 (CLOSED)  0.00 (OPEN) 



 Orbital guess generated from atomic densities. Full valence occupancy:   29

 Molecular orbital dump at record        2100.2

 ITERATION    DDIFF          GRAD             ENERGY        2-EL.EN.            DIPOLE MOMENTS         DIIS
    1      0.000D+00      0.000D+00      -228.51851962    442.461778    1.91959    1.01180   -0.00364    0
    2      0.000D+00      0.890D-02      -228.57149124    440.621175    0.82660    0.44554    0.00014    1
    3      0.211D-01      0.652D-02      -228.60352624    441.174885    1.22436    0.61522   -0.00057    2
    4      0.781D-02      0.106D-02      -228.60537929    441.306475    1.16659    0.62521   -0.00058    3
    5      0.237D-02      0.401D-03      -228.60564218    441.200135    1.16261    0.58330   -0.00046    4
    6      0.832D-03      0.147D-03      -228.60567906    441.232645    1.16369    0.59342   -0.00044    5
    7      0.319D-03      0.623D-04      -228.60568795    441.222518    1.16019    0.58585   -0.00045    6
    8      0.163D-03      0.257D-04      -228.60568953    441.225571    1.15994    0.58515   -0.00045    7
    9      0.769D-04      0.709D-05      -228.60568969    441.224309    1.15940    0.58466   -0.00045    8
   10      0.281D-04      0.161D-05      -228.60568970    441.224742    1.15931    0.58465   -0.00045    7
   11      0.546D-05      0.745D-06      -228.60568971    441.224511    1.15927    0.58465   -0.00045    8
   12      0.238D-05      0.402D-06      -228.60568971    441.224550    1.15926    0.58464   -0.00045    8
   13      0.189D-05      0.192D-06      -228.60568971    441.224539    1.15925    0.58464   -0.00045    9
   14      0.851D-06      0.653D-07      -228.60568971    441.224541    1.15926    0.58463   -0.00045    9
   15      0.276D-06      0.134D-07      -228.60568971    441.224542    1.15926    0.58463   -0.00045    8
   16      0.470D-07      0.427D-08      -228.60568971    441.224542    1.15926    0.58463   -0.00045    8
   17      0.906D-08      0.196D-08      -228.60568971    441.224542    1.15926    0.58463   -0.00045    9
   18      0.429D-08      0.609D-09      -228.60568971    441.224542    1.15926    0.58463   -0.00045    9
   19      0.148D-08      0.202D-09      -228.60568971    441.224542    1.15926    0.58463   -0.00045    9
   20      0.543D-09      0.407D-10      -228.60568971    441.224542    1.15926    0.58463   -0.00045    7
   21      0.118D-09      0.121D-10      -228.60568971    441.224542    1.15926    0.58463   -0.00045    7
   22      0.281D-10      0.657D-11      -228.60568971    441.224542    1.15926    0.58463   -0.00045    7
   23      0.178D-10      0.352D-11      -228.60568971    441.224542    1.15926    0.58463   -0.00045    8
   24      0.124D-10      0.158D-11      -228.60568971    441.224542    1.15926    0.58463   -0.00045    8
   25      0.763D-11      0.659D-12      -228.60568971    441.224542    1.15926    0.58463   -0.00045    8
   26      0.283D-11      0.250D-12      -228.60568971    441.224542    1.15926    0.58463   -0.00045    9
   27      0.909D-12      0.983D-13      -228.60568971    441.224542    1.15926    0.58463   -0.00045    9
   28      0.105D-11      0.615D-13      -228.60568971    441.224542    1.15926    0.58463   -0.00045    9
   29      0.599D-12      0.414D-13      -228.60568971    441.224542    1.15926    0.58463   -0.00045    0

 Final occupancy:  18

 !RHF STATE 1.1 Energy               -228.605689709110
 Nuclear energy                       142.22819137
 One-electron energy                 -591.44615212
 Two-electron energy                  220.61227103
 Virial quotient                       -1.00147487
 !RHF STATE 1.1 Dipole moment           1.15925740     0.58462850    -0.00045411
 Dipole moment /Debye                   2.94634543     1.48588011    -0.00115416

 Orbital energies:

         1.1          2.1          3.1          4.1          5.1          6.1          7.1          8.1          9.1         10.1
    -20.568470   -11.368667   -11.272613   -11.261486   -11.252540    -1.404021    -1.070590    -1.015750    -0.860406    -0.733010

        11.1         12.1         13.1         14.1         15.1         16.1         17.1         18.1         19.1         20.1
     -0.685070    -0.637207    -0.614175    -0.571367    -0.517862    -0.445634    -0.417628    -0.414310     0.094074     0.180378


 **********************************************************************************************************************************
 DATASETS  * FILE   NREC   LENGTH (MB)   RECORD NAMES
              1      19       50.42       500      610      700      900      950      970     1000      129      960     1100   
                                          VAR    BASINP    GEOM    SYMINP    ZMAT    AOBASIS   BASIS     P2S    ABASIS      S 
                                         1400     1410     1200     1210     1080     1600     1650     1300     1700   
                                           T        V       H0       H01     AOSYM     SMH    MOLCAS    ERIS     OPER   

              2       3        0.57       700     1000     2100   
                                         GEOM     BASIS     RHF  

 PROGRAMS   *        TOTAL       RHF       INT
 CPU TIMES  *         3.41      2.00      1.34
 REAL TIME  *         4.32 SEC
 DISK USED  *       184.79 MB      
 GA USED    *         0.00 MB       (max)       0.00 MB       (current)
 **********************************************************************************************************************************


1PROGRAM * CCSD (Closed-shell coupled cluster)     Authors: C. Hampel, H.-J. Werner, 1991, M. Deegan, P.J. Knowles, 1992


 Convergence thresholds:  THRVAR = 1.00D-08  THRDEN = 1.00D-12

 CCSD(T)     terms to be evaluated (factor= 1.000)


 Number of core orbitals:           5 (   5 )
 Number of closed-shell orbitals:  13 (  13 )
 Number of external orbitals:      72 (  72 )

 Molecular orbitals read from record     2100.2  Type=RHF/CANONICAL (state 1.1)

 Number of N-1 electron functions:              13
 Number of N-2 electron functions:              91
 Number of singly external CSFs:               936
 Number of doubly external CSFs:            438516
 Total number of CSFs:                      439453

 Length of J-op  integral file:               0.00 MB
 Length of K-op  integral file:               0.59 MB
 Length of 3-ext integral record:             0.00 MB

 Memory could be reduced to 7.27 Mwords without degradation in triples

 Integral transformation finished. Total CPU:   0.43 sec, npass=  1  Memory used:   6.58 MW

 Reference energy:                   -228.60568971

 MP2 singlet pair energy:              -0.43052327
 MP2 triplet pair energy:              -0.26903346
 MP2 correlation energy:               -0.69955674
 MP2 total energy:                   -229.30524644

 SCS-MP2 correlation energy:           -0.68402653   (PS=  1.200000  PT=  0.333333)
 SCS-MP2 total energy:               -229.28971624

 ITER.      SQ.NORM     CORR.ENERGY   TOTAL ENERGY   ENERGY CHANGE        DEN1      VAR(S)    VAR(P)  DIIS     TIME
   1      1.25726525    -0.72722587  -229.33291558    -0.02766913    -0.00370535  0.60D-02  0.55D-02  1  1     1.38
   2      1.28001648    -0.72999845  -229.33568816    -0.00277258    -0.02080728  0.12D-03  0.98D-03  2  2     2.29
   3      1.29067500    -0.73077397  -229.33646368    -0.00077551    -0.00476048  0.11D-03  0.92D-04  3  3     3.22
   4      1.29495938    -0.73073887  -229.33642858     0.00003510    -0.00140770  0.80D-05  0.18D-04  4  4     4.13
   5      1.29681950    -0.73075994  -229.33644965    -0.00002107    -0.00044462  0.16D-05  0.20D-05  5  5     5.06
   6      1.29724456    -0.73075587  -229.33644558     0.00000407    -0.00006259  0.28D-06  0.27D-06  6  6     5.98
   7      1.29733227    -0.73075168  -229.33644139     0.00000419    -0.00000187  0.56D-07  0.30D-07  6  1     6.89
   8      1.29737036    -0.73075265  -229.33644236    -0.00000097    -0.00000947  0.11D-07  0.48D-08  6  2     7.82
   9      1.29737254    -0.73075275  -229.33644246    -0.00000010     0.00000298  0.17D-08  0.83D-09  6  3     8.74
  10      1.29737528    -0.73075247  -229.33644218     0.00000028    -0.00000057  0.33D-09  0.16D-09  6  4     9.66
  11      1.29737510    -0.73075273  -229.33644244    -0.00000025     0.00000057  0.42D-10  0.32D-10  6  5    10.59
  12      1.29737481    -0.73075268  -229.33644239     0.00000004     0.00000015  0.82D-11  0.62D-11  6  6    11.51
  13      1.29737446    -0.73075271  -229.33644242    -0.00000003     0.00000015  0.95D-12  0.16D-11  6  1    12.42
  14      1.29737423    -0.73075271  -229.33644242    -0.00000000     0.00000006  0.28D-12  0.24D-12  6  2    13.35
  15      1.29737412    -0.73075271  -229.33644242    -0.00000000     0.00000003  0.44D-13  0.51D-13  6  3    14.27
  16      1.29737407    -0.73075272  -229.33644243    -0.00000000     0.00000001  0.90D-14  0.10D-13  6  4    15.20
  17      1.29737405    -0.73075272  -229.33644243    -0.00000000     0.00000000  0.29D-14  0.12D-14  6  5    16.12
  18      1.29737405    -0.73075272  -229.33644243    -0.00000000    -0.00000000  0.54D-15  0.27D-15  6  6    17.04
  19      1.29737405    -0.73075272  -229.33644243    -0.00000000    -0.00000000  0.19D-15  0.59D-16  6  1    17.96
  20      1.29737405    -0.73075272  -229.33644243    -0.00000000    -0.00000000  0.75D-16  0.17D-16  6  4    18.88
  21      1.29737405    -0.73075272  -229.33644243    -0.00000000     0.00000000  0.27D-16  0.55D-17  6  2    19.80
  22      1.29737405    -0.73075272  -229.33644243    -0.00000000    -0.00000000  0.52D-17  0.14D-17  6  6    20.72
  23      1.29737405    -0.73075272  -229.33644243     0.00000000     0.00000000  0.14D-17  0.37D-18  6  3    21.64
  24      1.29737405    -0.73075272  -229.33644243    -0.00000000     0.00000000  0.42D-18  0.11D-18  6  5    22.57
  25      1.29737405    -0.73075272  -229.33644243     0.00000000     0.00000000  0.43D-19  0.23D-19  6  4    23.50
  26      1.29737405    -0.73075272  -229.33644243    -0.00000000     0.00000000  0.97D-20  0.42D-20  6  1    24.41
  27      1.29737405    -0.73075272  -229.33644243     0.00000000    -0.00000000  0.10D-20  0.62D-21  6  2    25.37

 Norm of t1 vector:      0.10833966      S-energy:    -0.00000000      T1 diagnostic:  0.01502401
                                                                       D1 diagnostic:  0.05037597

 Doubles amplitudes (print threshold =  0.500E-01):

         I         J         SYM. A    SYM. B    A         B      T(IJ, AB)

        10        10         1         1         1         1     -0.05806764
        12        12         1         1         2         2     -0.06450337
        13        13         1         1         1         1     -0.07372191


 Total CPU time for triples:      9.23 sec


 RESULTS
 =======

  Reference energy                   -228.605689709110
  CCSD singlet pair energy             -0.496637692077
  CCSD triplet pair energy             -0.234115026050
  CCSD correlation energy              -0.730752718127

  Triples (T) contribution             -0.028477688006
  Total correlation energy             -0.759230406133

  CCSD total energy                  -229.336442427238
  CCSD[T] energy                     -229.366776212864
  CCSD-T energy                      -229.364217296793
 !CCSD(T) total energy               -229.364920115244

 Timing summary (sec):

 STEP                 CPU(USER)    SYS     CPU(TOT)    WALL
 Transformation          0.45      0.06      0.51      0.50
 CCSD iterations        24.93      0.79     25.72     25.82
 Triples                 9.23      0.19      9.42      9.42

 Program statistics:

 Available memory in ccsd:               999999224
 Min. memory needed in ccsd:               1253983
 Max. memory used in ccsd:                 1626745
 Max. memory used in cckext:               1605212 (27 integral passes)



 **********************************************************************************************************************************
 DATASETS  * FILE   NREC   LENGTH (MB)   RECORD NAMES
              1      20       79.18       500      610      700      900      950      970     1000      129      960     1100   
                                          VAR    BASINP    GEOM    SYMINP    ZMAT    AOBASIS   BASIS     P2S    ABASIS      S 
                                         1400     1410     1200     1210     1080     1600     1650     1300     1700     1380   
                                           T        V       H0       H01     AOSYM     SMH    MOLCAS    ERIS     OPER     JKOP   

              2       3        0.57       700     1000     2100   
                                         GEOM     BASIS     RHF  

 PROGRAMS   *        TOTAL   CCSD(T)       RHF       INT
 CPU TIMES  *        38.03     34.62      2.00      1.34
 REAL TIME  *        40.11 SEC
 DISK USED  *       211.91 MB      
 GA USED    *         0.00 MB       (max)       0.00 MB       (current)
 **********************************************************************************************************************************

        CCSD(T)         RHF-SCF 
   -229.36492012   -228.60568971
 **********************************************************************************************************************************
 Variable memory released
