
 Primary working directories    : /tmp/880701.211.gen6.q
 Secondary working directories  : /tmp/880701.211.gen6.q
 Wavefunction directory         : /home/vulcan/lo21740/wfu/
 Main file repository           : /tmp/880701.211.gen6.q/

 ARCHNAME  : Linux/x86_64
 FC        : /opt/intel/compilers_and_libraries_2016.1.150/linux/bin/intel64/ifort
 FCVERSION : 16.0.1
 BLASLIB   : -mkl
 id        : ccgc

 Nodes     nprocs
 n077         1
 ga_uses_ma=false, calling ma_init with nominal heap.
 GA-space will be limited to   8.0 MW (determined by -G option)

 Using customized tuning parameters: mindgm=10; mindgv=16; mindgc=4; mindgr=1; noblas=0; mincuda=1000; minvec=7
 default implementation of scratch files=df  

 ***,Optimization of formamide
 memory,1000,m
 gthresh,energy=1.0d-12,orbital=1.0d-10,oneint=1.0d-16,twoint=1.0d-16,optgrad=1.0d-6,compress=1.0d-13
 geomtyp=xyz
 
 bohr
 geometry = {
  C   -3.8260866231    0.0877814330    0.0016263963
  O   -2.7273638048    2.1430478393   -0.0001634711
  N   -2.6822665703   -2.1789436274   -0.0006953903
  H   -3.7370333659   -3.7581094318    0.0003760283
  H   -0.7540669726   -2.3045271802   -0.0006388247
  H   -5.9034466552   -0.0216346883   -0.0005047385
  C    3.8260866231   -0.0877814330    0.0016263963
  O    2.7273638048   -2.1430478393   -0.0001634711
  N    2.6822665703    2.1789436274   -0.0006953903
  H    3.7370333659    3.7581094318    0.0003760283
  H    0.7540669726    2.3045271802   -0.0006388247
  H    5.9034466552    0.0216346883   -0.0005047385
 }
 
 basis=AVDZ
 {rhf;maxit,200}
 {ccsd(t);maxit,200}

 Variables initialized (661), CPU time= 0.01 sec
 Commands  initialized (458), CPU time= 0.00 sec, 486 directives.
 Default parameters read. Elapsed time= 0.05 sec

 Checking input...
 Passed
1


                                         ***  PROGRAM SYSTEM MOLPRO  ***
                         Copyright, University College Cardiff Consultants Limited, 2008

                                    Version 2010.1 linked May 16 2016 07:17:05


 **********************************************************************************************************************************
 LABEL *   Optimization of formamide                                                     
 Linux-4.4.3/n077(x86_64) 64 bit mpp version                                             DATE: 24-May-23          TIME: 18:50:07  
 **********************************************************************************************************************************

 SHA1:             9e8077add272b0f3cad6f7df79ec5211205f459d
 **********************************************************************************************************************************

 THRESHOLDS:

 ZERO    =  1.00D-12  ONEINT  =  1.00D-16  TWOINT  =  1.00D-16  PREFAC  =  1.00D-14  LOCALI  =  1.00D-09  EORDER  =  1.00D-04
 ENERGY  =  1.00D-12  ETEST   =  0.00D+00  EDENS   =  0.00D+00  THRDEDEF=  1.00D-06  GRADIENT=  1.00D-02  STEP    =  1.00D-03
 ORBITAL =  1.00D-10  CIVEC   =  1.00D-05  COEFF   =  1.00D-04  PRINTCI =  5.00D-02  PUNCHCI =  9.90D+01  OPTGRAD =  1.00D-06
 OPTENERG=  1.00D-06  OPTSTEP =  3.00D-04  THRGRAD =  1.00D-10  COMPRESS=  1.00D-13  VARMIN  =  1.00D-07  VARMAX  =  1.00D-03
 THRDOUB =  0.00D+00  THRDIV  =  1.00D-05  THRRED  =  1.00D-07  THRPSP  =  1.00D+00  THRDC   =  1.00D-10  THRCS   =  1.00D-10
 THRNRM  =  1.00D-08  THREQ   =  0.00D+00  THRDE   =  1.00D+00  THRREF  =  1.00D-05  SPARFAC =  1.00D+00  THRDLP  =  1.00D-07
 THRDIA  =  1.00D-10  THRDLS  =  1.00D-07  THRGPS  =  0.00D+00  THRKEX  =  0.00D+00  THRDIS  =  2.00D-01  THRVAR  =  1.00D-10
 THRLOC  =  1.00D-06  THRGAP  =  1.00D-06  THRLOCT = -1.00D+00  THRGAPT = -1.00D+00  THRORB  =  1.00D-06  THRMLTP =  0.00D+00
 THRCPQCI=  1.00D-10  KEXTA   =  0.00D+00  THRCOARS=  0.00D+00  SYMTOL  =  1.00D-06  GRADTOL =  1.00D-06  THROVL  =  1.00D-08
 THRORTH =  1.00D-08  GRID    =  1.00D-06  GRIDMAX =  1.00D-03  DTMAX   =  0.00D+00

 SETTING GEOMTYP        =    XYZ
 ZUNIT=BOHR
 

 Variable memory set to 1000000000 words,  buffer space   230000 words

 SETTING BASIS          =    AVDZ


 Recomputing integrals since basis changed


 Using spherical harmonics

 Library entry C      S aug-cc-pVDZ          selected for orbital group  1
 Library entry C      P aug-cc-pVDZ          selected for orbital group  1
 Library entry C      D aug-cc-pVDZ          selected for orbital group  1
 Library entry O      S aug-cc-pVDZ          selected for orbital group  2
 Library entry O      P aug-cc-pVDZ          selected for orbital group  2
 Library entry O      D aug-cc-pVDZ          selected for orbital group  2
 Library entry N      S aug-cc-pVDZ          selected for orbital group  3
 Library entry N      P aug-cc-pVDZ          selected for orbital group  3
 Library entry N      D aug-cc-pVDZ          selected for orbital group  3
 Library entry H      S aug-cc-pVDZ          selected for orbital group  4
 Library entry H      P aug-cc-pVDZ          selected for orbital group  4

1PROGRAM * SEWARD (Integral evaluation for generally contracted gaussian basis sets)     Author: Roland Lindh, 1990

 Geometry written to block  1 of record 700


 Point group  C2  



 ATOMIC COORDINATES

 NR  ATOM    CHARGE       X              Y              Z

   1  C       6.00   -3.826086623    0.087781433    0.001626396
   2  C       6.00    3.826086623   -0.087781433    0.001626396
   3  O       8.00   -2.727363805    2.143047839   -0.000163471
   4  O       8.00    2.727363805   -2.143047839   -0.000163471
   5  N       7.00   -2.682266570   -2.178943627   -0.000695390
   6  N       7.00    2.682266570    2.178943627   -0.000695390
   7  H       1.00   -3.737033366   -3.758109432    0.000376028
   8  H       1.00    3.737033366    3.758109432    0.000376028
   9  H       1.00   -0.754066973   -2.304527180   -0.000638825
  10  H       1.00    0.754066973    2.304527180   -0.000638825
  11  H       1.00   -5.903446655   -0.021634688   -0.000504738
  12  H       1.00    5.903446655    0.021634688   -0.000504738

 Bond lengths in Bohr (Angstrom)

  1- 3  2.330518190   1- 5  2.538970698   1-11  2.080240643   2- 4  2.330518190   2- 6  2.538970698
       ( 1.233257112)       ( 1.343565427)       ( 1.100815937)       ( 1.233257112)       ( 1.343565427)

  2-12  2.080240643   5- 7  1.899025745   5- 9  1.932284896   6- 8  1.899025745   6-10  1.932284896
       ( 1.100815937)       ( 1.004921143)       ( 1.022521128)       ( 1.004921143)       ( 1.022521128)

 Bond angles

  1- 5- 7  119.48380556   1- 5- 9  120.50252023   2- 6- 8  119.48380556   2- 6-10  120.50252023

  3- 1- 5  125.09532450   3- 1-11  121.14341479   4- 2- 6  125.09532450   4- 2-12  121.14341479

  5- 1-11  113.76101934   6- 2-12  113.76101934   7- 5- 9  120.01359927   8- 6-10  120.01359927

 NUCLEAR CHARGE:                   48
 NUMBER OF PRIMITIVE AOS:         288
 NUMBER OF SYMMETRY AOS:          276
 NUMBER OF CONTRACTIONS:          192   (  96A   +  96B   )
 NUMBER OF CORE ORBITALS:           6   (   3A   +   3B   )
 NUMBER OF VALENCE ORBITALS:       30   (  15A   +  15B   )


 NUCLEAR REPULSION ENERGY  230.40701615


 Eigenvalues of metric

         1 0.232E-03 0.530E-03 0.704E-03 0.712E-03 0.863E-03 0.217E-02 0.279E-02 0.327E-02
         2 0.270E-03 0.523E-03 0.566E-03 0.718E-03 0.120E-02 0.133E-02 0.232E-02 0.320E-02


 Contracted 2-electron integrals neglected if value below      1.0D-16
 AO integral compression algorithm  1   Integral accuracy      1.0D-16

     794.558 MB (compressed) written to integral file ( 92.3%)

     Node minimum: 794.558 MB, node maximum: 794.558 MB


 NUMBER OF SORTED TWO-ELECTRON INTEGRALS:   86718000.     BUFFER LENGTH:  32768
 NUMBER OF SEGMENTS:   6  SEGMENT LENGTH:   15998362      RECORD LENGTH: 524288

 Memory used in sort:      16.56 MW

 SORT1 READ   107623504. AND WROTE    86266126. INTEGRALS IN    250 RECORDS. CPU TIME:     1.00 SEC, REAL TIME:     1.52 SEC
 SORT2 READ    86266126. AND WROTE    86718000. INTEGRALS IN   3031 RECORDS. CPU TIME:     0.75 SEC, REAL TIME:     1.10 SEC

 FILE SIZES:   FILE 1:   661.6 MBYTE,  FILE 4:  1048.6 MBYTE,   TOTAL:   1710.2 MBYTE

 OPERATOR DM      FOR CENTER  0  COORDINATES:    0.000000    0.000000    0.000000


 **********************************************************************************************************************************
 DATASETS  * FILE   NREC   LENGTH (MB)   RECORD NAMES
              1      19      661.85       500      610      700      900      950      970     1000      129      960     1100   
                                          VAR    BASINP    GEOM    SYMINP    ZMAT    AOBASIS   BASIS     P2S    ABASIS      S 
                                         1400     1410     1200     1210     1080     1600     1650     1300     1700   
                                           T        V       H0       H01     AOSYM     SMH    MOLCAS    ERIS     OPER   

 PROGRAMS   *        TOTAL       INT
 CPU TIMES  *         5.35      5.31
 REAL TIME  *         6.80 SEC
 DISK USED  *         2.51 GB      
 GA USED    *         0.00 MB       (max)       0.00 MB       (current)
 **********************************************************************************************************************************

1PROGRAM * RHF-SCF (CLOSED SHELL)       Authors: W. Meyer, H.-J. Werner


 NUMBER OF ELECTRONS:      24+   24-
 CONVERGENCE THRESHOLDS:    1.00E-10 (Density)    1.00E-13 (Energy)
 MAX. NUMBER OF ITERATIONS:      200
 INTERPOLATION TYPE:            DIIS
 INTERPOLATION STEPS:              2 (START)      1 (STEP)
 LEVEL SHIFTS:                  0.00 (CLOSED)  0.00 (OPEN) 



 Orbital guess generated from atomic densities. Full valence occupancy:   18  18

 Molecular orbital dump at record        2100.2

 Initial alpha occupancy:  12  12
 Initial beta  occupancy:  12  12
 Wave function symmetry:    1

 ITERATION    DDIFF          GRAD             ENERGY        2-EL.EN.            DIPOLE MOMENTS         DIIS
    1      0.000D+00      0.000D+00      -337.80531147    704.499793    0.00000    0.00000    0.00398    0
    2      0.000D+00      0.795D-02      -337.88272338    698.891257    0.00000    0.00000    0.00038    1
    3      0.151D-01      0.581D-02      -337.94094006    701.634570    0.00000    0.00000    0.00176    2
    4      0.614D-02      0.765D-03      -337.94315510    701.537388    0.00000    0.00000    0.00187    3
    5      0.146D-02      0.263D-03      -337.94342345    701.471417    0.00000    0.00000    0.00180    4
    6      0.498D-03      0.865D-04      -337.94348459    701.496849    0.00000    0.00000    0.00182    5
    7      0.220D-03      0.383D-04      -337.94349557    701.487920    0.00000    0.00000    0.00183    6
    8      0.104D-03      0.114D-04      -337.94349653    701.493508    0.00000    0.00000    0.00183    7
    9      0.330D-04      0.347D-05      -337.94349660    701.491017    0.00000    0.00000    0.00183    8
   10      0.872D-05      0.121D-05      -337.94349661    701.491563    0.00000    0.00000    0.00183    7
   11      0.366D-05      0.289D-06      -337.94349661    701.491489    0.00000    0.00000    0.00183    8
   12      0.841D-06      0.436D-07      -337.94349661    701.491496    0.00000    0.00000    0.00183    7
   13      0.123D-06      0.102D-07      -337.94349661    701.491497    0.00000    0.00000    0.00183    7
   14      0.314D-07      0.183D-08      -337.94349661    701.491497    0.00000    0.00000    0.00183    6
   15      0.484D-08      0.619D-09      -337.94349661    701.491497    0.00000    0.00000    0.00183    6
   16      0.135D-08      0.272D-09      -337.94349661    701.491497    0.00000    0.00000    0.00183    6
   17      0.504D-09      0.712D-10      -337.94349661    701.491497    0.00000    0.00000    0.00183    7
   18      0.168D-09      0.203D-10      -337.94349661    701.491497    0.00000    0.00000    0.00183    7
   19      0.541D-10      0.670D-11      -337.94349661    701.491497    0.00000    0.00000    0.00183    7
   20      0.185D-10      0.256D-11      -337.94349661    701.491497    0.00000    0.00000    0.00183    7
   21      0.767D-11      0.664D-12      -337.94349661    701.491497    0.00000    0.00000    0.00183    8
   22      0.563D-11      0.290D-12      -337.94349661    701.491497    0.00000    0.00000    0.00183    8
   23      0.326D-11      0.149D-12      -337.94349661    701.491497    0.00000    0.00000    0.00183    0

 Final occupancy:  12  12

 !RHF STATE 1.1 Energy               -337.943496612116
 Nuclear energy                       230.40701615
 One-electron energy                 -919.09626125
 Two-electron energy                  350.74574849
 Virial quotient                       -1.00177971
 !RHF STATE 1.1 Dipole moment           0.00000000     0.00000000     0.00182917
 Dipole moment /Debye                   0.00000000     0.00000000     0.00464897

 Orbital energies:

         1.1          2.1          3.1          4.1          5.1          6.1          7.1          8.1          9.1         10.1
    -20.541219   -15.589142   -11.368219    -1.388117    -1.212392    -0.861281    -0.749825    -0.644910    -0.618943    -0.573187

        11.1         12.1         13.1         14.1
     -0.454426    -0.409688     0.033349     0.059141

         1.2          2.2          3.2          4.2          5.2          6.2          7.2          8.2          9.2         10.2
    -20.541218   -15.589142   -11.368219    -1.383334    -1.218662    -0.836206    -0.740853    -0.705517    -0.593392    -0.565091

        11.2         12.2         13.2         14.2
     -0.429082    -0.420317     0.036313     0.052538


 **********************************************************************************************************************************
 DATASETS  * FILE   NREC   LENGTH (MB)   RECORD NAMES
              1      19      661.85       500      610      700      900      950      970     1000      129      960     1100   
                                          VAR    BASINP    GEOM    SYMINP    ZMAT    AOBASIS   BASIS     P2S    ABASIS      S 
                                         1400     1410     1200     1210     1080     1600     1650     1300     1700   
                                           T        V       H0       H01     AOSYM     SMH    MOLCAS    ERIS     OPER   

              2       3        0.85       700     1000     2100   
                                         GEOM     BASIS     RHF  

 PROGRAMS   *        TOTAL       RHF       INT
 CPU TIMES  *        14.51      9.16      5.31
 REAL TIME  *        17.34 SEC
 DISK USED  *         2.51 GB      
 GA USED    *         0.00 MB       (max)       0.00 MB       (current)
 **********************************************************************************************************************************


1PROGRAM * CCSD (Closed-shell coupled cluster)     Authors: C. Hampel, H.-J. Werner, 1991, M. Deegan, P.J. Knowles, 1992


 Convergence thresholds:  THRVAR = 1.00D-08  THRDEN = 1.00D-12

 CCSD(T)     terms to be evaluated (factor= 1.000)


 Number of core orbitals:           6 (   3   3 )
 Number of closed-shell orbitals:  18 (   9   9 )
 Number of external orbitals:     168 (  84  84 )

 Molecular orbitals read from record     2100.2  Type=RHF/CANONICAL (state 1.1)

 Number of N-1 electron functions:              18
 Number of N-2 electron functions:             171
 Number of singly external CSFs:              1512
 Number of doubly external CSFs:           2287656
 Total number of CSFs:                     2289169

 Length of J-op  integral file:               0.00 MB
 Length of K-op  integral file:               1.31 MB
 Length of 3-ext integral record:             0.00 MB

 Memory could be reduced to 54.59 Mwords without degradation in triples

 Integral transformation finished. Total CPU:   3.60 sec, npass=  1  Memory used:  28.81 MW

 Reference energy:                   -337.94349661

 MP2 singlet pair energy:              -0.62300820
 MP2 triplet pair energy:              -0.40632973
 MP2 correlation energy:               -1.02933793
 MP2 total energy:                   -338.97283454

 SCS-MP2 correlation energy:           -1.00043723   (PS=  1.200000  PT=  0.333333)
 SCS-MP2 total energy:               -338.94393384

 ITER.      SQ.NORM     CORR.ENERGY   TOTAL ENERGY   ENERGY CHANGE        DEN1      VAR(S)    VAR(P)  DIIS     TIME
   1      1.31964752    -1.05781038  -339.00130699    -0.02847245     0.00293452  0.10D-01  0.60D-02  1  1     8.30
   2      1.34521889    -1.05967651  -339.00317312    -0.00186613    -0.02600634  0.22D-03  0.11D-02  2  2    13.26
   3      1.35793106    -1.06057727  -339.00407388    -0.00090076    -0.00558591  0.22D-03  0.52D-04  3  3    18.20
   4      1.36318125    -1.06031076  -339.00380737     0.00026651    -0.00170362  0.22D-04  0.97D-05  4  4    23.20
   5      1.36535481    -1.06025261  -339.00374923     0.00005814    -0.00045365  0.28D-05  0.12D-05  5  5    28.18
   6      1.36588221    -1.06022361  -339.00372023     0.00002900    -0.00005015  0.28D-06  0.19D-06  6  6    33.17
   7      1.36601084    -1.06021114  -339.00370775     0.00001247    -0.00000193  0.35D-07  0.24D-07  6  1    38.15
   8      1.36604844    -1.06020992  -339.00370653     0.00000122    -0.00000706  0.76D-08  0.33D-08  6  2    43.14
   9      1.36604989    -1.06021008  -339.00370669    -0.00000016     0.00000269  0.13D-08  0.49D-09  6  3    48.12
  10      1.36605466    -1.06020952  -339.00370613     0.00000056    -0.00000110  0.32D-09  0.69D-10  6  4    53.11
  11      1.36605439    -1.06020977  -339.00370639    -0.00000025     0.00000047  0.60D-10  0.13D-10  6  5    58.09
  12      1.36605439    -1.06020975  -339.00370636     0.00000003     0.00000002  0.42D-11  0.36D-11  6  6    63.09
  13      1.36605410    -1.06020979  -339.00370640    -0.00000004     0.00000012  0.12D-11  0.38D-12  6  1    68.06
  14      1.36605400    -1.06020980  -339.00370641    -0.00000001     0.00000004  0.89D-13  0.70D-13  6  2    73.05
  15      1.36605398    -1.06020979  -339.00370641     0.00000000     0.00000001  0.17D-13  0.12D-13  6  3    78.04
  16      1.36605398    -1.06020980  -339.00370641    -0.00000000     0.00000000  0.45D-14  0.18D-14  6  4    83.02
  17      1.36605398    -1.06020980  -339.00370641     0.00000000    -0.00000000  0.64D-15  0.35D-15  6  5    88.00
  18      1.36605398    -1.06020979  -339.00370641     0.00000000    -0.00000000  0.17D-15  0.67D-16  6  6    92.98
  19      1.36605398    -1.06020979  -339.00370641    -0.00000000    -0.00000000  0.43D-16  0.12D-16  6  1    97.97
  20      1.36605398    -1.06020979  -339.00370641     0.00000000    -0.00000000  0.10D-16  0.37D-17  6  2   102.95
  21      1.36605398    -1.06020979  -339.00370641    -0.00000000     0.00000000  0.32D-17  0.99D-18  6  3   107.94
  22      1.36605398    -1.06020979  -339.00370641    -0.00000000     0.00000000  0.85D-18  0.25D-18  6  4   112.92
  23      1.36605398    -1.06020979  -339.00370641     0.00000000     0.00000000  0.22D-18  0.74D-19  6  5   117.90
  24      1.36605398    -1.06020979  -339.00370641    -0.00000000     0.00000000  0.41D-19  0.21D-19  6  6   122.88
  25      1.36605398    -1.06020979  -339.00370641     0.00000000    -0.00000000  0.82D-20  0.39D-20  6  1   127.86
  26      1.36605398    -1.06020979  -339.00370641     0.00000000    -0.00000000  0.16D-20  0.80D-21  6  2   132.84

 Norm of t1 vector:      0.14880538      S-energy:     0.00000000      T1 diagnostic:  0.01753688
                                                                       D1 diagnostic:  0.05936585


 Total CPU time for triples:    144.99 sec


 RESULTS
 =======

  Reference energy                   -337.943496612115
  CCSD singlet pair energy             -0.699963622364
  CCSD triplet pair energy             -0.360246172475
  CCSD correlation energy              -1.060209794839

  Triples (T) contribution             -0.040019170368
  Total correlation energy             -1.100228965208

  CCSD total energy                  -339.003706406955
  CCSD[T] energy                     -339.046970597910
  CCSD-T energy                      -339.042596705017
 !CCSD(T) total energy               -339.043725577323

 Timing summary (sec):

 STEP                 CPU(USER)    SYS     CPU(TOT)    WALL
 Transformation          3.66      0.30      3.96      3.97
 CCSD iterations       129.18      4.28    133.46    133.59
 Triples               144.99      3.59    148.58    148.59

 Program statistics:

 Available memory in ccsd:               999998604
 Min. memory needed in ccsd:               5718748
 Max. memory used in ccsd:                 7826908
 Max. memory used in cckext:               7427053 (26 integral passes)



 **********************************************************************************************************************************
 DATASETS  * FILE   NREC   LENGTH (MB)   RECORD NAMES
              1      20      873.10       500      610      700      900      950      970     1000      129      960     1100   
                                          VAR    BASINP    GEOM    SYMINP    ZMAT    AOBASIS   BASIS     P2S    ABASIS      S 
                                         1400     1410     1200     1210     1080     1600     1650     1300     1700     1380   
                                           T        V       H0       H01     AOSYM     SMH    MOLCAS    ERIS     OPER     JKOP   

              2       3        0.85       700     1000     2100   
                                         GEOM     BASIS     RHF  

 PROGRAMS   *        TOTAL   CCSD(T)       RHF       INT
 CPU TIMES  *       292.35    277.84      9.16      5.31
 REAL TIME  *       303.56 SEC
 DISK USED  *         2.51 GB      
 GA USED    *         0.00 MB       (max)       0.00 MB       (current)
 **********************************************************************************************************************************

        CCSD(T)         RHF-SCF 
   -339.04372558   -337.94349661
 **********************************************************************************************************************************
 Variable memory released
