
    -----------------------------------------------------------------------
          Psi4: An Open-Source Ab Initio Electronic Structure Package
                               Psi4 1.4a2.dev629 

                         Git: Rev {master} 2938fc2 dirty


    D. G. A. Smith, L. A. Burns, A. C. Simmonett, R. M. Parrish,
    M. C. Schieber, R. Galvelis, P. Kraus, H. Kruse, R. Di Remigio,
    A. Alenaizan, A. M. James, S. Lehtola, J. P. Misiewicz, M. Scheurer,
    R. A. Shaw, J. B. Schriber, Y. Xie, Z. L. Glick, D. A. Sirianni,
    J. S. O'Brien, J. M. Waldrop, A. Kumar, E. G. Hohenstein,
    B. P. Pritchard, B. R. Brooks, H. F. Schaefer III, A. Yu. Sokolov,
    K. Patkowski, A. E. DePrince III, U. Bozkaya, R. A. King,
    F. A. Evangelista, J. M. Turney, T. D. Crawford, C. D. Sherrill,
    J. Chem. Phys. 152(18) 184108 (2020). https://doi.org/10.1063/5.0006002

                            Additional Code Authors
    E. T. Seidl, C. L. Janssen, E. F. Valeev, M. L. Leininger,
    J. F. Gonthier, R. M. Richard, H. R. McAlexander, M. Saitow, X. Wang,
    P. Verma, and M. H. Lechner

             Previous Authors, Complete List of Code Contributors,
                       and Citations for Specific Modules
    https://github.com/psi4/psi4/blob/master/codemeta.json
    https://github.com/psi4/psi4/graphs/contributors
    http://psicode.org/psi4manual/master/introduction.html#citing-psifour

    -----------------------------------------------------------------------


    Psi4 started on: Friday, 05 November 2021 03:01PM

    Process ID: 6164
    Host:       n079
    PSIDATADIR: /opt/psi/4/master/share/psi4
    Memory:     500.0 MiB
    Threads:    4
    
  ==> Input File <==

--------------------------------------------------------------------------
import os
memory 14 GB 
 
molecule {
 C   -0.3233413506   -0.0000026083    0.0004939256
 C    0.0610553116   -1.4012154305   -2.4253287078
 C    0.0610189826    2.8017588578   -0.0007575709
 C    0.0612231906   -1.4005407942    2.4274330376
 H    2.0905583814   -1.6452432345   -2.8462837649
 H   -0.7679173932   -0.3840527780   -4.0235665372
 H   -0.7668221342   -3.2980818463   -2.3508395914
 H    2.0867969984    3.2881045464   -0.0016104066
 H   -0.7664078434    3.6753270613    1.6751576235
 H   -0.7648815470    3.6851847533   -1.6778322163
 H    2.0833151882   -1.6429566732    2.8485973136
 H   -0.7643093246   -3.2859176922    2.3471537501
 H   -0.7628963364   -0.3923884751    4.0273831448
units bohr
0 2
}

basis {

assign 6-31g_2dfp_

[ 6-31g_2dfp_ ]

spherical

!----------------------------------------------------------------------
! Basis Set Exchange
! Version v0.8.13
! https://www.basissetexchange.org
!----------------------------------------------------------------------
!   Basis set: 6-31G(2df,p)
! Description: 6-31G(2df,p)
!        Role: orbital
!     Version: 0  (Data from the original Basis Set Exchange)
!----------------------------------------------------------------------


****
H     0
S    3   1.00
     18.7311370              0.03349460
      2.8253937              0.23472695
      0.6401217              0.81375733
S    1   1.00
      0.1612778              1.00000000
P    1   1.00
      1.5000000              1.0000000
P    1   1.00
      0.3750000              1.0000000
****
B     0
S    6   1.00
   2068.8823000              0.0018663
    310.6495700              0.0142515
     70.6830330              0.0695516
     19.8610800              0.2325729
      6.2993048              0.4670787
      2.1270270              0.3634314
SP   3   1.00
      4.7279710             -0.1303938              0.0745976
      1.1903377             -0.1307889              0.3078467
      0.3594117              1.1309444              0.7434568
SP   1   1.00
      0.1267512              1.0000000              1.0000000
D    1   1.00
      0.8020000              1.0000000
D    1   1.00
      0.2005000              1.0000000
F    1   1.00
      0.5000000              1.0000000
****
C     0
S    6   1.00
   3047.5249000              0.0018347
    457.3695100              0.0140373
    103.9486900              0.0688426
     29.2101550              0.2321844
      9.2866630              0.4679413
      3.1639270              0.3623120
SP   3   1.00
      7.8682724             -0.1193324              0.0689991
      1.8812885             -0.1608542              0.3164240
      0.5442493              1.1434564              0.7443083
SP   1   1.00
      0.1687144              1.0000000              1.0000000
D    1   1.00
      1.2520000              1.0000000
D    1   1.00
      0.3130000              1.0000000
F    1   1.00
      0.8000000              1.0000000
****
N     0
S    6   1.00
   4173.5110000              0.0018348
    627.4579000              0.0139950
    142.9021000              0.0685870
     40.2343300              0.2322410
     12.8202100              0.4690700
      4.3904370              0.3604550
SP   3   1.00
     11.6263580             -0.1149610              0.0675800
      2.7162800             -0.1691180              0.3239070
      0.7722180              1.1458520              0.7408950
SP   1   1.00
      0.2120313              1.0000000              1.0000000
D    1   1.00
      1.8260000              1.0000000
D    1   1.00
      0.4565000              1.0000000
F    1   1.00
      1.0000000              1.0000000
****
O     0
S    6   1.00
   5484.6717000              0.0018311
    825.2349500              0.0139501
    188.0469600              0.0684451
     52.9645000              0.2327143
     16.8975700              0.4701930
      5.7996353              0.3585209
SP   3   1.00
     15.5396160             -0.1107775              0.0708743
      3.5999336             -0.1480263              0.3397528
      1.0137618              1.1307670              0.7271586
SP   1   1.00
      0.2700058              1.0000000              1.0000000
D    1   1.00
      2.5840000              1.0000000
D    1   1.00
      0.6460000              1.0000000
F    1   1.00
      1.4000000              1.0000000
****
F     0
S    6   1.00
   7001.7130900              0.0018196169
   1051.3660900              0.0139160796
    239.2856900              0.0684053245
     67.3974453              0.233185760
     21.5199573              0.471267439
      7.40310130             0.356618546
SP   3   1.00
     20.8479528             -0.108506975            0.0716287243
      4.80830834            -0.146451658            0.3459121030
      1.34406986             1.128688580            0.7224699570
SP   1   1.00
      0.358151393            1.0000000              1.0000000
D    1   1.00
      3.5000000              1.0000000
D    1   1.00
      0.8750000              1.0000000
F    1   1.00
      1.8500000              1.0000000
****
Al     0
S    6   1.00
  13983.1000000              0.00194267
   2098.7500000              0.0148599
    477.7050000              0.0728494
    134.3600000              0.2468300
     42.8709000              0.4872580
     14.5189000              0.3234960
SP   6   1.00
    239.6680000             -0.00292619             0.00460285
     57.4419000             -0.0374080              0.0331990
     18.2859000             -0.1144870              0.1362820
      6.5991400              0.1156350              0.3304760
      2.4904900              0.6125950              0.4491460
      0.9445400              0.3937990              0.2657040
SP   3   1.00
      1.2779000             -0.2276060             -0.0175130
      0.3975900              0.00144583             0.2445330
      0.1600950              1.0927900              0.8049340
SP   1   1.00
      0.0556577              1.0000000              1.0000000
D    1   1.00
      0.6500000              1.0000000
D    1   1.00
      0.1625000              1.0000000
F    1   1.00
      0.2500000              1.0000000
****
Si     0
S    6   1.00
  16115.9000000              0.00195948
   2425.5800000              0.01492880
    553.8670000              0.07284780
    156.3400000              0.24613000
     50.0683000              0.48591400
     17.0178000              0.32500200
SP   6   1.00
    292.7180000             -0.00278094             0.00443826
     69.8731000             -0.03571460             0.03266790
     22.3363000             -0.11498500             0.13472100
      8.1503900              0.09356340             0.32867800
      3.1345800              0.60301700             0.44964000
      1.2254300              0.41895900             0.26137200
SP   3   1.00
      1.7273800             -0.24463000            -0.01779510
      0.5729220              0.00431572             0.25353900
      0.2221920              1.09818000             0.80066900
SP   1   1.00
      0.0778369              1.00000000             1.00000000
D    1   1.00
      0.9000000              1.0000000
D    1   1.00
      0.2250000              1.0000000
F    1   1.00
      0.3200000              1.0000000
****
P     0
S    6   1.00
  19413.3000000              0.0018516
   2909.4200000              0.0142062
    661.3640000              0.0699995
    185.7590000              0.2400790
     59.1943000              0.4847620
     20.0310000              0.3352000
SP   6   1.00
    339.4780000             -0.00278217             0.00456462
     81.0101000             -0.0360499              0.03369360
     25.8780000             -0.1166310              0.13975500
      9.4522100              0.0968328              0.33936200
      3.6656600              0.6144180              0.45092100
      1.4674600              0.4037980              0.23858600
SP   3   1.00
      2.1562300             -0.2529230             -0.01776530
      0.7489970              0.0328517              0.27405800
      0.2831450              1.0812500              0.78542100
SP   1   1.00
      0.0998317              1.0000000              1.00000000
D    1   1.00
      1.1000000              1.0000000
D    1   1.00
      0.2750000              1.0000000
F    1   1.00
      0.4500000              1.0000000
****
S     0
S    6   1.00
  21917.1000000              0.0018690
   3301.4900000              0.0142300
    754.1460000              0.0696960
    212.7110000              0.2384870
     67.9896000              0.4833070
     23.0515000              0.3380740
SP   6   1.00
    423.7350000             -0.0023767              0.0040610
    100.7100000             -0.0316930              0.0306810
     32.1599000             -0.1133170              0.1304520
     11.8079000              0.0560900              0.3272050
      4.6311000              0.5922550              0.4528510
      1.8702500              0.4550060              0.2560420
SP   3   1.00
      2.6158400             -0.2503740             -0.0145110
      0.9221670              0.0669570              0.3102630
      0.3412870              1.0545100              0.7544830
SP   1   1.00
      0.1171670              1.0000000              1.0000000
D    1   1.00
      1.3000000              1.0000000
D    1   1.00
      0.3250000              1.0000000
F    1   1.00
      0.5500000              1.0000000
****
Cl     0
S    6   1.00
  25180.1000000              0.0018330
   3780.3500000              0.0140340
    860.4740000              0.0690970
    242.1450000              0.2374520
     77.3349000              0.4830340
     26.2470000              0.3398560
SP   6   1.00
    491.7650000             -0.0022974              0.0039894
    116.9840000             -0.0307140              0.0303180
     37.4153000             -0.1125280              0.1298800
     13.7834000              0.0450160              0.3279510
      5.4521500              0.5893530              0.4535270
      2.2258800              0.4652060              0.2521540
SP   3   1.00
      3.1864900             -0.2518300             -0.0142990
      1.1442700              0.0615890              0.3235720
      0.4203770              1.0601800              0.7435070
SP   1   1.00
      0.1426570              1.0000000              1.0000000
D    1   1.00
      1.5000000              1.0000000
D    1   1.00
      0.3750000              1.0000000
F    1   1.00
      0.7000000              1.0000000
****
}


set {
reference uhf                          
freeze_core true
e_convergence 10                       
d_convergence 10                      
dft_spherical_points 1202
dft_radial_points 99
}

e = energy('b3lyp')

print_out('Grab this energy {0}'.format(e))
--------------------------------------------------------------------------

  Memory set to  13.039 GiB by Python driver.

Scratch directory: /tmp/

*** tstart() called on n079
*** at Fri Nov  5 15:01:47 2021

   => Loading Basis Set <=

    Name: ANONYMOUS293F413D
    Role: ORBITAL
    Keyword: BASIS
    atoms 1-4  entry C          line    48 inputblock 6-31g_2dfp_ 
    atoms 5-13 entry H          line    15 inputblock 6-31g_2dfp_ 


         ---------------------------------------------------------
                                   SCF
               by Justin Turney, Rob Parrish, Andy Simmonett
                          and Daniel G. A. Smith
                              UKS Reference
                        4 Threads,  13351 MiB Core
         ---------------------------------------------------------

  ==> Geometry <==

    Molecular point group: c1
    Full point group: C1

    Geometry (in Bohr), charge = 0, multiplicity = 2:

       Center              X                  Y                   Z               Mass       
    ------------   -----------------  -----------------  -----------------  -----------------
         C           -0.323340603102    -0.000002183717     0.000139396506    12.000000000000
         C            0.061056059098    -1.401215005917    -2.425683236894    12.000000000000
         C            0.061019730098     2.801759282383    -0.001112099994    12.000000000000
         C            0.061223938098    -1.400540369617     2.427078508506    12.000000000000
         H            2.090559128898    -1.645242809917    -2.846638293994     1.007825032230
         H           -0.767916645702    -0.384052353417    -4.023921066294     1.007825032230
         H           -0.766821386702    -3.298081421717    -2.351194120494     1.007825032230
         H            2.086797745898     3.288104970983    -0.001964935694     1.007825032230
         H           -0.766407095902     3.675327485883     1.674803094406     1.007825032230
         H           -0.764880799502     3.685185177883    -1.678186745394     1.007825032230
         H            2.083315935698    -1.642956248617     2.848242784506     1.007825032230
         H           -0.764308577102    -3.285917267617     2.346799221006     1.007825032230
         H           -0.762895588902    -0.392388050517     4.027028615706     1.007825032230

  Running in c1 symmetry.

  Rotational constants: A =      0.26741  B =      0.26725  C =      0.14535 [cm^-1]
  Rotational constants: A =   8016.61400  B =   8012.01004  C =   4357.39661 [MHz]
  Nuclear repulsion =  125.394663346307198

  Charge       = 0
  Multiplicity = 2
  Electrons    = 33
  Nalpha       = 17
  Nbeta        = 16

  ==> Algorithm <==

  SCF Algorithm Type is DF.
  DIIS enabled.
  MOM disabled.
  Fractional occupation disabled.
  Guess Type is SAD.
  Energy threshold   = 1.00e-10
  Density threshold  = 1.00e-10
  Integral threshold = 0.00e+00

  ==> Primary Basis <==

  Basis Set: ANONYMOUS293F413D
    Blend: 6-31G_2DFP_
    Number of shells: 68
    Number of basis function: 176
    Number of Cartesian functions: 196
    Spherical Harmonics?: true
    Max angular momentum: 3

  ==> DFT Potential <==

   => Composite Functional: B3LYP <= 

    B3LYP Hyb-GGA Exchange-Correlation Functional

    P. J. Stephens, F. J. Devlin, C. F. Chabalowski, and M. J. Frisch, J. Phys. Chem. 98, 11623 (1994)

    Deriv               =              1
    GGA                 =           TRUE
    Meta                =          FALSE

    Exchange Hybrid     =           TRUE
    MP2 Hybrid          =          FALSE

   => Exchange Functionals <=

    0.0800   Slater exchange
    0.7200         Becke 88

   => Exact (HF) Exchange <=

    0.2000               HF 

   => Correlation Functionals <=

    0.1900   Vosko, Wilk & Nusair (VWN5_RPA)
    0.8100   Lee, Yang & Parr

   => Molecular Quadrature <=

    Radial Scheme          =       TREUTLER
    Pruning Scheme         =           NONE
    Nuclear Scheme         =       TREUTLER

    BS radius alpha        =              1
    Pruning alpha          =              1
    Radial Points          =             99
    Spherical Points       =           1202
    Total Points           =        1442428
    Total Blocks           =           9597
    Max Points             =            256
    Max Functions          =            176
    Weights Tolerance      =       1.00E-15

   => Loading Basis Set <=

    Name: (ANONYMOUS293F413D AUX)
    Role: JKFIT
    Keyword: DF_BASIS_SCF
    atoms 1-4  entry C          line   198 file /opt/psi/4/master/share/psi4/basis/def2-universal-jkfit.gbs 
    atoms 5-13 entry H          line    18 file /opt/psi/4/master/share/psi4/basis/def2-universal-jkfit.gbs 

  ==> Integral Setup <==

  DFHelper Memory: AOs need 0.114 GiB; user supplied 3.919 GiB. Using in-core AOs.

  ==> MemDFJK: Density-Fitted J/K Matrices <==

    J tasked:                   Yes
    K tasked:                   Yes
    wK tasked:                   No
    OpenMP threads:               4
    Memory [MiB]:              4013
    Algorithm:                 Core
    Schwarz Cutoff:           1E-12
    Mask sparsity (%):       1.2913
    Fitting Condition:        1E-10

   => Auxiliary Basis Set <=

  Basis Set: (ANONYMOUS293F413D AUX)
    Blend: DEF2-UNIVERSAL-JKFIT
    Number of shells: 154
    Number of basis function: 462
    Number of Cartesian functions: 536
    Spherical Harmonics?: true
    Max angular momentum: 4

  Cached 100.0% of DFT collocation blocks in 5.860 [GiB].

  Minimum eigenvalue in the overlap matrix is 1.2847003414E-03.
  Reciprocal condition number of the overlap matrix is 2.1819505605E-04.
    Using symmetric orthogonalization.

  ==> Pre-Iterations <==

  SCF Guess: Superposition of Atomic Densities via on-the-fly atomic UHF (no occupation information).

   -------------------------
    Irrep   Nso     Nmo    
   -------------------------
     A        176     176 
   -------------------------
    Total     176     176
   -------------------------

  ==> Iterations <==

                           Total Energy        Delta E     RMS |[F,P]|

   @DF-UKS iter SAD:  -157.07648210969032   -1.57076e+02   0.00000e+00 
   @DF-UKS iter   1:  -157.41662896927772   -3.40147e-01   4.82178e-03 DIIS
   @DF-UKS iter   2:  -157.26086955345420    1.55759e-01   5.53956e-03 DIIS
   @DF-UKS iter   3:  -157.80975132869827   -5.48882e-01   4.40439e-04 DIIS
   @DF-UKS iter   4:  -157.81214438932639   -2.39306e-03   2.41349e-04 DIIS
   @DF-UKS iter   5:  -157.81304024177476   -8.95852e-04   2.24725e-05 DIIS
   @DF-UKS iter   6:  -157.81305047398951   -1.02322e-05   8.21809e-06 DIIS
   @DF-UKS iter   7:  -157.81305208958224   -1.61559e-06   2.79596e-06 DIIS
   @DF-UKS iter   8:  -157.81305230912017   -2.19538e-07   7.53198e-07 DIIS
   @DF-UKS iter   9:  -157.81305232929674   -2.01766e-08   1.22695e-07 DIIS
   @DF-UKS iter  10:  -157.81305232999782   -7.01078e-10   2.16655e-08 DIIS
   @DF-UKS iter  11:  -157.81305233001837   -2.05489e-11   5.95304e-09 DIIS
   @DF-UKS iter  12:  -157.81305233001925   -8.81073e-13   3.83358e-09 DIIS
   @DF-UKS iter  13:  -157.81305233001925    0.00000e+00   1.17049e-09 DIIS
   @DF-UKS iter  14:  -157.81305233001964   -3.97904e-13   2.25582e-10 DIIS
   @DF-UKS iter  15:  -157.81305233001967   -2.84217e-14   3.15657e-11 DIIS
  Energy and wave function converged.


  ==> Post-Iterations <==

   @Spin Contamination Metric:   4.061501884E-03
   @S^2 Expected:                7.500000000E-01
   @S^2 Observed:                7.540615019E-01
   @S   Expected:                5.000000000E-01
   @S   Observed:                5.000000000E-01

    Orbital Energies [Eh]
    ---------------------

    Alpha Occupied:                                                       

       1A    -10.180343     2A    -10.167595     3A    -10.167015  
       4A    -10.166433     5A     -0.797767     6A     -0.686510  
       7A     -0.685866     8A     -0.530775     9A     -0.441126  
      10A     -0.434760    11A     -0.434586    12A     -0.382821  
      13A     -0.382375    14A     -0.363611    15A     -0.338030  
      16A     -0.337966    17A     -0.168961  

    Alpha Virtual:                                                        

      18A      0.076071    19A      0.134137    20A      0.134155  
      21A      0.142532    22A      0.142738    23A      0.154875  
      24A      0.178458    25A      0.179104    26A      0.203529  
      27A      0.214822    28A      0.275940    29A      0.276030  
      30A      0.399149    31A      0.399308    32A      0.403344  
      33A      0.424002    34A      0.424193    35A      0.456592  
      36A      0.495320    37A      0.495460    38A      0.512161  
      39A      0.513979    40A      0.578691    41A      0.578937  
      42A      0.591324    43A      0.591925    44A      0.602590  
      45A      0.624691    46A      0.631771    47A      0.635906  
      48A      0.636672    49A      0.663230    50A      0.663597  
      51A      0.683546    52A      0.684175    53A      0.734993  
      54A      0.825004    55A      0.825801    56A      0.853917  
      57A      0.915015    58A      0.915038    59A      0.944023  
      60A      0.944702    61A      0.961047    62A      0.961546  
      63A      1.003469    64A      1.127778    65A      1.128434  
      66A      1.142217    67A      1.163180    68A      1.163357  
      69A      1.223324    70A      1.274315    71A      1.274676  
      72A      1.279348    73A      1.323996    74A      1.324707  
      75A      1.355964    76A      1.365785    77A      1.366311  
      78A      1.392465    79A      1.403639    80A      1.404406  
      81A      1.416812    82A      1.417441    83A      1.427920  
      84A      1.491492    85A      1.499089    86A      1.542778  
      87A      1.542890    88A      1.574168    89A      1.574732  
      90A      1.669806    91A      1.739328    92A      1.739487  
      93A      1.768329    94A      1.829833    95A      1.833030  
      96A      1.971701    97A      2.018075    98A      2.019009  
      99A      2.019299   100A      2.052604   101A      2.052729  
     102A      2.738039   103A      2.738932   104A      2.790921  
     105A      2.811431   106A      2.889656   107A      2.890208  
     108A      2.894977   109A      2.929392   110A      2.929600  
     111A      2.959008   112A      2.963858   113A      2.964910  
     114A      3.034025   115A      3.071058   116A      3.071505  
     117A      3.084376   118A      3.168652   119A      3.168912  
     120A      3.180593   121A      3.285237   122A      3.285375  
     123A      3.327135   124A      3.327221   125A      3.375608  
     126A      3.489320   127A      3.490984   128A      3.513931  
     129A      3.525432   130A      3.568320   131A      3.568408  
     132A      3.575197   133A      3.665614   134A      3.667078  
     135A      3.679647   136A      3.693662   137A      3.694595  
     138A      3.776245   139A      3.777419   140A      3.789118  
     141A      3.911788   142A      3.912676   143A      4.034444  
     144A      4.110577   145A      4.112037   146A      4.146081  
     147A      4.150072   148A      4.173302   149A      4.200778  
     150A      4.202895   151A      4.205034   152A      4.211177  
     153A      4.315259   154A      4.316651   155A      4.358930  
     156A      4.424180   157A      4.424638   158A      4.443559  
     159A      4.516595   160A      4.517058   161A      4.577841  
     162A      4.578738   163A      4.617545   164A      4.709462  
     165A      4.774490   166A      4.774697   167A      4.836887  
     168A      4.962892   169A      5.002402   170A      5.003548  
     171A      5.227835   172A      5.243122   173A      5.250489  
     174A      5.352582   175A      5.358618   176A      5.479434  

    Beta Occupied:                                                        

       1A    -10.168357     2A    -10.167775     3A    -10.167195  
       4A    -10.166517     5A     -0.781093     6A     -0.684312  
       7A     -0.683669     8A     -0.511746     9A     -0.431142  
      10A     -0.430946    11A     -0.421824    12A     -0.376914  
      13A     -0.376451    14A     -0.362594    15A     -0.333146  
      16A     -0.333096  

    Beta Virtual:                                                         

      17A     -0.025743    18A      0.077080    19A      0.134977  
      20A      0.135096    21A      0.144449    22A      0.144560  
      23A      0.163334    24A      0.182138    25A      0.182766  
      26A      0.214986    27A      0.218977    28A      0.282285  
      29A      0.282380    30A      0.400315    31A      0.400481  
      32A      0.419790    33A      0.426810    34A      0.427007  
      35A      0.468499    36A      0.497581    37A      0.497721  
      38A      0.513897    39A      0.556324    40A      0.584233  
      41A      0.584494    42A      0.597529    43A      0.598084  
      44A      0.610008    45A      0.628011    46A      0.632022  
      47A      0.639196    48A      0.639918    49A      0.666780  
      50A      0.667174    51A      0.686216    52A      0.686776  
      53A      0.757516    54A      0.830147    55A      0.830995  
      56A      0.855272    57A      0.922987    58A      0.923007  
      59A      0.945942    60A      0.953549    61A      0.966382  
      62A      0.966823    63A      1.008708    64A      1.131789  
      65A      1.132477    66A      1.155593    67A      1.168243  
      68A      1.168446    69A      1.232297    70A      1.279910  
      71A      1.280275    72A      1.285100    73A      1.328939  
      74A      1.329743    75A      1.365371    76A      1.371045  
      77A      1.371544    78A      1.393526    79A      1.407091  
      80A      1.407895    81A      1.421814    82A      1.422533  
      83A      1.428189    84A      1.492542    85A      1.509530  
      86A      1.547140    87A      1.547342    88A      1.582048  
      89A      1.582595    90A      1.674652    91A      1.745109  
      92A      1.745234    93A      1.779106    94A      1.833718  
      95A      1.836856    96A      1.972567    97A      2.025400  
      98A      2.025478    99A      2.039674   100A      2.059262  
     101A      2.059506   102A      2.746360   103A      2.747282  
     104A      2.811834   105A      2.816066   106A      2.902440  
     107A      2.902827   108A      2.924651   109A      2.931924  
     110A      2.932031   111A      2.960076   112A      2.968364  
     113A      2.969494   114A      3.041959   115A      3.080893  
     116A      3.081453   117A      3.086230   118A      3.184356  
     119A      3.184692   120A      3.188291   121A      3.290008  
     122A      3.290198   123A      3.330961   124A      3.331006  
     125A      3.383425   126A      3.492083   127A      3.493683  
     128A      3.512319   129A      3.528454   130A      3.574958  
     131A      3.581718   132A      3.581780   133A      3.670312  
     134A      3.671886   135A      3.692966   136A      3.725282  
     137A      3.726207   138A      3.780803   139A      3.781917  
     140A      3.817664   141A      3.921618   142A      3.922480  
     143A      4.045326   144A      4.117601   145A      4.118622  
     146A      4.153515   147A      4.157087   148A      4.187352  
     149A      4.207471   150A      4.209025   151A      4.212046  
     152A      4.215666   153A      4.322822   154A      4.323964  
     155A      4.362297   156A      4.432413   157A      4.432790  
     158A      4.446489   159A      4.524446   160A      4.524789  
     161A      4.588489   162A      4.589292   163A      4.624735  
     164A      4.719804   165A      4.781411   166A      4.781682  
     167A      4.839807   168A      4.967687   169A      5.006458  
     170A      5.007570   171A      5.233544   172A      5.244914  
     173A      5.252276   174A      5.359075   175A      5.365082  
     176A      5.481755  

    Final Occupation by Irrep:
              A 
    DOCC [    16 ]
    SOCC [     1 ]

  @DF-UKS Final Energy:  -157.81305233001967

   => Energetics <=

    Nuclear Repulsion Energy =            125.3946633463071976
    One-Electron Energy =                -458.7489434945159132
    Two-Electron Energy =                 195.8483755227663039
    DFT Exchange-Correlation Energy =     -20.3071477045772717
    Empirical Dispersion Energy =           0.0000000000000000
    VV10 Nonlocal Energy =                  0.0000000000000000
    Total Energy =                       -157.8130523300196728

  UHF NO Occupations:
  HONO-2 :   15  A 1.9996009
  HONO-1 :   16  A 1.9989804
  HONO-0 :   17  A 1.0000000
  LUNO+0 :   18  A 0.0010196
  LUNO+1 :   19  A 0.0003991
  LUNO+2 :   20  A 0.0001976
  LUNO+3 :   21  A 0.0001975


Computation Completed


Properties will be evaluated at   0.000000,   0.000000,   0.000000 [a0]

Properties computed using the SCF density matrix

  Nuclear Dipole Moment: [e a0]
     X:     0.8272      Y:    -0.0000      Z:    -0.0025

  Electronic Dipole Moment: [e a0]
     X:    -0.7493      Y:     0.0000      Z:     0.0049

  Dipole Moment: [e a0]
     X:     0.0779      Y:     0.0000      Z:     0.0024     Total:     0.0780

  Dipole Moment: [D]
     X:     0.1980      Y:     0.0000      Z:     0.0062     Total:     0.1981


*** tstop() called on n079 at Fri Nov  5 15:03:52 2021
Module time:
	user time   =     493.47 seconds =       8.22 minutes
	system time =       4.56 seconds =       0.08 minutes
	total time  =        125 seconds =       2.08 minutes
Total time:
	user time   =     493.47 seconds =       8.22 minutes
	system time =       4.56 seconds =       0.08 minutes
	total time  =        125 seconds =       2.08 minutes
Grab this energy -157.81305233001967
    Psi4 stopped on: Friday, 05 November 2021 03:03PM
    Psi4 wall time for execution: 0:02:05.23

*** Psi4 exiting successfully. Buy a developer a beer!
