
    -----------------------------------------------------------------------
          Psi4: An Open-Source Ab Initio Electronic Structure Package
                               Psi4 1.4a2.dev629 

                         Git: Rev {master} 2938fc2 dirty


    D. G. A. Smith, L. A. Burns, A. C. Simmonett, R. M. Parrish,
    M. C. Schieber, R. Galvelis, P. Kraus, H. Kruse, R. Di Remigio,
    A. Alenaizan, A. M. James, S. Lehtola, J. P. Misiewicz, M. Scheurer,
    R. A. Shaw, J. B. Schriber, Y. Xie, Z. L. Glick, D. A. Sirianni,
    J. S. O'Brien, J. M. Waldrop, A. Kumar, E. G. Hohenstein,
    B. P. Pritchard, B. R. Brooks, H. F. Schaefer III, A. Yu. Sokolov,
    K. Patkowski, A. E. DePrince III, U. Bozkaya, R. A. King,
    F. A. Evangelista, J. M. Turney, T. D. Crawford, C. D. Sherrill,
    J. Chem. Phys. 152(18) 184108 (2020). https://doi.org/10.1063/5.0006002

                            Additional Code Authors
    E. T. Seidl, C. L. Janssen, E. F. Valeev, M. L. Leininger,
    J. F. Gonthier, R. M. Richard, H. R. McAlexander, M. Saitow, X. Wang,
    P. Verma, and M. H. Lechner

             Previous Authors, Complete List of Code Contributors,
                       and Citations for Specific Modules
    https://github.com/psi4/psi4/blob/master/codemeta.json
    https://github.com/psi4/psi4/graphs/contributors
    http://psicode.org/psi4manual/master/introduction.html#citing-psifour

    -----------------------------------------------------------------------


    Psi4 started on: Friday, 05 November 2021 01:05PM

    Process ID: 13411
    Host:       n082
    PSIDATADIR: /opt/psi/4/master/share/psi4
    Memory:     500.0 MiB
    Threads:    4
    
  ==> Input File <==

--------------------------------------------------------------------------
import os
memory 14 GB 
 
molecule {
 C   -0.3233287076   -0.0000014671   -0.0002261847
 C    0.0611779298   -1.4005057454   -2.4262219867
 C    0.0612029464    2.8033992157   -0.0004845133
 C    0.0614674349   -1.4028889639    2.4293813135
 H    2.0869194319   -1.6442241690   -2.8474767871
 H   -0.7654435746   -0.3883333215   -4.0255278723
 H   -0.7655457640   -3.2920560440   -2.3490527851
 H    2.0868494767    3.2876068712    0.0001838784
 H   -0.7657042094    3.6797602767    1.6766945430
 H   -0.7658261870    3.6797853428   -1.6765125410
 H    2.0870530709   -1.6434756886    2.8465479238
 H   -0.7658269277   -3.2916384757    2.3479905957
 H   -0.7656027971   -0.3874521448    4.0247044157
units bohr
0 2
}

basis {

assign 6-31g_2dfp_

[ 6-31g_2dfp_ ]

spherical

!----------------------------------------------------------------------
! Basis Set Exchange
! Version v0.8.13
! https://www.basissetexchange.org
!----------------------------------------------------------------------
!   Basis set: 6-31G(2df,p)
! Description: 6-31G(2df,p)
!        Role: orbital
!     Version: 0  (Data from the original Basis Set Exchange)
!----------------------------------------------------------------------


****
H     0
S    3   1.00
     18.7311370              0.03349460
      2.8253937              0.23472695
      0.6401217              0.81375733
S    1   1.00
      0.1612778              1.00000000
P    1   1.00
      1.5000000              1.0000000
P    1   1.00
      0.3750000              1.0000000
****
B     0
S    6   1.00
   2068.8823000              0.0018663
    310.6495700              0.0142515
     70.6830330              0.0695516
     19.8610800              0.2325729
      6.2993048              0.4670787
      2.1270270              0.3634314
SP   3   1.00
      4.7279710             -0.1303938              0.0745976
      1.1903377             -0.1307889              0.3078467
      0.3594117              1.1309444              0.7434568
SP   1   1.00
      0.1267512              1.0000000              1.0000000
D    1   1.00
      0.8020000              1.0000000
D    1   1.00
      0.2005000              1.0000000
F    1   1.00
      0.5000000              1.0000000
****
C     0
S    6   1.00
   3047.5249000              0.0018347
    457.3695100              0.0140373
    103.9486900              0.0688426
     29.2101550              0.2321844
      9.2866630              0.4679413
      3.1639270              0.3623120
SP   3   1.00
      7.8682724             -0.1193324              0.0689991
      1.8812885             -0.1608542              0.3164240
      0.5442493              1.1434564              0.7443083
SP   1   1.00
      0.1687144              1.0000000              1.0000000
D    1   1.00
      1.2520000              1.0000000
D    1   1.00
      0.3130000              1.0000000
F    1   1.00
      0.8000000              1.0000000
****
N     0
S    6   1.00
   4173.5110000              0.0018348
    627.4579000              0.0139950
    142.9021000              0.0685870
     40.2343300              0.2322410
     12.8202100              0.4690700
      4.3904370              0.3604550
SP   3   1.00
     11.6263580             -0.1149610              0.0675800
      2.7162800             -0.1691180              0.3239070
      0.7722180              1.1458520              0.7408950
SP   1   1.00
      0.2120313              1.0000000              1.0000000
D    1   1.00
      1.8260000              1.0000000
D    1   1.00
      0.4565000              1.0000000
F    1   1.00
      1.0000000              1.0000000
****
O     0
S    6   1.00
   5484.6717000              0.0018311
    825.2349500              0.0139501
    188.0469600              0.0684451
     52.9645000              0.2327143
     16.8975700              0.4701930
      5.7996353              0.3585209
SP   3   1.00
     15.5396160             -0.1107775              0.0708743
      3.5999336             -0.1480263              0.3397528
      1.0137618              1.1307670              0.7271586
SP   1   1.00
      0.2700058              1.0000000              1.0000000
D    1   1.00
      2.5840000              1.0000000
D    1   1.00
      0.6460000              1.0000000
F    1   1.00
      1.4000000              1.0000000
****
F     0
S    6   1.00
   7001.7130900              0.0018196169
   1051.3660900              0.0139160796
    239.2856900              0.0684053245
     67.3974453              0.233185760
     21.5199573              0.471267439
      7.40310130             0.356618546
SP   3   1.00
     20.8479528             -0.108506975            0.0716287243
      4.80830834            -0.146451658            0.3459121030
      1.34406986             1.128688580            0.7224699570
SP   1   1.00
      0.358151393            1.0000000              1.0000000
D    1   1.00
      3.5000000              1.0000000
D    1   1.00
      0.8750000              1.0000000
F    1   1.00
      1.8500000              1.0000000
****
Al     0
S    6   1.00
  13983.1000000              0.00194267
   2098.7500000              0.0148599
    477.7050000              0.0728494
    134.3600000              0.2468300
     42.8709000              0.4872580
     14.5189000              0.3234960
SP   6   1.00
    239.6680000             -0.00292619             0.00460285
     57.4419000             -0.0374080              0.0331990
     18.2859000             -0.1144870              0.1362820
      6.5991400              0.1156350              0.3304760
      2.4904900              0.6125950              0.4491460
      0.9445400              0.3937990              0.2657040
SP   3   1.00
      1.2779000             -0.2276060             -0.0175130
      0.3975900              0.00144583             0.2445330
      0.1600950              1.0927900              0.8049340
SP   1   1.00
      0.0556577              1.0000000              1.0000000
D    1   1.00
      0.6500000              1.0000000
D    1   1.00
      0.1625000              1.0000000
F    1   1.00
      0.2500000              1.0000000
****
Si     0
S    6   1.00
  16115.9000000              0.00195948
   2425.5800000              0.01492880
    553.8670000              0.07284780
    156.3400000              0.24613000
     50.0683000              0.48591400
     17.0178000              0.32500200
SP   6   1.00
    292.7180000             -0.00278094             0.00443826
     69.8731000             -0.03571460             0.03266790
     22.3363000             -0.11498500             0.13472100
      8.1503900              0.09356340             0.32867800
      3.1345800              0.60301700             0.44964000
      1.2254300              0.41895900             0.26137200
SP   3   1.00
      1.7273800             -0.24463000            -0.01779510
      0.5729220              0.00431572             0.25353900
      0.2221920              1.09818000             0.80066900
SP   1   1.00
      0.0778369              1.00000000             1.00000000
D    1   1.00
      0.9000000              1.0000000
D    1   1.00
      0.2250000              1.0000000
F    1   1.00
      0.3200000              1.0000000
****
P     0
S    6   1.00
  19413.3000000              0.0018516
   2909.4200000              0.0142062
    661.3640000              0.0699995
    185.7590000              0.2400790
     59.1943000              0.4847620
     20.0310000              0.3352000
SP   6   1.00
    339.4780000             -0.00278217             0.00456462
     81.0101000             -0.0360499              0.03369360
     25.8780000             -0.1166310              0.13975500
      9.4522100              0.0968328              0.33936200
      3.6656600              0.6144180              0.45092100
      1.4674600              0.4037980              0.23858600
SP   3   1.00
      2.1562300             -0.2529230             -0.01776530
      0.7489970              0.0328517              0.27405800
      0.2831450              1.0812500              0.78542100
SP   1   1.00
      0.0998317              1.0000000              1.00000000
D    1   1.00
      1.1000000              1.0000000
D    1   1.00
      0.2750000              1.0000000
F    1   1.00
      0.4500000              1.0000000
****
S     0
S    6   1.00
  21917.1000000              0.0018690
   3301.4900000              0.0142300
    754.1460000              0.0696960
    212.7110000              0.2384870
     67.9896000              0.4833070
     23.0515000              0.3380740
SP   6   1.00
    423.7350000             -0.0023767              0.0040610
    100.7100000             -0.0316930              0.0306810
     32.1599000             -0.1133170              0.1304520
     11.8079000              0.0560900              0.3272050
      4.6311000              0.5922550              0.4528510
      1.8702500              0.4550060              0.2560420
SP   3   1.00
      2.6158400             -0.2503740             -0.0145110
      0.9221670              0.0669570              0.3102630
      0.3412870              1.0545100              0.7544830
SP   1   1.00
      0.1171670              1.0000000              1.0000000
D    1   1.00
      1.3000000              1.0000000
D    1   1.00
      0.3250000              1.0000000
F    1   1.00
      0.5500000              1.0000000
****
Cl     0
S    6   1.00
  25180.1000000              0.0018330
   3780.3500000              0.0140340
    860.4740000              0.0690970
    242.1450000              0.2374520
     77.3349000              0.4830340
     26.2470000              0.3398560
SP   6   1.00
    491.7650000             -0.0022974              0.0039894
    116.9840000             -0.0307140              0.0303180
     37.4153000             -0.1125280              0.1298800
     13.7834000              0.0450160              0.3279510
      5.4521500              0.5893530              0.4535270
      2.2258800              0.4652060              0.2521540
SP   3   1.00
      3.1864900             -0.2518300             -0.0142990
      1.1442700              0.0615890              0.3235720
      0.4203770              1.0601800              0.7435070
SP   1   1.00
      0.1426570              1.0000000              1.0000000
D    1   1.00
      1.5000000              1.0000000
D    1   1.00
      0.3750000              1.0000000
F    1   1.00
      0.7000000              1.0000000
****
}


set {
reference uhf                          
freeze_core true
e_convergence 10                       
d_convergence 10                      
dft_spherical_points 1202
dft_radial_points 99
}

e = energy('b3lyp')

print_out('Grab this energy {0}'.format(e))
--------------------------------------------------------------------------

  Memory set to  13.039 GiB by Python driver.

Scratch directory: /tmp/

*** tstart() called on n082
*** at Fri Nov  5 13:05:02 2021

   => Loading Basis Set <=

    Name: ANONYMOUS4EC5FACA
    Role: ORBITAL
    Keyword: BASIS
    atoms 1-4  entry C          line    48 inputblock 6-31g_2dfp_ 
    atoms 5-13 entry H          line    15 inputblock 6-31g_2dfp_ 


         ---------------------------------------------------------
                                   SCF
               by Justin Turney, Rob Parrish, Andy Simmonett
                          and Daniel G. A. Smith
                              UKS Reference
                        4 Threads,  13351 MiB Core
         ---------------------------------------------------------

  ==> Geometry <==

    Molecular point group: c1
    Full point group: C1

    Geometry (in Bohr), charge = 0, multiplicity = 2:

       Center              X                  Y                   Z               Mass       
    ------------   -----------------  -----------------  -----------------  -----------------
         C           -0.323436488344    -0.000001623129    -0.000697808242    12.000000000000
         C            0.061070149056    -1.400505901429    -2.426693610242    12.000000000000
         C            0.061095165656     2.803399059671    -0.000956136842    12.000000000000
         C            0.061359654156    -1.402889119929     2.428909689958    12.000000000000
         H            2.086811651156    -1.644224325029    -2.847948410642     1.007825032230
         H           -0.765551355344    -0.388333477529    -4.025999495842     1.007825032230
         H           -0.765653544744    -3.292056200029    -2.349524408642     1.007825032230
         H            2.086741695956     3.287606715171    -0.000287745142     1.007825032230
         H           -0.765811990144     3.679760120671     1.676222919458     1.007825032230
         H           -0.765933967744     3.679785186771    -1.676984164542     1.007825032230
         H            2.086945290156    -1.643475844629     2.846076300258     1.007825032230
         H           -0.765934708444    -3.291638631729     2.347518972158     1.007825032230
         H           -0.765710577844    -0.387452300829     4.024232792158     1.007825032230

  Running in c1 symmetry.

  Rotational constants: A =      0.26730  B =      0.26700  C =      0.14524 [cm^-1]
  Rotational constants: A =   8013.32553  B =   8004.40201  C =   4354.22517 [MHz]
  Nuclear repulsion =  125.366647096844133

  Charge       = 0
  Multiplicity = 2
  Electrons    = 33
  Nalpha       = 17
  Nbeta        = 16

  ==> Algorithm <==

  SCF Algorithm Type is DF.
  DIIS enabled.
  MOM disabled.
  Fractional occupation disabled.
  Guess Type is SAD.
  Energy threshold   = 1.00e-10
  Density threshold  = 1.00e-10
  Integral threshold = 0.00e+00

  ==> Primary Basis <==

  Basis Set: ANONYMOUS4EC5FACA
    Blend: 6-31G_2DFP_
    Number of shells: 68
    Number of basis function: 176
    Number of Cartesian functions: 196
    Spherical Harmonics?: true
    Max angular momentum: 3

  ==> DFT Potential <==

   => Composite Functional: B3LYP <= 

    B3LYP Hyb-GGA Exchange-Correlation Functional

    P. J. Stephens, F. J. Devlin, C. F. Chabalowski, and M. J. Frisch, J. Phys. Chem. 98, 11623 (1994)

    Deriv               =              1
    GGA                 =           TRUE
    Meta                =          FALSE

    Exchange Hybrid     =           TRUE
    MP2 Hybrid          =          FALSE

   => Exchange Functionals <=

    0.0800   Slater exchange
    0.7200         Becke 88

   => Exact (HF) Exchange <=

    0.2000               HF 

   => Correlation Functionals <=

    0.1900   Vosko, Wilk & Nusair (VWN5_RPA)
    0.8100   Lee, Yang & Parr

   => Molecular Quadrature <=

    Radial Scheme          =       TREUTLER
    Pruning Scheme         =           NONE
    Nuclear Scheme         =       TREUTLER

    BS radius alpha        =              1
    Pruning alpha          =              1
    Radial Points          =             99
    Spherical Points       =           1202
    Total Points           =        1442462
    Total Blocks           =           9614
    Max Points             =            256
    Max Functions          =            176
    Weights Tolerance      =       1.00E-15

   => Loading Basis Set <=

    Name: (ANONYMOUS4EC5FACA AUX)
    Role: JKFIT
    Keyword: DF_BASIS_SCF
    atoms 1-4  entry C          line   198 file /opt/psi/4/master/share/psi4/basis/def2-universal-jkfit.gbs 
    atoms 5-13 entry H          line    18 file /opt/psi/4/master/share/psi4/basis/def2-universal-jkfit.gbs 

  ==> Integral Setup <==

  DFHelper Memory: AOs need 0.114 GiB; user supplied 3.919 GiB. Using in-core AOs.

  ==> MemDFJK: Density-Fitted J/K Matrices <==

    J tasked:                   Yes
    K tasked:                   Yes
    wK tasked:                   No
    OpenMP threads:               4
    Memory [MiB]:              4013
    Algorithm:                 Core
    Schwarz Cutoff:           1E-12
    Mask sparsity (%):       1.2913
    Fitting Condition:        1E-10

   => Auxiliary Basis Set <=

  Basis Set: (ANONYMOUS4EC5FACA AUX)
    Blend: DEF2-UNIVERSAL-JKFIT
    Number of shells: 154
    Number of basis function: 462
    Number of Cartesian functions: 536
    Spherical Harmonics?: true
    Max angular momentum: 4

  Cached 100.0% of DFT collocation blocks in 5.860 [GiB].

  Minimum eigenvalue in the overlap matrix is 1.2882421706E-03.
  Reciprocal condition number of the overlap matrix is 2.1882561690E-04.
    Using symmetric orthogonalization.

  ==> Pre-Iterations <==

  SCF Guess: Superposition of Atomic Densities via on-the-fly atomic UHF (no occupation information).

   -------------------------
    Irrep   Nso     Nmo    
   -------------------------
     A        176     176 
   -------------------------
    Total     176     176
   -------------------------

  ==> Iterations <==

                           Total Energy        Delta E     RMS |[F,P]|

   @DF-UKS iter SAD:  -157.07471821636682   -1.57075e+02   0.00000e+00 
   @DF-UKS iter   1:  -157.41706557002405   -3.42347e-01   4.81948e-03 DIIS
   @DF-UKS iter   2:  -157.26296239543893    1.54103e-01   5.52967e-03 DIIS
   @DF-UKS iter   3:  -157.80977429981664   -5.46812e-01   4.38391e-04 DIIS
   @DF-UKS iter   4:  -157.81214223715145   -2.36794e-03   2.40874e-04 DIIS
   @DF-UKS iter   5:  -157.81303497709035   -8.92740e-04   2.24241e-05 DIIS
   @DF-UKS iter   6:  -157.81304516704233   -1.01900e-05   8.20587e-06 DIIS
   @DF-UKS iter   7:  -157.81304677804746   -1.61101e-06   2.79348e-06 DIIS
   @DF-UKS iter   8:  -157.81304699701630   -2.18969e-07   7.58322e-07 DIIS
   @DF-UKS iter   9:  -157.81304701709479   -2.00785e-08   1.63511e-07 DIIS
   @DF-UKS iter  10:  -157.81304701768178   -5.86994e-10   1.35231e-07 DIIS
   @DF-UKS iter  11:  -157.81304701799664   -3.14856e-10   1.62038e-08 DIIS
   @DF-UKS iter  12:  -157.81304701800542   -8.78231e-12   2.52943e-09 DIIS
   @DF-UKS iter  13:  -157.81304701800570   -2.84217e-13   4.32518e-10 DIIS
   @DF-UKS iter  14:  -157.81304701800590   -1.98952e-13   8.06908e-11 DIIS
  Energy and wave function converged.


  ==> Post-Iterations <==

   @Spin Contamination Metric:   4.062335592E-03
   @S^2 Expected:                7.500000000E-01
   @S^2 Observed:                7.540623356E-01
   @S   Expected:                5.000000000E-01
   @S   Observed:                5.000000000E-01

    Orbital Energies [Eh]
    ---------------------

    Alpha Occupied:                                                       

       1A    -10.180393     2A    -10.167006     3A    -10.166966  
       4A    -10.166916     5A     -0.797509     6A     -0.686201  
       7A     -0.686154     8A     -0.530610     9A     -0.441114  
      10A     -0.434686    11A     -0.434522    12A     -0.382827  
      13A     -0.382646    14A     -0.363813    15A     -0.338046  
      16A     -0.337630    17A     -0.168940  

    Alpha Virtual:                                                        

      18A      0.076081    19A      0.134196    20A      0.134231  
      21A      0.142698    22A      0.142826    23A      0.154774  
      24A      0.178862    25A      0.179026    26A      0.203254  
      27A      0.214926    28A      0.275519    29A      0.275969  
      30A      0.399224    31A      0.399243    32A      0.403437  
      33A      0.424106    34A      0.424196    35A      0.456413  
      36A      0.495377    37A      0.495421    38A      0.512215  
      39A      0.514038    40A      0.578816    41A      0.578895  
      42A      0.591673    43A      0.591799    44A      0.602616  
      45A      0.624882    46A      0.632003    47A      0.636028  
      48A      0.636359    49A      0.663236    50A      0.663358  
      51A      0.683845    52A      0.683887    53A      0.735125  
      54A      0.825334    55A      0.825442    56A      0.853780  
      57A      0.915053    58A      0.915083    59A      0.944080  
      60A      0.944300    61A      0.961324    62A      0.961392  
      63A      1.003621    64A      1.127957    65A      1.128106  
      66A      1.141810    67A      1.163591    68A      1.164164  
      69A      1.222904    70A      1.274052    71A      1.274658  
      72A      1.279209    73A      1.324093    74A      1.324222  
      75A      1.355655    76A      1.365766    77A      1.366069  
      78A      1.392937    79A      1.404591    80A      1.404954  
      81A      1.416959    82A      1.417275    83A      1.428179  
      84A      1.490969    85A      1.499660    86A      1.542595  
      87A      1.542736    88A      1.574151    89A      1.574537  
      90A      1.670609    91A      1.738777    92A      1.739045  
      93A      1.768340    94A      1.831332    95A      1.832347  
      96A      1.971136    97A      2.017737    98A      2.018476  
      99A      2.018891   100A      2.051546   101A      2.052900  
     102A      2.738190   103A      2.738433   104A      2.790697  
     105A      2.811340   106A      2.889770   107A      2.889921  
     108A      2.894541   109A      2.929590   110A      2.929710  
     111A      2.959044   112A      2.964323   113A      2.964485  
     114A      3.033836   115A      3.071199   116A      3.071470  
     117A      3.083949   118A      3.168478   119A      3.168859  
     120A      3.180011   121A      3.285637   122A      3.285653  
     123A      3.326726   124A      3.327099   125A      3.375702  
     126A      3.489739   127A      3.490393   128A      3.513862  
     129A      3.524979   130A      3.568064   131A      3.568238  
     132A      3.575280   133A      3.666469   134A      3.667820  
     135A      3.680240   136A      3.694126   137A      3.694378  
     138A      3.776565   139A      3.776924   140A      3.789412  
     141A      3.910377   142A      3.911872   143A      4.033902  
     144A      4.111481   145A      4.111811   146A      4.147840  
     147A      4.148425   148A      4.172571   149A      4.201533  
     150A      4.202178   151A      4.202882   152A      4.210504  
     153A      4.315338   154A      4.316773   155A      4.359613  
     156A      4.424659   157A      4.426539   158A      4.445488  
     159A      4.515855   160A      4.517165   161A      4.577525  
     162A      4.577572   163A      4.617149   164A      4.708169  
     165A      4.773456   166A      4.774079   167A      4.835586  
     168A      4.964145   169A      5.003142   170A      5.004575  
     171A      5.228566   172A      5.246892   173A      5.247292  
     174A      5.355279   175A      5.355406   176A      5.478133  

    Beta Occupied:                                                        

       1A    -10.167762     2A    -10.167721     3A    -10.167678  
       4A    -10.166560     5A     -0.780849     6A     -0.684015  
       7A     -0.683957     8A     -0.511535     9A     -0.431077  
      10A     -0.430910    11A     -0.421854    12A     -0.376947  
      13A     -0.376727    14A     -0.362801    15A     -0.333155  
      16A     -0.332738  

    Beta Virtual:                                                         

      17A     -0.025573    18A      0.077086    19A      0.135092  
      20A      0.135098    21A      0.144583    22A      0.144678  
      23A      0.163191    24A      0.182530    25A      0.182670  
      26A      0.215154    27A      0.218685    28A      0.281895  
      29A      0.282328    30A      0.400390    31A      0.400404  
      32A      0.419875    33A      0.426915    34A      0.427006  
      35A      0.468244    36A      0.497624    37A      0.497681  
      38A      0.513941    39A      0.556414    40A      0.584363  
      41A      0.584452    42A      0.597862    43A      0.597987  
      44A      0.610046    45A      0.628219    46A      0.632156  
      47A      0.639301    48A      0.639622    49A      0.666792  
      50A      0.666925    51A      0.686482    52A      0.686500  
      53A      0.757726    54A      0.830482    55A      0.830600  
      56A      0.855121    57A      0.923025    58A      0.923060  
      59A      0.945909    60A      0.953216    61A      0.966624  
      62A      0.966685    63A      1.008870    64A      1.131999  
      65A      1.132138    66A      1.155145    67A      1.168657  
      68A      1.169267    69A      1.231935    70A      1.279613  
      71A      1.280226    72A      1.284986    73A      1.329074  
      74A      1.329175    75A      1.365061    76A      1.371096  
      77A      1.371346    78A      1.393985    79A      1.408077  
      80A      1.408337    81A      1.422024    82A      1.422301  
      83A      1.428466    84A      1.492004    85A      1.510082  
      86A      1.546972    87A      1.547129    88A      1.582036  
      89A      1.582433    90A      1.675462    91A      1.744537  
      92A      1.744812    93A      1.779081    94A      1.835172  
      95A      1.836168    96A      1.971988    97A      2.024096  
      98A      2.025184    99A      2.039872   100A      2.058302  
     101A      2.059656   102A      2.746580   103A      2.746778  
     104A      2.811753   105A      2.815867   106A      2.902523  
     107A      2.902630   108A      2.924204   109A      2.932057  
     110A      2.932147   111A      2.960108   112A      2.968822  
     113A      2.969012   114A      3.041729   115A      3.081069  
     116A      3.081329   117A      3.085762   118A      3.184277  
     119A      3.184689   120A      3.187777   121A      3.290376  
     122A      3.290413   123A      3.330544   124A      3.330900  
     125A      3.383489   126A      3.492438   127A      3.493137  
     128A      3.512229   129A      3.528061   130A      3.575132  
     131A      3.581455   132A      3.581666   133A      3.671379  
     134A      3.672800   135A      3.693538   136A      3.725627  
     137A      3.725889   138A      3.780985   139A      3.781429  
     140A      3.818012   141A      3.920282   142A      3.921676  
     143A      4.044868   144A      4.118098   145A      4.118631  
     146A      4.155197   147A      4.155590   148A      4.186577  
     149A      4.207892   150A      4.208671   151A      4.209837  
     152A      4.214960   153A      4.322841   154A      4.324332  
     155A      4.362954   156A      4.432830   157A      4.434645  
     158A      4.448396   159A      4.523587   160A      4.524885  
     161A      4.588093   162A      4.588170   163A      4.624321  
     164A      4.718512   165A      4.780430   166A      4.781014  
     167A      4.838506   168A      4.968918   169A      5.007173  
     170A      5.008577   171A      5.234265   172A      5.248674  
     173A      5.249059   174A      5.361710   175A      5.361879  
     176A      5.480446  

    Final Occupation by Irrep:
              A 
    DOCC [    16 ]
    SOCC [     1 ]

  @DF-UKS Final Energy:  -157.81304701800590

   => Energetics <=

    Nuclear Repulsion Energy =            125.3666470968441331
    One-Electron Energy =                -458.6938589669592830
    Two-Electron Energy =                 195.8214236116500899
    DFT Exchange-Correlation Energy =     -20.3072587595408507
    Empirical Dispersion Energy =           0.0000000000000000
    VV10 Nonlocal Energy =                  0.0000000000000000
    Total Energy =                       -157.8130470180059035

  UHF NO Occupations:
  HONO-2 :   15  A 1.9996025
  HONO-1 :   16  A 1.9989782
  HONO-0 :   17  A 1.0000000
  LUNO+0 :   18  A 0.0010218
  LUNO+1 :   19  A 0.0003975
  LUNO+2 :   20  A 0.0001987
  LUNO+3 :   21  A 0.0001979


Computation Completed


Properties will be evaluated at   0.000000,   0.000000,   0.000000 [a0]

Properties computed using the SCF density matrix

  Nuclear Dipole Moment: [e a0]
     X:     0.8264      Y:    -0.0000      Z:    -0.0033

  Electronic Dipole Moment: [e a0]
     X:    -0.7484      Y:     0.0000      Z:     0.0034

  Dipole Moment: [e a0]
     X:     0.0780      Y:     0.0000      Z:     0.0001     Total:     0.0780

  Dipole Moment: [D]
     X:     0.1984      Y:     0.0000      Z:     0.0002     Total:     0.1984


*** tstop() called on n082 at Fri Nov  5 13:07:00 2021
Module time:
	user time   =     465.27 seconds =       7.75 minutes
	system time =       4.30 seconds =       0.07 minutes
	total time  =        118 seconds =       1.97 minutes
Total time:
	user time   =     465.27 seconds =       7.75 minutes
	system time =       4.30 seconds =       0.07 minutes
	total time  =        118 seconds =       1.97 minutes
Grab this energy -157.8130470180059
    Psi4 stopped on: Friday, 05 November 2021 01:07PM
    Psi4 wall time for execution: 0:01:58.13

*** Psi4 exiting successfully. Buy a developer a beer!
