
    -----------------------------------------------------------------------
          Psi4: An Open-Source Ab Initio Electronic Structure Package
                               Psi4 1.4a2.dev629 

                         Git: Rev {master} 2938fc2 dirty


    D. G. A. Smith, L. A. Burns, A. C. Simmonett, R. M. Parrish,
    M. C. Schieber, R. Galvelis, P. Kraus, H. Kruse, R. Di Remigio,
    A. Alenaizan, A. M. James, S. Lehtola, J. P. Misiewicz, M. Scheurer,
    R. A. Shaw, J. B. Schriber, Y. Xie, Z. L. Glick, D. A. Sirianni,
    J. S. O'Brien, J. M. Waldrop, A. Kumar, E. G. Hohenstein,
    B. P. Pritchard, B. R. Brooks, H. F. Schaefer III, A. Yu. Sokolov,
    K. Patkowski, A. E. DePrince III, U. Bozkaya, R. A. King,
    F. A. Evangelista, J. M. Turney, T. D. Crawford, C. D. Sherrill,
    J. Chem. Phys. 152(18) 184108 (2020). https://doi.org/10.1063/5.0006002

                            Additional Code Authors
    E. T. Seidl, C. L. Janssen, E. F. Valeev, M. L. Leininger,
    J. F. Gonthier, R. M. Richard, H. R. McAlexander, M. Saitow, X. Wang,
    P. Verma, and M. H. Lechner

             Previous Authors, Complete List of Code Contributors,
                       and Citations for Specific Modules
    https://github.com/psi4/psi4/blob/master/codemeta.json
    https://github.com/psi4/psi4/graphs/contributors
    http://psicode.org/psi4manual/master/introduction.html#citing-psifour

    -----------------------------------------------------------------------


    Psi4 started on: Friday, 05 November 2021 03:26PM

    Process ID: 31281
    Host:       n056
    PSIDATADIR: /opt/psi/4/master/share/psi4
    Memory:     500.0 MiB
    Threads:    4
    
  ==> Input File <==

--------------------------------------------------------------------------
import os
memory 14 GB 
 
molecule {
 C   -0.3233419504   -0.0000041967   -0.0024282435
 C    0.0604497783   -1.4004844088   -2.4253551224
 C    0.0610176397    2.8017576252   -0.0020495495
 C    0.0618287573   -1.4012717699    2.4274076057
 H    2.0847078676   -1.6472682969   -2.8464300628
 H   -0.7651259852   -0.3847335968   -4.0211662738
 H   -0.7682974110   -3.2918544670   -2.3496397946
 H    2.0867915632    3.2881061007    0.0017710008
 H   -0.7706717691    3.6729277377    1.6721304584
 H   -0.7606091899    3.6875853012   -1.6808298874
 H    2.0891603512   -1.6409215094    2.8484527105
 H   -0.7628392383   -3.2921448656    2.3483405704
 H   -0.7656782903   -0.3917179674    4.0297965883
units bohr
0 2
}

basis {

assign 6-31g_2dfp_

[ 6-31g_2dfp_ ]

spherical

!----------------------------------------------------------------------
! Basis Set Exchange
! Version v0.8.13
! https://www.basissetexchange.org
!----------------------------------------------------------------------
!   Basis set: 6-31G(2df,p)
! Description: 6-31G(2df,p)
!        Role: orbital
!     Version: 0  (Data from the original Basis Set Exchange)
!----------------------------------------------------------------------


****
H     0
S    3   1.00
     18.7311370              0.03349460
      2.8253937              0.23472695
      0.6401217              0.81375733
S    1   1.00
      0.1612778              1.00000000
P    1   1.00
      1.5000000              1.0000000
P    1   1.00
      0.3750000              1.0000000
****
B     0
S    6   1.00
   2068.8823000              0.0018663
    310.6495700              0.0142515
     70.6830330              0.0695516
     19.8610800              0.2325729
      6.2993048              0.4670787
      2.1270270              0.3634314
SP   3   1.00
      4.7279710             -0.1303938              0.0745976
      1.1903377             -0.1307889              0.3078467
      0.3594117              1.1309444              0.7434568
SP   1   1.00
      0.1267512              1.0000000              1.0000000
D    1   1.00
      0.8020000              1.0000000
D    1   1.00
      0.2005000              1.0000000
F    1   1.00
      0.5000000              1.0000000
****
C     0
S    6   1.00
   3047.5249000              0.0018347
    457.3695100              0.0140373
    103.9486900              0.0688426
     29.2101550              0.2321844
      9.2866630              0.4679413
      3.1639270              0.3623120
SP   3   1.00
      7.8682724             -0.1193324              0.0689991
      1.8812885             -0.1608542              0.3164240
      0.5442493              1.1434564              0.7443083
SP   1   1.00
      0.1687144              1.0000000              1.0000000
D    1   1.00
      1.2520000              1.0000000
D    1   1.00
      0.3130000              1.0000000
F    1   1.00
      0.8000000              1.0000000
****
N     0
S    6   1.00
   4173.5110000              0.0018348
    627.4579000              0.0139950
    142.9021000              0.0685870
     40.2343300              0.2322410
     12.8202100              0.4690700
      4.3904370              0.3604550
SP   3   1.00
     11.6263580             -0.1149610              0.0675800
      2.7162800             -0.1691180              0.3239070
      0.7722180              1.1458520              0.7408950
SP   1   1.00
      0.2120313              1.0000000              1.0000000
D    1   1.00
      1.8260000              1.0000000
D    1   1.00
      0.4565000              1.0000000
F    1   1.00
      1.0000000              1.0000000
****
O     0
S    6   1.00
   5484.6717000              0.0018311
    825.2349500              0.0139501
    188.0469600              0.0684451
     52.9645000              0.2327143
     16.8975700              0.4701930
      5.7996353              0.3585209
SP   3   1.00
     15.5396160             -0.1107775              0.0708743
      3.5999336             -0.1480263              0.3397528
      1.0137618              1.1307670              0.7271586
SP   1   1.00
      0.2700058              1.0000000              1.0000000
D    1   1.00
      2.5840000              1.0000000
D    1   1.00
      0.6460000              1.0000000
F    1   1.00
      1.4000000              1.0000000
****
F     0
S    6   1.00
   7001.7130900              0.0018196169
   1051.3660900              0.0139160796
    239.2856900              0.0684053245
     67.3974453              0.233185760
     21.5199573              0.471267439
      7.40310130             0.356618546
SP   3   1.00
     20.8479528             -0.108506975            0.0716287243
      4.80830834            -0.146451658            0.3459121030
      1.34406986             1.128688580            0.7224699570
SP   1   1.00
      0.358151393            1.0000000              1.0000000
D    1   1.00
      3.5000000              1.0000000
D    1   1.00
      0.8750000              1.0000000
F    1   1.00
      1.8500000              1.0000000
****
Al     0
S    6   1.00
  13983.1000000              0.00194267
   2098.7500000              0.0148599
    477.7050000              0.0728494
    134.3600000              0.2468300
     42.8709000              0.4872580
     14.5189000              0.3234960
SP   6   1.00
    239.6680000             -0.00292619             0.00460285
     57.4419000             -0.0374080              0.0331990
     18.2859000             -0.1144870              0.1362820
      6.5991400              0.1156350              0.3304760
      2.4904900              0.6125950              0.4491460
      0.9445400              0.3937990              0.2657040
SP   3   1.00
      1.2779000             -0.2276060             -0.0175130
      0.3975900              0.00144583             0.2445330
      0.1600950              1.0927900              0.8049340
SP   1   1.00
      0.0556577              1.0000000              1.0000000
D    1   1.00
      0.6500000              1.0000000
D    1   1.00
      0.1625000              1.0000000
F    1   1.00
      0.2500000              1.0000000
****
Si     0
S    6   1.00
  16115.9000000              0.00195948
   2425.5800000              0.01492880
    553.8670000              0.07284780
    156.3400000              0.24613000
     50.0683000              0.48591400
     17.0178000              0.32500200
SP   6   1.00
    292.7180000             -0.00278094             0.00443826
     69.8731000             -0.03571460             0.03266790
     22.3363000             -0.11498500             0.13472100
      8.1503900              0.09356340             0.32867800
      3.1345800              0.60301700             0.44964000
      1.2254300              0.41895900             0.26137200
SP   3   1.00
      1.7273800             -0.24463000            -0.01779510
      0.5729220              0.00431572             0.25353900
      0.2221920              1.09818000             0.80066900
SP   1   1.00
      0.0778369              1.00000000             1.00000000
D    1   1.00
      0.9000000              1.0000000
D    1   1.00
      0.2250000              1.0000000
F    1   1.00
      0.3200000              1.0000000
****
P     0
S    6   1.00
  19413.3000000              0.0018516
   2909.4200000              0.0142062
    661.3640000              0.0699995
    185.7590000              0.2400790
     59.1943000              0.4847620
     20.0310000              0.3352000
SP   6   1.00
    339.4780000             -0.00278217             0.00456462
     81.0101000             -0.0360499              0.03369360
     25.8780000             -0.1166310              0.13975500
      9.4522100              0.0968328              0.33936200
      3.6656600              0.6144180              0.45092100
      1.4674600              0.4037980              0.23858600
SP   3   1.00
      2.1562300             -0.2529230             -0.01776530
      0.7489970              0.0328517              0.27405800
      0.2831450              1.0812500              0.78542100
SP   1   1.00
      0.0998317              1.0000000              1.00000000
D    1   1.00
      1.1000000              1.0000000
D    1   1.00
      0.2750000              1.0000000
F    1   1.00
      0.4500000              1.0000000
****
S     0
S    6   1.00
  21917.1000000              0.0018690
   3301.4900000              0.0142300
    754.1460000              0.0696960
    212.7110000              0.2384870
     67.9896000              0.4833070
     23.0515000              0.3380740
SP   6   1.00
    423.7350000             -0.0023767              0.0040610
    100.7100000             -0.0316930              0.0306810
     32.1599000             -0.1133170              0.1304520
     11.8079000              0.0560900              0.3272050
      4.6311000              0.5922550              0.4528510
      1.8702500              0.4550060              0.2560420
SP   3   1.00
      2.6158400             -0.2503740             -0.0145110
      0.9221670              0.0669570              0.3102630
      0.3412870              1.0545100              0.7544830
SP   1   1.00
      0.1171670              1.0000000              1.0000000
D    1   1.00
      1.3000000              1.0000000
D    1   1.00
      0.3250000              1.0000000
F    1   1.00
      0.5500000              1.0000000
****
Cl     0
S    6   1.00
  25180.1000000              0.0018330
   3780.3500000              0.0140340
    860.4740000              0.0690970
    242.1450000              0.2374520
     77.3349000              0.4830340
     26.2470000              0.3398560
SP   6   1.00
    491.7650000             -0.0022974              0.0039894
    116.9840000             -0.0307140              0.0303180
     37.4153000             -0.1125280              0.1298800
     13.7834000              0.0450160              0.3279510
      5.4521500              0.5893530              0.4535270
      2.2258800              0.4652060              0.2521540
SP   3   1.00
      3.1864900             -0.2518300             -0.0142990
      1.1442700              0.0615890              0.3235720
      0.4203770              1.0601800              0.7435070
SP   1   1.00
      0.1426570              1.0000000              1.0000000
D    1   1.00
      1.5000000              1.0000000
D    1   1.00
      0.3750000              1.0000000
F    1   1.00
      0.7000000              1.0000000
****
}


set {
reference uhf                          
freeze_core true
e_convergence 10                       
d_convergence 10                      
dft_spherical_points 1202
dft_radial_points 99
}

e = energy('b3lyp')

print_out('Grab this energy {0}'.format(e))
--------------------------------------------------------------------------

  Memory set to  13.039 GiB by Python driver.

Scratch directory: /tmp/

*** tstart() called on n056
*** at Fri Nov  5 15:26:32 2021

   => Loading Basis Set <=

    Name: ANONYMOUS8F467480
    Role: ORBITAL
    Keyword: BASIS
    atoms 1-4  entry C          line    48 inputblock 6-31g_2dfp_ 
    atoms 5-13 entry H          line    15 inputblock 6-31g_2dfp_ 


         ---------------------------------------------------------
                                   SCF
               by Justin Turney, Rob Parrish, Andy Simmonett
                          and Daniel G. A. Smith
                              UKS Reference
                        4 Threads,  13351 MiB Core
         ---------------------------------------------------------

  ==> Geometry <==

    Molecular point group: c1
    Full point group: C1

    Geometry (in Bohr), charge = 0, multiplicity = 2:

       Center              X                  Y                   Z               Mass       
    ------------   -----------------  -----------------  -----------------  -----------------
         C           -0.323340835152    -0.000003237628    -0.001961111385    12.000000000000
         C            0.060450893548    -1.400483449728    -2.424887990285    12.000000000000
         C            0.061018754948     2.801758584272    -0.001582417385    12.000000000000
         C            0.061829872548    -1.401270810828     2.427874737815    12.000000000000
         H            2.084708982848    -1.647267337828    -2.845962930685     1.007825032230
         H           -0.765124869952    -0.384732637728    -4.020699141685     1.007825032230
         H           -0.768296295752    -3.291853507928    -2.349172662485     1.007825032230
         H            2.086792678448     3.288107059772     0.002238132915     1.007825032230
         H           -0.770670653852     3.672928696772     1.672597590515     1.007825032230
         H           -0.760608074652     3.687586260272    -1.680362755285     1.007825032230
         H            2.089161466448    -1.640920550328     2.848919842615     1.007825032230
         H           -0.762838123052    -3.292143906528     2.348807702515     1.007825032230
         H           -0.765677175052    -0.391717008328     4.030263720415     1.007825032230

  Running in c1 symmetry.

  Rotational constants: A =      0.26756  B =      0.26710  C =      0.14535 [cm^-1]
  Rotational constants: A =   8021.10474  B =   8007.52880  C =   4357.39557 [MHz]
  Nuclear repulsion =  125.394639950891673

  Charge       = 0
  Multiplicity = 2
  Electrons    = 33
  Nalpha       = 17
  Nbeta        = 16

  ==> Algorithm <==

  SCF Algorithm Type is DF.
  DIIS enabled.
  MOM disabled.
  Fractional occupation disabled.
  Guess Type is SAD.
  Energy threshold   = 1.00e-10
  Density threshold  = 1.00e-10
  Integral threshold = 0.00e+00

  ==> Primary Basis <==

  Basis Set: ANONYMOUS8F467480
    Blend: 6-31G_2DFP_
    Number of shells: 68
    Number of basis function: 176
    Number of Cartesian functions: 196
    Spherical Harmonics?: true
    Max angular momentum: 3

  ==> DFT Potential <==

   => Composite Functional: B3LYP <= 

    B3LYP Hyb-GGA Exchange-Correlation Functional

    P. J. Stephens, F. J. Devlin, C. F. Chabalowski, and M. J. Frisch, J. Phys. Chem. 98, 11623 (1994)

    Deriv               =              1
    GGA                 =           TRUE
    Meta                =          FALSE

    Exchange Hybrid     =           TRUE
    MP2 Hybrid          =          FALSE

   => Exchange Functionals <=

    0.0800   Slater exchange
    0.7200         Becke 88

   => Exact (HF) Exchange <=

    0.2000               HF 

   => Correlation Functionals <=

    0.1900   Vosko, Wilk & Nusair (VWN5_RPA)
    0.8100   Lee, Yang & Parr

   => Molecular Quadrature <=

    Radial Scheme          =       TREUTLER
    Pruning Scheme         =           NONE
    Nuclear Scheme         =       TREUTLER

    BS radius alpha        =              1
    Pruning alpha          =              1
    Radial Points          =             99
    Spherical Points       =           1202
    Total Points           =        1442436
    Total Blocks           =           9598
    Max Points             =            256
    Max Functions          =            176
    Weights Tolerance      =       1.00E-15

   => Loading Basis Set <=

    Name: (ANONYMOUS8F467480 AUX)
    Role: JKFIT
    Keyword: DF_BASIS_SCF
    atoms 1-4  entry C          line   198 file /opt/psi/4/master/share/psi4/basis/def2-universal-jkfit.gbs 
    atoms 5-13 entry H          line    18 file /opt/psi/4/master/share/psi4/basis/def2-universal-jkfit.gbs 

  ==> Integral Setup <==

  DFHelper Memory: AOs need 0.114 GiB; user supplied 3.919 GiB. Using in-core AOs.

  ==> MemDFJK: Density-Fitted J/K Matrices <==

    J tasked:                   Yes
    K tasked:                   Yes
    wK tasked:                   No
    OpenMP threads:               4
    Memory [MiB]:              4012
    Algorithm:                 Core
    Schwarz Cutoff:           1E-12
    Mask sparsity (%):       1.3042
    Fitting Condition:        1E-10

   => Auxiliary Basis Set <=

  Basis Set: (ANONYMOUS8F467480 AUX)
    Blend: DEF2-UNIVERSAL-JKFIT
    Number of shells: 154
    Number of basis function: 462
    Number of Cartesian functions: 536
    Spherical Harmonics?: true
    Max angular momentum: 4

  Cached 100.0% of DFT collocation blocks in 5.860 [GiB].

  Minimum eigenvalue in the overlap matrix is 1.2846676675E-03.
  Reciprocal condition number of the overlap matrix is 2.1819083846E-04.
    Using symmetric orthogonalization.

  ==> Pre-Iterations <==

  SCF Guess: Superposition of Atomic Densities via on-the-fly atomic UHF (no occupation information).

   -------------------------
    Irrep   Nso     Nmo    
   -------------------------
     A        176     176 
   -------------------------
    Total     176     176
   -------------------------

  ==> Iterations <==

                           Total Energy        Delta E     RMS |[F,P]|

   @DF-UKS iter SAD:  -157.07649433535130   -1.57076e+02   0.00000e+00 
   @DF-UKS iter   1:  -157.41664243317848   -3.40148e-01   4.82177e-03 DIIS
   @DF-UKS iter   2:  -157.26088156408943    1.55761e-01   5.53956e-03 DIIS
   @DF-UKS iter   3:  -157.80976251908194   -5.48881e-01   4.40421e-04 DIIS
   @DF-UKS iter   4:  -157.81215532924051   -2.39281e-03   2.41346e-04 DIIS
   @DF-UKS iter   5:  -157.81305116027653   -8.95831e-04   2.24731e-05 DIIS
   @DF-UKS iter   6:  -157.81306139213373   -1.02319e-05   8.22048e-06 DIIS
   @DF-UKS iter   7:  -157.81306300796189   -1.61583e-06   2.79967e-06 DIIS
   @DF-UKS iter   8:  -157.81306322762759   -2.19666e-07   7.61335e-07 DIIS
   @DF-UKS iter   9:  -157.81306324775846   -2.01309e-08   1.74588e-07 DIIS
   @DF-UKS iter  10:  -157.81306324836743   -6.08964e-10   1.43922e-07 DIIS
   @DF-UKS iter  11:  -157.81306324872759   -3.60160e-10   1.56534e-08 DIIS
   @DF-UKS iter  12:  -157.81306324873611   -8.52651e-12   2.54076e-09 DIIS
   @DF-UKS iter  13:  -157.81306324873651   -3.97904e-13   4.66393e-10 DIIS
   @DF-UKS iter  14:  -157.81306324873682   -3.12639e-13   1.76803e-10 DIIS
   @DF-UKS iter  15:  -157.81306324873648    3.41061e-13   8.72503e-11 DIIS
  Energy and wave function converged.


  ==> Post-Iterations <==

   @Spin Contamination Metric:   4.061449745E-03
   @S^2 Expected:                7.500000000E-01
   @S^2 Observed:                7.540614497E-01
   @S   Expected:                5.000000000E-01
   @S   Observed:                5.000000000E-01

    Orbital Energies [Eh]
    ---------------------

    Alpha Occupied:                                                       

       1A    -10.180342     2A    -10.167204     3A    -10.167015  
       4A    -10.166825     5A     -0.797768     6A     -0.686330  
       7A     -0.686044     8A     -0.530775     9A     -0.441125  
      10A     -0.434745    11A     -0.434601    12A     -0.382643  
      13A     -0.382553    14A     -0.363609    15A     -0.338147  
      16A     -0.337849    17A     -0.168961  

    Alpha Virtual:                                                        

      18A      0.076073    19A      0.134091    20A      0.134217  
      21A      0.142616    22A      0.142640    23A      0.154879  
      24A      0.178775    25A      0.178781    26A      0.203529  
      27A      0.214818    28A      0.275649    29A      0.276321  
      30A      0.399216    31A      0.399230    32A      0.403355  
      33A      0.424065    34A      0.424133    35A      0.456594  
      36A      0.495339    37A      0.495440    38A      0.512160  
      39A      0.513979    40A      0.578626    41A      0.579001  
      42A      0.591409    43A      0.591864    44A      0.602573  
      45A      0.624687    46A      0.631848    47A      0.636161  
      48A      0.636341    49A      0.663208    50A      0.663616  
      51A      0.683833    52A      0.683873    53A      0.734993  
      54A      0.825377    55A      0.825438    56A      0.853916  
      57A      0.914894    58A      0.915159    59A      0.944018  
      60A      0.944703    61A      0.961252    62A      0.961335  
      63A      1.003469    64A      1.128050    65A      1.128141  
      66A      1.142205    67A      1.163161    68A      1.163406  
      69A      1.223327    70A      1.274312    71A      1.274678  
      72A      1.279356    73A      1.324233    74A      1.324477  
      75A      1.355980    76A      1.365748    77A      1.366340  
      78A      1.392456    79A      1.403709    80A      1.404347  
      81A      1.416867    82A      1.417397    83A      1.427923  
      84A      1.491494    85A      1.499087    86A      1.542694  
      87A      1.542968    88A      1.574223    89A      1.574668  
      90A      1.669838    91A      1.739156    92A      1.739690  
      93A      1.768315    94A      1.830980    95A      1.831807  
      96A      1.971729    97A      2.018196    98A      2.019028  
      99A      2.019163   100A      2.051680   101A      2.053618  
     102A      2.738429   103A      2.738536   104A      2.790925  
     105A      2.811424   106A      2.889510   107A      2.890346  
     108A      2.894995   109A      2.929327   110A      2.929671  
     111A      2.958995   112A      2.964114   113A      2.964641  
     114A      3.034013   115A      3.070992   116A      3.071579  
     117A      3.084343   118A      3.168718   119A      3.168822  
     120A      3.180613   121A      3.285258   122A      3.285347  
     123A      3.326732   124A      3.327618   125A      3.375616  
     126A      3.489916   127A      3.490386   128A      3.513917  
     129A      3.525405   130A      3.567560   131A      3.569227  
     132A      3.575150   133A      3.666164   134A      3.666575  
     135A      3.679673   136A      3.693765   137A      3.694450  
     138A      3.775469   139A      3.778132   140A      3.789165  
     141A      3.911754   142A      3.912735   143A      4.034456  
     144A      4.110343   145A      4.112392   146A      4.147570  
     147A      4.148676   148A      4.173232   149A      4.202344  
     150A      4.202822   151A      4.203604   152A      4.210885  
     153A      4.315443   154A      4.316474   155A      4.358962  
     156A      4.423953   157A      4.424952   158A      4.443447  
     159A      4.516080   160A      4.517598   161A      4.577592  
     162A      4.578924   163A      4.617542   164A      4.709429  
     165A      4.774001   166A      4.775225   167A      4.836927  
     168A      4.962875   169A      5.002337   170A      5.003585  
     171A      5.228027   172A      5.246698   173A      5.246942  
     174A      5.354556   175A      5.356465   176A      5.479351  

    Beta Occupied:                                                        

       1A    -10.167960     2A    -10.167775     3A    -10.167589  
       4A    -10.166519     5A     -0.781093     6A     -0.684121  
       7A     -0.683858     8A     -0.511747     9A     -0.431123  
      10A     -0.430965    11A     -0.421824    12A     -0.376716  
      13A     -0.376650    14A     -0.362593    15A     -0.333270  
      16A     -0.332971  

    Beta Virtual:                                                         

      17A     -0.025742    18A      0.077082    19A      0.134977  
      20A      0.135111    21A      0.144476    22A      0.144521  
      23A      0.163338    24A      0.182445    25A      0.182454  
      26A      0.214983    27A      0.218977    28A      0.282008  
      29A      0.282658    30A      0.400395    31A      0.400399  
      32A      0.419792    33A      0.426863    34A      0.426957  
      35A      0.468502    36A      0.497607    37A      0.497694  
      38A      0.513896    39A      0.556323    40A      0.584165  
      41A      0.584563    42A      0.597609    43A      0.598022  
      44A      0.609995    45A      0.628008    46A      0.632062  
      47A      0.639425    48A      0.639648    49A      0.666782  
      50A      0.667169    51A      0.686480    52A      0.686497  
      53A      0.757516    54A      0.830573    55A      0.830578  
      56A      0.855270    57A      0.922861    58A      0.923134  
      59A      0.945935    60A      0.953552    61A      0.966530  
      62A      0.966670    63A      1.008707    64A      1.132026  
      65A      1.132221    66A      1.155579    67A      1.168297  
      68A      1.168423    69A      1.232299    70A      1.279901  
      71A      1.280278    72A      1.285113    73A      1.329236  
      74A      1.329454    75A      1.365394    76A      1.371029  
      77A      1.371543    78A      1.393516    79A      1.407151  
      80A      1.407844    81A      1.421921    82A      1.422436  
      83A      1.428195    84A      1.492543    85A      1.509529  
      86A      1.547132    87A      1.547345    88A      1.582138  
      89A      1.582497    90A      1.674685    91A      1.744904  
      92A      1.745465    93A      1.779096    94A      1.834829  
      95A      1.835670    96A      1.972591    97A      2.025363  
      98A      2.025519    99A      2.039678   100A      2.058430  
     101A      2.060302   102A      2.746738   103A      2.746899  
     104A      2.811827   105A      2.816069   106A      2.902279  
     107A      2.903000   108A      2.924633   109A      2.931818  
     110A      2.932159   111A      2.960062   112A      2.968675  
     113A      2.969171   114A      3.041947   115A      3.080943  
     116A      3.081448   117A      3.086160   118A      3.184366  
     119A      3.184622   120A      3.188349   121A      3.290052  
     122A      3.290147   123A      3.330546   124A      3.331417  
     125A      3.383433   126A      3.492626   127A      3.493138  
     128A      3.512309   129A      3.528429   130A      3.574997  
     131A      3.580930   132A      3.582534   133A      3.671048  
     134A      3.671205   135A      3.692948   136A      3.725554  
     137A      3.725929   138A      3.780051   139A      3.782629  
     140A      3.817686   141A      3.921616   142A      3.922509  
     143A      4.045344   144A      4.117162   145A      4.119205  
     146A      4.154844   147A      4.155818   148A      4.187289  
     149A      4.208496   150A      4.209408   151A      4.210700  
     152A      4.215369   153A      4.322851   154A      4.323946  
     155A      4.362327   156A      4.432188   157A      4.433144  
     158A      4.446335   159A      4.523880   160A      4.525376  
     161A      4.588189   162A      4.589527   163A      4.624737  
     164A      4.719771   165A      4.780996   166A      4.782139  
     167A      4.839848   168A      4.967668   169A      5.006358  
     170A      5.007642   171A      5.233742   172A      5.248471  
     173A      5.248738   174A      5.361015   175A      5.362967  
     176A      5.481672  

    Final Occupation by Irrep:
              A 
    DOCC [    16 ]
    SOCC [     1 ]

  @DF-UKS Final Energy:  -157.81306324873648

   => Energetics <=

    Nuclear Repulsion Energy =            125.3946399508916727
    One-Electron Energy =                -458.7489287565265954
    Two-Electron Energy =                 195.8483698642384354
    DFT Exchange-Correlation Energy =     -20.3071443073399749
    Empirical Dispersion Energy =           0.0000000000000000
    VV10 Nonlocal Energy =                  0.0000000000000000
    Total Energy =                       -157.8130632487364835

  UHF NO Occupations:
  HONO-2 :   15  A 1.9996009
  HONO-1 :   16  A 1.9989804
  HONO-0 :   17  A 1.0000000
  LUNO+0 :   18  A 0.0010196
  LUNO+1 :   19  A 0.0003991
  LUNO+2 :   20  A 0.0001981
  LUNO+3 :   21  A 0.0001970


Computation Completed


Properties will be evaluated at   0.000000,   0.000000,   0.000000 [a0]

Properties computed using the SCF density matrix

  Nuclear Dipole Moment: [e a0]
     X:     0.8272      Y:    -0.0000      Z:     0.0033

  Electronic Dipole Moment: [e a0]
     X:    -0.7493      Y:     0.0000      Z:    -0.0033

  Dipole Moment: [e a0]
     X:     0.0779      Y:    -0.0000      Z:     0.0000     Total:     0.0779

  Dipole Moment: [D]
     X:     0.1980      Y:    -0.0000      Z:     0.0001     Total:     0.1980


*** tstop() called on n056 at Fri Nov  5 15:28:51 2021
Module time:
	user time   =     539.95 seconds =       9.00 minutes
	system time =      11.79 seconds =       0.20 minutes
	total time  =        139 seconds =       2.32 minutes
Total time:
	user time   =     539.95 seconds =       9.00 minutes
	system time =      11.79 seconds =       0.20 minutes
	total time  =        139 seconds =       2.32 minutes
Grab this energy -157.81306324873648
    Psi4 stopped on: Friday, 05 November 2021 03:28PM
    Psi4 wall time for execution: 0:02:18.74

*** Psi4 exiting successfully. Buy a developer a beer!
