
    -----------------------------------------------------------------------
          Psi4: An Open-Source Ab Initio Electronic Structure Package
                               Psi4 1.4a2.dev629 

                         Git: Rev {master} 2938fc2 dirty


    D. G. A. Smith, L. A. Burns, A. C. Simmonett, R. M. Parrish,
    M. C. Schieber, R. Galvelis, P. Kraus, H. Kruse, R. Di Remigio,
    A. Alenaizan, A. M. James, S. Lehtola, J. P. Misiewicz, M. Scheurer,
    R. A. Shaw, J. B. Schriber, Y. Xie, Z. L. Glick, D. A. Sirianni,
    J. S. O'Brien, J. M. Waldrop, A. Kumar, E. G. Hohenstein,
    B. P. Pritchard, B. R. Brooks, H. F. Schaefer III, A. Yu. Sokolov,
    K. Patkowski, A. E. DePrince III, U. Bozkaya, R. A. King,
    F. A. Evangelista, J. M. Turney, T. D. Crawford, C. D. Sherrill,
    J. Chem. Phys. 152(18) 184108 (2020). https://doi.org/10.1063/5.0006002

                            Additional Code Authors
    E. T. Seidl, C. L. Janssen, E. F. Valeev, M. L. Leininger,
    J. F. Gonthier, R. M. Richard, H. R. McAlexander, M. Saitow, X. Wang,
    P. Verma, and M. H. Lechner

             Previous Authors, Complete List of Code Contributors,
                       and Citations for Specific Modules
    https://github.com/psi4/psi4/blob/master/codemeta.json
    https://github.com/psi4/psi4/graphs/contributors
    http://psicode.org/psi4manual/master/introduction.html#citing-psifour

    -----------------------------------------------------------------------


    Psi4 started on: Friday, 05 November 2021 12:30PM

    Process ID: 10785
    Host:       n073
    PSIDATADIR: /opt/psi/4/master/share/psi4
    Memory:     500.0 MiB
    Threads:    4
    
  ==> Input File <==

--------------------------------------------------------------------------
import os
memory 14 GB 
 
molecule {
 C   -0.3233395155   -0.0002581630   -0.0000009051
 C    0.0601168603   -1.3994660202   -2.4272002206
 C    0.0630723828    2.8017509665    0.0009655938
 C    0.0601150227   -1.4011398015    2.4262330150
 H    2.0870411872   -1.6420185724   -2.8486366244
 H   -0.7628417592   -0.3895477916   -4.0241775081
 H   -0.7674895241   -3.2939781411   -2.3483934345
 H    2.0865981296    3.2881088119    0.0025989429
 H   -0.7639231342    3.6797278678    1.6745297578
 H   -0.7686572233    3.6807425110   -1.6780481244
 H    2.0870370971   -1.6465272671    2.8460336605
 H   -0.7627719720   -3.2904150120    2.3492743835
 H   -0.7675654282   -0.3870037019    4.0268214637
units bohr
0 2
}

basis {

assign 6-31g_2dfp_

[ 6-31g_2dfp_ ]

spherical

!----------------------------------------------------------------------
! Basis Set Exchange
! Version v0.8.13
! https://www.basissetexchange.org
!----------------------------------------------------------------------
!   Basis set: 6-31G(2df,p)
! Description: 6-31G(2df,p)
!        Role: orbital
!     Version: 0  (Data from the original Basis Set Exchange)
!----------------------------------------------------------------------


****
H     0
S    3   1.00
     18.7311370              0.03349460
      2.8253937              0.23472695
      0.6401217              0.81375733
S    1   1.00
      0.1612778              1.00000000
P    1   1.00
      1.5000000              1.0000000
P    1   1.00
      0.3750000              1.0000000
****
B     0
S    6   1.00
   2068.8823000              0.0018663
    310.6495700              0.0142515
     70.6830330              0.0695516
     19.8610800              0.2325729
      6.2993048              0.4670787
      2.1270270              0.3634314
SP   3   1.00
      4.7279710             -0.1303938              0.0745976
      1.1903377             -0.1307889              0.3078467
      0.3594117              1.1309444              0.7434568
SP   1   1.00
      0.1267512              1.0000000              1.0000000
D    1   1.00
      0.8020000              1.0000000
D    1   1.00
      0.2005000              1.0000000
F    1   1.00
      0.5000000              1.0000000
****
C     0
S    6   1.00
   3047.5249000              0.0018347
    457.3695100              0.0140373
    103.9486900              0.0688426
     29.2101550              0.2321844
      9.2866630              0.4679413
      3.1639270              0.3623120
SP   3   1.00
      7.8682724             -0.1193324              0.0689991
      1.8812885             -0.1608542              0.3164240
      0.5442493              1.1434564              0.7443083
SP   1   1.00
      0.1687144              1.0000000              1.0000000
D    1   1.00
      1.2520000              1.0000000
D    1   1.00
      0.3130000              1.0000000
F    1   1.00
      0.8000000              1.0000000
****
N     0
S    6   1.00
   4173.5110000              0.0018348
    627.4579000              0.0139950
    142.9021000              0.0685870
     40.2343300              0.2322410
     12.8202100              0.4690700
      4.3904370              0.3604550
SP   3   1.00
     11.6263580             -0.1149610              0.0675800
      2.7162800             -0.1691180              0.3239070
      0.7722180              1.1458520              0.7408950
SP   1   1.00
      0.2120313              1.0000000              1.0000000
D    1   1.00
      1.8260000              1.0000000
D    1   1.00
      0.4565000              1.0000000
F    1   1.00
      1.0000000              1.0000000
****
O     0
S    6   1.00
   5484.6717000              0.0018311
    825.2349500              0.0139501
    188.0469600              0.0684451
     52.9645000              0.2327143
     16.8975700              0.4701930
      5.7996353              0.3585209
SP   3   1.00
     15.5396160             -0.1107775              0.0708743
      3.5999336             -0.1480263              0.3397528
      1.0137618              1.1307670              0.7271586
SP   1   1.00
      0.2700058              1.0000000              1.0000000
D    1   1.00
      2.5840000              1.0000000
D    1   1.00
      0.6460000              1.0000000
F    1   1.00
      1.4000000              1.0000000
****
F     0
S    6   1.00
   7001.7130900              0.0018196169
   1051.3660900              0.0139160796
    239.2856900              0.0684053245
     67.3974453              0.233185760
     21.5199573              0.471267439
      7.40310130             0.356618546
SP   3   1.00
     20.8479528             -0.108506975            0.0716287243
      4.80830834            -0.146451658            0.3459121030
      1.34406986             1.128688580            0.7224699570
SP   1   1.00
      0.358151393            1.0000000              1.0000000
D    1   1.00
      3.5000000              1.0000000
D    1   1.00
      0.8750000              1.0000000
F    1   1.00
      1.8500000              1.0000000
****
Al     0
S    6   1.00
  13983.1000000              0.00194267
   2098.7500000              0.0148599
    477.7050000              0.0728494
    134.3600000              0.2468300
     42.8709000              0.4872580
     14.5189000              0.3234960
SP   6   1.00
    239.6680000             -0.00292619             0.00460285
     57.4419000             -0.0374080              0.0331990
     18.2859000             -0.1144870              0.1362820
      6.5991400              0.1156350              0.3304760
      2.4904900              0.6125950              0.4491460
      0.9445400              0.3937990              0.2657040
SP   3   1.00
      1.2779000             -0.2276060             -0.0175130
      0.3975900              0.00144583             0.2445330
      0.1600950              1.0927900              0.8049340
SP   1   1.00
      0.0556577              1.0000000              1.0000000
D    1   1.00
      0.6500000              1.0000000
D    1   1.00
      0.1625000              1.0000000
F    1   1.00
      0.2500000              1.0000000
****
Si     0
S    6   1.00
  16115.9000000              0.00195948
   2425.5800000              0.01492880
    553.8670000              0.07284780
    156.3400000              0.24613000
     50.0683000              0.48591400
     17.0178000              0.32500200
SP   6   1.00
    292.7180000             -0.00278094             0.00443826
     69.8731000             -0.03571460             0.03266790
     22.3363000             -0.11498500             0.13472100
      8.1503900              0.09356340             0.32867800
      3.1345800              0.60301700             0.44964000
      1.2254300              0.41895900             0.26137200
SP   3   1.00
      1.7273800             -0.24463000            -0.01779510
      0.5729220              0.00431572             0.25353900
      0.2221920              1.09818000             0.80066900
SP   1   1.00
      0.0778369              1.00000000             1.00000000
D    1   1.00
      0.9000000              1.0000000
D    1   1.00
      0.2250000              1.0000000
F    1   1.00
      0.3200000              1.0000000
****
P     0
S    6   1.00
  19413.3000000              0.0018516
   2909.4200000              0.0142062
    661.3640000              0.0699995
    185.7590000              0.2400790
     59.1943000              0.4847620
     20.0310000              0.3352000
SP   6   1.00
    339.4780000             -0.00278217             0.00456462
     81.0101000             -0.0360499              0.03369360
     25.8780000             -0.1166310              0.13975500
      9.4522100              0.0968328              0.33936200
      3.6656600              0.6144180              0.45092100
      1.4674600              0.4037980              0.23858600
SP   3   1.00
      2.1562300             -0.2529230             -0.01776530
      0.7489970              0.0328517              0.27405800
      0.2831450              1.0812500              0.78542100
SP   1   1.00
      0.0998317              1.0000000              1.00000000
D    1   1.00
      1.1000000              1.0000000
D    1   1.00
      0.2750000              1.0000000
F    1   1.00
      0.4500000              1.0000000
****
S     0
S    6   1.00
  21917.1000000              0.0018690
   3301.4900000              0.0142300
    754.1460000              0.0696960
    212.7110000              0.2384870
     67.9896000              0.4833070
     23.0515000              0.3380740
SP   6   1.00
    423.7350000             -0.0023767              0.0040610
    100.7100000             -0.0316930              0.0306810
     32.1599000             -0.1133170              0.1304520
     11.8079000              0.0560900              0.3272050
      4.6311000              0.5922550              0.4528510
      1.8702500              0.4550060              0.2560420
SP   3   1.00
      2.6158400             -0.2503740             -0.0145110
      0.9221670              0.0669570              0.3102630
      0.3412870              1.0545100              0.7544830
SP   1   1.00
      0.1171670              1.0000000              1.0000000
D    1   1.00
      1.3000000              1.0000000
D    1   1.00
      0.3250000              1.0000000
F    1   1.00
      0.5500000              1.0000000
****
Cl     0
S    6   1.00
  25180.1000000              0.0018330
   3780.3500000              0.0140340
    860.4740000              0.0690970
    242.1450000              0.2374520
     77.3349000              0.4830340
     26.2470000              0.3398560
SP   6   1.00
    491.7650000             -0.0022974              0.0039894
    116.9840000             -0.0307140              0.0303180
     37.4153000             -0.1125280              0.1298800
     13.7834000              0.0450160              0.3279510
      5.4521500              0.5893530              0.4535270
      2.2258800              0.4652060              0.2521540
SP   3   1.00
      3.1864900             -0.2518300             -0.0142990
      1.1442700              0.0615890              0.3235720
      0.4203770              1.0601800              0.7435070
SP   1   1.00
      0.1426570              1.0000000              1.0000000
D    1   1.00
      1.5000000              1.0000000
D    1   1.00
      0.3750000              1.0000000
F    1   1.00
      0.7000000              1.0000000
****
}


set {
reference uhf                          
freeze_core true
e_convergence 10                       
d_convergence 10                      
dft_spherical_points 1202
dft_radial_points 99
}

e = energy('b3lyp')

print_out('Grab this energy {0}'.format(e))
--------------------------------------------------------------------------

  Memory set to  13.039 GiB by Python driver.

Scratch directory: /tmp/

*** tstart() called on n073
*** at Fri Nov  5 12:30:47 2021

   => Loading Basis Set <=

    Name: ANONYMOUSA7C8AAC2
    Role: ORBITAL
    Keyword: BASIS
    atoms 1-4  entry C          line    48 inputblock 6-31g_2dfp_ 
    atoms 5-13 entry H          line    15 inputblock 6-31g_2dfp_ 


         ---------------------------------------------------------
                                   SCF
               by Justin Turney, Rob Parrish, Andy Simmonett
                          and Daniel G. A. Smith
                              UKS Reference
                        4 Threads,  13351 MiB Core
         ---------------------------------------------------------

  ==> Geometry <==

    Molecular point group: c1
    Full point group: C1

    Geometry (in Bohr), charge = 0, multiplicity = 2:

       Center              X                  Y                   Z               Mass       
    ------------   -----------------  -----------------  -----------------  -----------------
         C           -0.323340427521    -0.000428572722    -0.000000420329    12.000000000000
         C            0.060115948279    -1.399636429922    -2.427199735829    12.000000000000
         C            0.063071470779     2.801580556778     0.000966078571    12.000000000000
         C            0.060114110679    -1.401310211222     2.426233499771    12.000000000000
         H            2.087040275179    -1.642188982122    -2.848636139629     1.007825032230
         H           -0.762842671221    -0.389718201322    -4.024177023329     1.007825032230
         H           -0.767490436121    -3.294148550822    -2.348392949729     1.007825032230
         H            2.086597217579     3.287938402178     0.002599427671     1.007825032230
         H           -0.763924046221     3.679557458078     1.674530242571     1.007825032230
         H           -0.768658135321     3.680572101278    -1.678047639629     1.007825032230
         H            2.087036185079    -1.646697676822     2.846034145271     1.007825032230
         H           -0.762772884021    -3.290585421722     2.349274868271     1.007825032230
         H           -0.767566340221    -0.387174111622     4.026821948471     1.007825032230

  Running in c1 symmetry.

  Rotational constants: A =      0.26737  B =      0.26729  C =      0.14535 [cm^-1]
  Rotational constants: A =   8015.53949  B =   8013.09248  C =   4357.40053 [MHz]
  Nuclear repulsion =  125.394637915146561

  Charge       = 0
  Multiplicity = 2
  Electrons    = 33
  Nalpha       = 17
  Nbeta        = 16

  ==> Algorithm <==

  SCF Algorithm Type is DF.
  DIIS enabled.
  MOM disabled.
  Fractional occupation disabled.
  Guess Type is SAD.
  Energy threshold   = 1.00e-10
  Density threshold  = 1.00e-10
  Integral threshold = 0.00e+00

  ==> Primary Basis <==

  Basis Set: ANONYMOUSA7C8AAC2
    Blend: 6-31G_2DFP_
    Number of shells: 68
    Number of basis function: 176
    Number of Cartesian functions: 196
    Spherical Harmonics?: true
    Max angular momentum: 3

  ==> DFT Potential <==

   => Composite Functional: B3LYP <= 

    B3LYP Hyb-GGA Exchange-Correlation Functional

    P. J. Stephens, F. J. Devlin, C. F. Chabalowski, and M. J. Frisch, J. Phys. Chem. 98, 11623 (1994)

    Deriv               =              1
    GGA                 =           TRUE
    Meta                =          FALSE

    Exchange Hybrid     =           TRUE
    MP2 Hybrid          =          FALSE

   => Exchange Functionals <=

    0.0800   Slater exchange
    0.7200         Becke 88

   => Exact (HF) Exchange <=

    0.2000               HF 

   => Correlation Functionals <=

    0.1900   Vosko, Wilk & Nusair (VWN5_RPA)
    0.8100   Lee, Yang & Parr

   => Molecular Quadrature <=

    Radial Scheme          =       TREUTLER
    Pruning Scheme         =           NONE
    Nuclear Scheme         =       TREUTLER

    BS radius alpha        =              1
    Pruning alpha          =              1
    Radial Points          =             99
    Spherical Points       =           1202
    Total Points           =        1442223
    Total Blocks           =           9527
    Max Points             =            256
    Max Functions          =            176
    Weights Tolerance      =       1.00E-15

   => Loading Basis Set <=

    Name: (ANONYMOUSA7C8AAC2 AUX)
    Role: JKFIT
    Keyword: DF_BASIS_SCF
    atoms 1-4  entry C          line   198 file /opt/psi/4/master/share/psi4/basis/def2-universal-jkfit.gbs 
    atoms 5-13 entry H          line    18 file /opt/psi/4/master/share/psi4/basis/def2-universal-jkfit.gbs 

  ==> Integral Setup <==

  DFHelper Memory: AOs need 0.114 GiB; user supplied 3.914 GiB. Using in-core AOs.

  ==> MemDFJK: Density-Fitted J/K Matrices <==

    J tasked:                   Yes
    K tasked:                   Yes
    wK tasked:                   No
    OpenMP threads:               4
    Memory [MiB]:              4008
    Algorithm:                 Core
    Schwarz Cutoff:           1E-12
    Mask sparsity (%):       1.2913
    Fitting Condition:        1E-10

   => Auxiliary Basis Set <=

  Basis Set: (ANONYMOUSA7C8AAC2 AUX)
    Blend: DEF2-UNIVERSAL-JKFIT
    Number of shells: 154
    Number of basis function: 462
    Number of Cartesian functions: 536
    Spherical Harmonics?: true
    Max angular momentum: 4

  Cached 100.0% of DFT collocation blocks in 5.865 [GiB].

  Minimum eigenvalue in the overlap matrix is 1.2847072833E-03.
  Reciprocal condition number of the overlap matrix is 2.1819798165E-04.
    Using symmetric orthogonalization.

  ==> Pre-Iterations <==

  SCF Guess: Superposition of Atomic Densities via on-the-fly atomic UHF (no occupation information).

   -------------------------
    Irrep   Nso     Nmo    
   -------------------------
     A        176     176 
   -------------------------
    Total     176     176
   -------------------------

  ==> Iterations <==

                           Total Energy        Delta E     RMS |[F,P]|

   @DF-UKS iter SAD:  -157.07648184542066   -1.57076e+02   0.00000e+00 
   @DF-UKS iter   1:  -157.41663644737324   -3.40155e-01   4.82177e-03 DIIS
   @DF-UKS iter   2:  -157.26087732727382    1.55759e-01   5.53955e-03 DIIS
   @DF-UKS iter   3:  -157.80975886527690   -5.48882e-01   4.40407e-04 DIIS
   @DF-UKS iter   4:  -157.81215148511205   -2.39262e-03   2.41345e-04 DIIS
   @DF-UKS iter   5:  -157.81304731224068   -8.95827e-04   2.24720e-05 DIIS
   @DF-UKS iter   6:  -157.81305754391681   -1.02317e-05   8.21809e-06 DIIS
   @DF-UKS iter   7:  -157.81305915943963   -1.61552e-06   2.79616e-06 DIIS
   @DF-UKS iter   8:  -157.81305937897827   -2.19539e-07   7.53666e-07 DIIS
   @DF-UKS iter   9:  -157.81305939914992   -2.01717e-08   1.26592e-07 DIIS
   @DF-UKS iter  10:  -157.81305939982653   -6.76607e-10   5.41163e-08 DIIS
   @DF-UKS iter  11:  -157.81305939987382   -4.72937e-11   2.69536e-08 DIIS
   @DF-UKS iter  12:  -157.81305939988837   -1.45519e-11   2.69959e-09 DIIS
   @DF-UKS iter  13:  -157.81305939988840   -2.84217e-14   5.80386e-10 DIIS
   @DF-UKS iter  14:  -157.81305939988846   -5.68434e-14   1.62886e-10 DIIS
   @DF-UKS iter  15:  -157.81305939988849   -2.84217e-14   3.34994e-11 DIIS
  Energy and wave function converged.


  ==> Post-Iterations <==

   @Spin Contamination Metric:   4.061444443E-03
   @S^2 Expected:                7.500000000E-01
   @S^2 Observed:                7.540614444E-01
   @S   Expected:                5.000000000E-01
   @S   Observed:                5.000000000E-01

    Orbital Energies [Eh]
    ---------------------

    Alpha Occupied:                                                       

       1A    -10.180342     2A    -10.167046     3A    -10.167026  
       4A    -10.166972     5A     -0.797766     6A     -0.686221  
       7A     -0.686155     8A     -0.530778     9A     -0.441126  
      10A     -0.434770    11A     -0.434571    12A     -0.382750  
      13A     -0.382448    14A     -0.363611    15A     -0.338082  
      16A     -0.337914    17A     -0.168961  

    Alpha Virtual:                                                        

      18A      0.076071    19A      0.134113    20A      0.134178  
      21A      0.142573    22A      0.142696    23A      0.154878  
      24A      0.178667    25A      0.178895    26A      0.203545  
      27A      0.214804    28A      0.275931    29A      0.276039  
      30A      0.399066    31A      0.399389    32A      0.403347  
      33A      0.424048    34A      0.424144    35A      0.456591  
      36A      0.495361    37A      0.495419    38A      0.512159  
      39A      0.513980    40A      0.578735    41A      0.578899  
      42A      0.591513    43A      0.591752    44A      0.602570  
      45A      0.624717    46A      0.631828    47A      0.636132  
      48A      0.636350    49A      0.663243    50A      0.663584  
      51A      0.683713    52A      0.684012    53A      0.734995  
      54A      0.825394    55A      0.825419    56A      0.853915  
      57A      0.915004    58A      0.915051    59A      0.944100  
      60A      0.944640    61A      0.961203    62A      0.961374  
      63A      1.003456    64A      1.128014    65A      1.128211  
      66A      1.142216    67A      1.163180    68A      1.163358  
      69A      1.223321    70A      1.274353    71A      1.274629  
      72A      1.279354    73A      1.324087    74A      1.324599  
      75A      1.355978    76A      1.365752    77A      1.366356  
      78A      1.392466    79A      1.403937    80A      1.404170  
      81A      1.416819    82A      1.417421    83A      1.427911  
      84A      1.491457    85A      1.499103    86A      1.542777  
      87A      1.542865    88A      1.574298    89A      1.574610  
      90A      1.669837    91A      1.739009    92A      1.739804  
      93A      1.768320    94A      1.831207    95A      1.831598  
      96A      1.971701    97A      2.018302    98A      2.018431  
      99A      2.019704   100A      2.052274   101A      2.053018  
     102A      2.738442   103A      2.738522   104A      2.790923  
     105A      2.811429   106A      2.889677   107A      2.890231  
     108A      2.894940   109A      2.929459   110A      2.929533  
     111A      2.958995   112A      2.964285   113A      2.964480  
     114A      3.033995   115A      3.071177   116A      3.071396  
     117A      3.084375   118A      3.168665   119A      3.168898  
     120A      3.180592   121A      3.285271   122A      3.285341  
     123A      3.327021   124A      3.327324   125A      3.375617  
     126A      3.489869   127A      3.490468   128A      3.514006  
     129A      3.525336   130A      3.568270   131A      3.568510  
     132A      3.575135   133A      3.666094   134A      3.666680  
     135A      3.679669   136A      3.694114   137A      3.694128  
     138A      3.776775   139A      3.776837   140A      3.789116  
     141A      3.912143   142A      3.912311   143A      4.034446  
     144A      4.111213   145A      4.111401   146A      4.148110  
     147A      4.148238   148A      4.173116   149A      4.202496  
     150A      4.202905   151A      4.203390   152A      4.211009  
     153A      4.315518   154A      4.316385   155A      4.358979  
     156A      4.424336   157A      4.424586   158A      4.443430  
     159A      4.515799   160A      4.517897   161A      4.578074  
     162A      4.578481   163A      4.617533   164A      4.709449  
     165A      4.774089   166A      4.775113   167A      4.836908  
     168A      4.962876   169A      5.002494   170A      5.003406  
     171A      5.228035   172A      5.246714   173A      5.246760  
     174A      5.355321   175A      5.355863   176A      5.479381  

    Beta Occupied:                                                        

       1A    -10.167800     2A    -10.167786     3A    -10.167738  
       4A    -10.166519     5A     -0.781091     6A     -0.684023  
       7A     -0.683958     8A     -0.511749     9A     -0.431149  
      10A     -0.430937    11A     -0.421821    12A     -0.376843  
      13A     -0.376524    14A     -0.362594    15A     -0.333207  
      16A     -0.333035  

    Beta Virtual:                                                         

      17A     -0.025742    18A      0.077080    19A      0.135010  
      20A      0.135059    21A      0.144448    22A      0.144563  
      23A      0.163337    24A      0.182336    25A      0.182567  
      26A      0.215027    27A      0.218935    28A      0.282282  
      29A      0.282385    30A      0.400237    31A      0.400559  
      32A      0.419791    33A      0.426857    34A      0.426958  
      35A      0.468499    36A      0.497625    37A      0.497676  
      38A      0.513896    39A      0.556324    40A      0.584290  
      41A      0.584444    42A      0.597688    43A      0.597936  
      44A      0.609993    45A      0.628062    46A      0.632015  
      47A      0.639417    48A      0.639637    49A      0.666823  
      50A      0.667132    51A      0.686345    52A      0.686649  
      53A      0.757518    54A      0.830565    55A      0.830585  
      56A      0.855269    57A      0.922976    58A      0.923021  
      59A      0.945959    60A      0.953546    61A      0.966503  
      62A      0.966686    63A      1.008696    64A      1.132004  
      65A      1.132277    66A      1.155595    67A      1.168301  
      68A      1.168383    69A      1.232294    70A      1.279946  
      71A      1.280232    72A      1.285107    73A      1.329065  
      74A      1.329597    75A      1.365392    76A      1.370996  
      77A      1.371600    78A      1.393525    79A      1.407389  
      80A      1.407650    81A      1.421885    82A      1.422456  
      83A      1.428180    84A      1.492518    85A      1.509534  
      86A      1.547202    87A      1.547258    88A      1.582223  
      89A      1.582425    90A      1.674682    91A      1.744777  
      92A      1.745559    93A      1.779100    94A      1.835063  
      95A      1.835453    96A      1.972574    97A      2.024813  
      98A      2.026079    99A      2.039710   100A      2.059014  
     101A      2.059706   102A      2.746783   103A      2.746854  
     104A      2.811837   105A      2.816063   106A      2.902376  
     107A      2.902910   108A      2.924649   109A      2.931940  
     110A      2.932010   111A      2.960058   112A      2.968834  
     113A      2.969020   114A      3.041927   115A      3.081093  
     116A      3.081290   117A      3.086207   118A      3.184439  
     119A      3.184621   120A      3.188275   121A      3.290079  
     122A      3.290130   123A      3.330812   124A      3.331143  
     125A      3.383435   126A      3.492601   127A      3.493197  
     128A      3.512374   129A      3.528377   130A      3.574996  
     131A      3.581675   132A      3.581786   133A      3.670900  
     134A      3.671366   135A      3.692962   136A      3.725601  
     137A      3.725910   138A      3.781311   139A      3.781350  
     140A      3.817662   141A      3.921943   142A      3.922144  
     143A      4.045334   144A      4.118073   145A      4.118161  
     146A      4.155283   147A      4.155498   148A      4.187131  
     149A      4.208839   150A      4.209148   151A      4.210619  
     152A      4.215551   153A      4.322936   154A      4.323849  
     155A      4.362344   156A      4.432563   157A      4.432788  
     158A      4.446311   159A      4.523593   160A      4.525683  
     161A      4.588690   162A      4.589069   163A      4.624724  
     164A      4.719794   165A      4.781060   166A      4.782048  
     167A      4.839825   168A      4.967672   169A      5.006550  
     170A      5.007427   171A      5.233750   172A      5.248503  
     173A      5.248549   174A      5.361798   175A      5.362338  
     176A      5.481703  

    Final Occupation by Irrep:
              A 
    DOCC [    16 ]
    SOCC [     1 ]

  @DF-UKS Final Energy:  -157.81305939988849

   => Energetics <=

    Nuclear Repulsion Energy =            125.3946379151465607
    One-Electron Energy =                -458.7489103313544092
    Two-Electron Energy =                 195.8483589083582785
    DFT Exchange-Correlation Energy =     -20.3071458920389247
    Empirical Dispersion Energy =           0.0000000000000000
    VV10 Nonlocal Energy =                  0.0000000000000000
    Total Energy =                       -157.8130593998884876

  UHF NO Occupations:
  HONO-2 :   15  A 1.9996009
  HONO-1 :   16  A 1.9989805
  HONO-0 :   17  A 1.0000000
  LUNO+0 :   18  A 0.0010195
  LUNO+1 :   19  A 0.0003991
  LUNO+2 :   20  A 0.0001977
  LUNO+3 :   21  A 0.0001974


Computation Completed


Properties will be evaluated at   0.000000,   0.000000,   0.000000 [a0]

Properties computed using the SCF density matrix

  Nuclear Dipole Moment: [e a0]
     X:     0.8272      Y:    -0.0012      Z:     0.0000

  Electronic Dipole Moment: [e a0]
     X:    -0.7493      Y:     0.0011      Z:     0.0000

  Dipole Moment: [e a0]
     X:     0.0779      Y:    -0.0001      Z:     0.0000     Total:     0.0779

  Dipole Moment: [D]
     X:     0.1980      Y:    -0.0003      Z:     0.0000     Total:     0.1980


*** tstop() called on n073 at Fri Nov  5 12:33:14 2021
Module time:
	user time   =     568.37 seconds =       9.47 minutes
	system time =      13.00 seconds =       0.22 minutes
	total time  =        147 seconds =       2.45 minutes
Total time:
	user time   =     568.37 seconds =       9.47 minutes
	system time =      13.00 seconds =       0.22 minutes
	total time  =        147 seconds =       2.45 minutes
Grab this energy -157.8130593998885
    Psi4 stopped on: Friday, 05 November 2021 12:33PM
    Psi4 wall time for execution: 0:02:26.19

*** Psi4 exiting successfully. Buy a developer a beer!
