
    -----------------------------------------------------------------------
          Psi4: An Open-Source Ab Initio Electronic Structure Package
                               Psi4 1.4a2.dev629 

                         Git: Rev {master} 2938fc2 dirty


    D. G. A. Smith, L. A. Burns, A. C. Simmonett, R. M. Parrish,
    M. C. Schieber, R. Galvelis, P. Kraus, H. Kruse, R. Di Remigio,
    A. Alenaizan, A. M. James, S. Lehtola, J. P. Misiewicz, M. Scheurer,
    R. A. Shaw, J. B. Schriber, Y. Xie, Z. L. Glick, D. A. Sirianni,
    J. S. O'Brien, J. M. Waldrop, A. Kumar, E. G. Hohenstein,
    B. P. Pritchard, B. R. Brooks, H. F. Schaefer III, A. Yu. Sokolov,
    K. Patkowski, A. E. DePrince III, U. Bozkaya, R. A. King,
    F. A. Evangelista, J. M. Turney, T. D. Crawford, C. D. Sherrill,
    J. Chem. Phys. 152(18) 184108 (2020). https://doi.org/10.1063/5.0006002

                            Additional Code Authors
    E. T. Seidl, C. L. Janssen, E. F. Valeev, M. L. Leininger,
    J. F. Gonthier, R. M. Richard, H. R. McAlexander, M. Saitow, X. Wang,
    P. Verma, and M. H. Lechner

             Previous Authors, Complete List of Code Contributors,
                       and Citations for Specific Modules
    https://github.com/psi4/psi4/blob/master/codemeta.json
    https://github.com/psi4/psi4/graphs/contributors
    http://psicode.org/psi4manual/master/introduction.html#citing-psifour

    -----------------------------------------------------------------------


    Psi4 started on: Friday, 05 November 2021 02:15PM

    Process ID: 12793
    Host:       n049
    PSIDATADIR: /opt/psi/4/master/share/psi4
    Memory:     500.0 MiB
    Threads:    4
    
  ==> Input File <==

--------------------------------------------------------------------------
import os
memory 14 GB 
 
molecule {
 C   -0.3233419228    0.0024945994    0.0000000000
 C    0.0619053228   -1.3999092846   -2.4273712272
 C    0.0594876143    2.8010118384    0.0000000000
 C    0.0619053228   -1.3999092846    2.4273712272
 H    2.0847604054   -1.6421612963   -2.8514866220
 H   -0.7648544748   -0.3895290822   -4.0297320631
 H   -0.7647112730   -3.2921971771   -2.3435477499
 H    2.0911422826    3.2830126065   -0.0000000000
 H   -0.7670479058    3.6805251614    1.6726073713
 H   -0.7670479058    3.6805251614   -1.6726073713
 H    2.0847604054   -1.6421612963    2.8514866220
 H   -0.7647112730   -3.2921971771    2.3435477499
 H   -0.7648544748   -0.3895290822    4.0297320631
units bohr
0 2
}

basis {

assign 6-31g_2dfp_

[ 6-31g_2dfp_ ]

spherical

!----------------------------------------------------------------------
! Basis Set Exchange
! Version v0.8.13
! https://www.basissetexchange.org
!----------------------------------------------------------------------
!   Basis set: 6-31G(2df,p)
! Description: 6-31G(2df,p)
!        Role: orbital
!     Version: 0  (Data from the original Basis Set Exchange)
!----------------------------------------------------------------------


****
H     0
S    3   1.00
     18.7311370              0.03349460
      2.8253937              0.23472695
      0.6401217              0.81375733
S    1   1.00
      0.1612778              1.00000000
P    1   1.00
      1.5000000              1.0000000
P    1   1.00
      0.3750000              1.0000000
****
B     0
S    6   1.00
   2068.8823000              0.0018663
    310.6495700              0.0142515
     70.6830330              0.0695516
     19.8610800              0.2325729
      6.2993048              0.4670787
      2.1270270              0.3634314
SP   3   1.00
      4.7279710             -0.1303938              0.0745976
      1.1903377             -0.1307889              0.3078467
      0.3594117              1.1309444              0.7434568
SP   1   1.00
      0.1267512              1.0000000              1.0000000
D    1   1.00
      0.8020000              1.0000000
D    1   1.00
      0.2005000              1.0000000
F    1   1.00
      0.5000000              1.0000000
****
C     0
S    6   1.00
   3047.5249000              0.0018347
    457.3695100              0.0140373
    103.9486900              0.0688426
     29.2101550              0.2321844
      9.2866630              0.4679413
      3.1639270              0.3623120
SP   3   1.00
      7.8682724             -0.1193324              0.0689991
      1.8812885             -0.1608542              0.3164240
      0.5442493              1.1434564              0.7443083
SP   1   1.00
      0.1687144              1.0000000              1.0000000
D    1   1.00
      1.2520000              1.0000000
D    1   1.00
      0.3130000              1.0000000
F    1   1.00
      0.8000000              1.0000000
****
N     0
S    6   1.00
   4173.5110000              0.0018348
    627.4579000              0.0139950
    142.9021000              0.0685870
     40.2343300              0.2322410
     12.8202100              0.4690700
      4.3904370              0.3604550
SP   3   1.00
     11.6263580             -0.1149610              0.0675800
      2.7162800             -0.1691180              0.3239070
      0.7722180              1.1458520              0.7408950
SP   1   1.00
      0.2120313              1.0000000              1.0000000
D    1   1.00
      1.8260000              1.0000000
D    1   1.00
      0.4565000              1.0000000
F    1   1.00
      1.0000000              1.0000000
****
O     0
S    6   1.00
   5484.6717000              0.0018311
    825.2349500              0.0139501
    188.0469600              0.0684451
     52.9645000              0.2327143
     16.8975700              0.4701930
      5.7996353              0.3585209
SP   3   1.00
     15.5396160             -0.1107775              0.0708743
      3.5999336             -0.1480263              0.3397528
      1.0137618              1.1307670              0.7271586
SP   1   1.00
      0.2700058              1.0000000              1.0000000
D    1   1.00
      2.5840000              1.0000000
D    1   1.00
      0.6460000              1.0000000
F    1   1.00
      1.4000000              1.0000000
****
F     0
S    6   1.00
   7001.7130900              0.0018196169
   1051.3660900              0.0139160796
    239.2856900              0.0684053245
     67.3974453              0.233185760
     21.5199573              0.471267439
      7.40310130             0.356618546
SP   3   1.00
     20.8479528             -0.108506975            0.0716287243
      4.80830834            -0.146451658            0.3459121030
      1.34406986             1.128688580            0.7224699570
SP   1   1.00
      0.358151393            1.0000000              1.0000000
D    1   1.00
      3.5000000              1.0000000
D    1   1.00
      0.8750000              1.0000000
F    1   1.00
      1.8500000              1.0000000
****
Al     0
S    6   1.00
  13983.1000000              0.00194267
   2098.7500000              0.0148599
    477.7050000              0.0728494
    134.3600000              0.2468300
     42.8709000              0.4872580
     14.5189000              0.3234960
SP   6   1.00
    239.6680000             -0.00292619             0.00460285
     57.4419000             -0.0374080              0.0331990
     18.2859000             -0.1144870              0.1362820
      6.5991400              0.1156350              0.3304760
      2.4904900              0.6125950              0.4491460
      0.9445400              0.3937990              0.2657040
SP   3   1.00
      1.2779000             -0.2276060             -0.0175130
      0.3975900              0.00144583             0.2445330
      0.1600950              1.0927900              0.8049340
SP   1   1.00
      0.0556577              1.0000000              1.0000000
D    1   1.00
      0.6500000              1.0000000
D    1   1.00
      0.1625000              1.0000000
F    1   1.00
      0.2500000              1.0000000
****
Si     0
S    6   1.00
  16115.9000000              0.00195948
   2425.5800000              0.01492880
    553.8670000              0.07284780
    156.3400000              0.24613000
     50.0683000              0.48591400
     17.0178000              0.32500200
SP   6   1.00
    292.7180000             -0.00278094             0.00443826
     69.8731000             -0.03571460             0.03266790
     22.3363000             -0.11498500             0.13472100
      8.1503900              0.09356340             0.32867800
      3.1345800              0.60301700             0.44964000
      1.2254300              0.41895900             0.26137200
SP   3   1.00
      1.7273800             -0.24463000            -0.01779510
      0.5729220              0.00431572             0.25353900
      0.2221920              1.09818000             0.80066900
SP   1   1.00
      0.0778369              1.00000000             1.00000000
D    1   1.00
      0.9000000              1.0000000
D    1   1.00
      0.2250000              1.0000000
F    1   1.00
      0.3200000              1.0000000
****
P     0
S    6   1.00
  19413.3000000              0.0018516
   2909.4200000              0.0142062
    661.3640000              0.0699995
    185.7590000              0.2400790
     59.1943000              0.4847620
     20.0310000              0.3352000
SP   6   1.00
    339.4780000             -0.00278217             0.00456462
     81.0101000             -0.0360499              0.03369360
     25.8780000             -0.1166310              0.13975500
      9.4522100              0.0968328              0.33936200
      3.6656600              0.6144180              0.45092100
      1.4674600              0.4037980              0.23858600
SP   3   1.00
      2.1562300             -0.2529230             -0.01776530
      0.7489970              0.0328517              0.27405800
      0.2831450              1.0812500              0.78542100
SP   1   1.00
      0.0998317              1.0000000              1.00000000
D    1   1.00
      1.1000000              1.0000000
D    1   1.00
      0.2750000              1.0000000
F    1   1.00
      0.4500000              1.0000000
****
S     0
S    6   1.00
  21917.1000000              0.0018690
   3301.4900000              0.0142300
    754.1460000              0.0696960
    212.7110000              0.2384870
     67.9896000              0.4833070
     23.0515000              0.3380740
SP   6   1.00
    423.7350000             -0.0023767              0.0040610
    100.7100000             -0.0316930              0.0306810
     32.1599000             -0.1133170              0.1304520
     11.8079000              0.0560900              0.3272050
      4.6311000              0.5922550              0.4528510
      1.8702500              0.4550060              0.2560420
SP   3   1.00
      2.6158400             -0.2503740             -0.0145110
      0.9221670              0.0669570              0.3102630
      0.3412870              1.0545100              0.7544830
SP   1   1.00
      0.1171670              1.0000000              1.0000000
D    1   1.00
      1.3000000              1.0000000
D    1   1.00
      0.3250000              1.0000000
F    1   1.00
      0.5500000              1.0000000
****
Cl     0
S    6   1.00
  25180.1000000              0.0018330
   3780.3500000              0.0140340
    860.4740000              0.0690970
    242.1450000              0.2374520
     77.3349000              0.4830340
     26.2470000              0.3398560
SP   6   1.00
    491.7650000             -0.0022974              0.0039894
    116.9840000             -0.0307140              0.0303180
     37.4153000             -0.1125280              0.1298800
     13.7834000              0.0450160              0.3279510
      5.4521500              0.5893530              0.4535270
      2.2258800              0.4652060              0.2521540
SP   3   1.00
      3.1864900             -0.2518300             -0.0142990
      1.1442700              0.0615890              0.3235720
      0.4203770              1.0601800              0.7435070
SP   1   1.00
      0.1426570              1.0000000              1.0000000
D    1   1.00
      1.5000000              1.0000000
D    1   1.00
      0.3750000              1.0000000
F    1   1.00
      0.7000000              1.0000000
****
}


set {
reference uhf                          
freeze_core true
e_convergence 10                       
d_convergence 10                      
dft_spherical_points 1202
dft_radial_points 99
}

e = energy('b3lyp')

print_out('Grab this energy {0}'.format(e))
--------------------------------------------------------------------------

  Memory set to  13.039 GiB by Python driver.

Scratch directory: /tmp/

*** tstart() called on n049
*** at Fri Nov  5 14:15:47 2021

   => Loading Basis Set <=

    Name: ANONYMOUS23839223
    Role: ORBITAL
    Keyword: BASIS
    atoms 1-4  entry C          line    48 inputblock 6-31g_2dfp_ 
    atoms 5-13 entry H          line    15 inputblock 6-31g_2dfp_ 


         ---------------------------------------------------------
                                   SCF
               by Justin Turney, Rob Parrish, Andy Simmonett
                          and Daniel G. A. Smith
                              UKS Reference
                        4 Threads,  13351 MiB Core
         ---------------------------------------------------------

  ==> Geometry <==

    Molecular point group: cs
    Full point group: Cs

    Geometry (in Bohr), charge = 0, multiplicity = 2:

       Center              X                  Y                   Z               Mass       
    ------------   -----------------  -----------------  -----------------  -----------------
         C           -0.323341214380     0.001784718702     0.000000000000    12.000000000000
         C            0.061906031220    -1.400619165298    -2.427371227200    12.000000000000
         C            0.059488322720     2.800301957702     0.000000000000    12.000000000000
         C            0.061906031220    -1.400619165298     2.427371227200    12.000000000000
         H            2.084761113820    -1.642871176998    -2.851486622000     1.007825032230
         H           -0.764853766380    -0.390238962898    -4.029732063100     1.007825032230
         H           -0.764710564580    -3.292907057798    -2.343547749900     1.007825032230
         H            2.091142991020     3.282302725802     0.000000000000     1.007825032230
         H           -0.767047197380     3.679815280702     1.672607371300     1.007825032230
         H           -0.767047197380     3.679815280702    -1.672607371300     1.007825032230
         H            2.084761113820    -1.642871176998     2.851486622000     1.007825032230
         H           -0.764710564580    -3.292907057798     2.343547749900     1.007825032230
         H           -0.764853766380    -0.390238962898     4.029732063100     1.007825032230

  Running in cs symmetry.

  Rotational constants: A =      0.26751  B =      0.26715  C =      0.14535 [cm^-1]
  Rotational constants: A =   8019.73198  B =   8008.90768  C =   4357.39863 [MHz]
  Nuclear repulsion =  125.394666360563093

  Charge       = 0
  Multiplicity = 2
  Electrons    = 33
  Nalpha       = 17
  Nbeta        = 16

  ==> Algorithm <==

  SCF Algorithm Type is DF.
  DIIS enabled.
  MOM disabled.
  Fractional occupation disabled.
  Guess Type is SAD.
  Energy threshold   = 1.00e-10
  Density threshold  = 1.00e-10
  Integral threshold = 0.00e+00

  ==> Primary Basis <==

  Basis Set: ANONYMOUS23839223
    Blend: 6-31G_2DFP_
    Number of shells: 68
    Number of basis function: 176
    Number of Cartesian functions: 196
    Spherical Harmonics?: true
    Max angular momentum: 3

  ==> DFT Potential <==

   => Composite Functional: B3LYP <= 

    B3LYP Hyb-GGA Exchange-Correlation Functional

    P. J. Stephens, F. J. Devlin, C. F. Chabalowski, and M. J. Frisch, J. Phys. Chem. 98, 11623 (1994)

    Deriv               =              1
    GGA                 =           TRUE
    Meta                =          FALSE

    Exchange Hybrid     =           TRUE
    MP2 Hybrid          =          FALSE

   => Exchange Functionals <=

    0.0800   Slater exchange
    0.7200         Becke 88

   => Exact (HF) Exchange <=

    0.2000               HF 

   => Correlation Functionals <=

    0.1900   Vosko, Wilk & Nusair (VWN5_RPA)
    0.8100   Lee, Yang & Parr

   => Molecular Quadrature <=

    Radial Scheme          =       TREUTLER
    Pruning Scheme         =           NONE
    Nuclear Scheme         =       TREUTLER

    BS radius alpha        =              1
    Pruning alpha          =              1
    Radial Points          =             99
    Spherical Points       =           1202
    Total Points           =        1442253
    Total Blocks           =           9535
    Max Points             =            256
    Max Functions          =            176
    Weights Tolerance      =       1.00E-15

   => Loading Basis Set <=

    Name: (ANONYMOUS23839223 AUX)
    Role: JKFIT
    Keyword: DF_BASIS_SCF
    atoms 1-4  entry C          line   198 file /opt/psi/4/master/share/psi4/basis/def2-universal-jkfit.gbs 
    atoms 5-13 entry H          line    18 file /opt/psi/4/master/share/psi4/basis/def2-universal-jkfit.gbs 

  ==> Integral Setup <==

  DFHelper Memory: AOs need 0.114 GiB; user supplied 3.914 GiB. Using in-core AOs.

  ==> MemDFJK: Density-Fitted J/K Matrices <==

    J tasked:                   Yes
    K tasked:                   Yes
    wK tasked:                   No
    OpenMP threads:               4
    Memory [MiB]:              4008
    Algorithm:                 Core
    Schwarz Cutoff:           1E-12
    Mask sparsity (%):       1.2913
    Fitting Condition:        1E-10

   => Auxiliary Basis Set <=

  Basis Set: (ANONYMOUS23839223 AUX)
    Blend: DEF2-UNIVERSAL-JKFIT
    Number of shells: 154
    Number of basis function: 462
    Number of Cartesian functions: 536
    Spherical Harmonics?: true
    Max angular momentum: 4

  Cached 100.0% of DFT collocation blocks in 5.865 [GiB].

  Minimum eigenvalue in the overlap matrix is 1.2233065379E-03.
  Reciprocal condition number of the overlap matrix is 2.1985361028E-04.
    Using symmetric orthogonalization.

  ==> Pre-Iterations <==

  SCF Guess: Superposition of Atomic Densities via on-the-fly atomic UHF (no occupation information).

   -------------------------
    Irrep   Nso     Nmo    
   -------------------------
     A'        98      98 
     A"        78      78 
   -------------------------
    Total     176     176
   -------------------------

  ==> Iterations <==

                           Total Energy        Delta E     RMS |[F,P]|

   @DF-UKS iter SAD:  -157.07649007393169   -1.57076e+02   0.00000e+00 
   @DF-UKS iter   1:  -157.41663608713461   -3.40146e-01   6.77541e-03 DIIS
   @DF-UKS iter   2:  -157.26087690630379    1.55759e-01   7.78402e-03 DIIS
   @DF-UKS iter   3:  -157.80975780683022   -5.48881e-01   6.18860e-04 DIIS
   @DF-UKS iter   4:  -157.81215054150636   -2.39273e-03   3.39134e-04 DIIS
   @DF-UKS iter   5:  -157.81304638529951   -8.95844e-04   3.15781e-05 DIIS
   @DF-UKS iter   6:  -157.81305661733765   -1.02320e-05   1.15505e-05 DIIS
   @DF-UKS iter   7:  -157.81305823316811   -1.61583e-06   3.93305e-06 DIIS
   @DF-UKS iter   8:  -157.81305845282381   -2.19656e-07   1.06754e-06 DIIS
   @DF-UKS iter   9:  -157.81305847296468   -2.01409e-08   2.32735e-07 DIIS
   @DF-UKS iter  10:  -157.81305847355961   -5.94923e-10   1.92522e-07 DIIS
   @DF-UKS iter  11:  -157.81305847388296   -3.23354e-10   2.27196e-08 DIIS
   @DF-UKS iter  12:  -157.81305847389206   -9.09495e-12   3.58715e-09 DIIS
   @DF-UKS iter  13:  -157.81305847389237   -3.12639e-13   6.74489e-10 DIIS
   @DF-UKS iter  14:  -157.81305847389240   -2.84217e-14   1.41259e-10 DIIS
   @DF-UKS iter  15:  -157.81305847389237    2.84217e-14   4.84795e-11 DIIS
  Energy and wave function converged.


  ==> Post-Iterations <==

   @Spin Contamination Metric:   4.061575105E-03
   @S^2 Expected:                7.500000000E-01
   @S^2 Observed:                7.540615751E-01
   @S   Expected:                5.000000000E-01
   @S   Observed:                5.000000000E-01

    Orbital Energies [Eh]
    ---------------------

    Alpha Occupied:                                                       

       1Ap   -10.180342     1App  -10.167108     2Ap   -10.167080  
       3Ap   -10.166857     4Ap    -0.797767     5Ap    -0.686309  
       2App   -0.686066     6Ap    -0.530778     7Ap    -0.441139  
       8Ap    -0.434705     3App   -0.434624     9Ap    -0.382610  
       4App   -0.382587     5App   -0.363611    10Ap    -0.338096  
       6App   -0.337898    11Ap    -0.168960  

    Alpha Virtual:                                                        

      12Ap     0.076071    13Ap     0.134015     7App    0.134290  
      14Ap     0.142502     8App    0.142752    15Ap     0.154882  
      16Ap     0.178653     9App    0.178903    17Ap     0.203549  
      10App    0.214803    11App    0.275641    18Ap     0.276331  
      12App    0.399161    19Ap     0.399291    20Ap     0.403349  
      21Ap     0.423958    13App    0.424237    22Ap     0.456592  
      14App    0.495304    23Ap     0.495471    15App    0.512160  
      24Ap     0.513984    16App    0.578705    25Ap     0.578926  
      17App    0.591491    26Ap     0.591783    27Ap     0.602567  
      28Ap     0.624761    18App    0.631744    29Ap     0.636185  
      19App    0.636344    30Ap     0.663018    20App    0.663820  
      21App    0.683651    31Ap     0.684058    32Ap     0.734995  
      33Ap     0.825206    22App    0.825592    23App    0.853924  
      34Ap     0.914935    24App    0.915100    25App    0.944125  
      35Ap     0.944602    36Ap     0.960502    26App    0.962107  
      37Ap     1.003459    38Ap     1.127838    27App    1.128382  
      39Ap     1.142212    40Ap     1.163033    28App    1.163504  
      41Ap     1.223336    42Ap     1.274473    29App    1.274485  
      43Ap     1.279369    44Ap     1.324317    30App    1.324402  
      45Ap     1.355968    31App    1.365909    46Ap     1.366197  
      32App    1.392455    47Ap     1.403916    33App    1.404189  
      34App    1.416193    48Ap     1.418046    35App    1.427913  
      36App    1.491486    49Ap     1.499078    50Ap     1.542107  
      37App    1.543573    38App    1.574294    51Ap     1.574593  
      52Ap     1.669825    39App    1.739203    53Ap     1.739573  
      54Ap     1.768371    40App    1.830103    55Ap     1.832695  
      41App    1.971698    56Ap     2.018251    57Ap     2.018597  
      42App    2.019550    58Ap     2.052530    43App    2.052800  
      59Ap     2.737797    44App    2.739175    60Ap     2.790926  
      45App    2.811410    46App    2.889701    61Ap     2.890068  
      62Ap     2.895100    47App    2.929490    63Ap     2.929504  
      48App    2.958998    64Ap     2.963886    49App    2.964864  
      65Ap     3.034022    66Ap     3.071134    50App    3.071422  
      51App    3.084349    52App    3.168376    67Ap     3.169202  
      68Ap     3.180605    53App    3.284946    69Ap     3.285682  
      54App    3.326632    70Ap     3.327695    71Ap     3.375608  
      55App    3.489796    72Ap     3.490480    56App    3.514041  
      73Ap     3.525307    57App    3.567788    74Ap     3.568831  
      58App    3.575309    75Ap     3.665500    59App    3.667294  
      76Ap     3.679632    60App    3.693542    77Ap     3.694709  
      78Ap     3.775569    61App    3.778041    79Ap     3.789145  
      62App    3.911865    80Ap     3.912610    81Ap     4.034420  
      63App    4.110534    82Ap     4.112168    64App    4.146645  
      83Ap     4.149467    84Ap     4.173320    85Ap     4.202219  
      65App    4.202229    86Ap     4.204353    66App    4.210880  
      87Ap     4.315963    67App    4.316022    68App    4.359036  
      69App    4.424399    88Ap     4.424529    70App    4.443428  
      89Ap     4.516581    71App    4.517123    72App    4.577810  
      90Ap     4.578646    91Ap     4.617589    92Ap     4.709446  
      93Ap     4.773110    73App    4.776051    74App    4.836978  
      94Ap     4.962866    95Ap     5.002564    75App    5.003330  
      96Ap     5.228017    97Ap     5.244272    76App    5.249300  
      98Ap     5.355044    77App    5.356006    78App    5.479402  

    Beta Occupied:                                                        

       1App  -10.167860     1Ap   -10.167843     2Ap   -10.167621  
       3Ap   -10.166519     4Ap    -0.781092     5Ap    -0.684109  
       2App   -0.683871     6Ap    -0.511750     7Ap    -0.431099  
       3App   -0.430998     8Ap    -0.421810     4App   -0.376699  
       9Ap    -0.376669     5App   -0.362595    10Ap    -0.333207  
       6App   -0.333033  

    Beta Virtual:                                                         

      11Ap    -0.025743    12Ap     0.077080    13Ap     0.134909  
       7App    0.135178    14Ap     0.144398     8App    0.144598  
      15Ap     0.163338    16Ap     0.182324     9App    0.182575  
      10App    0.215032    17Ap     0.218931    11App    0.281995  
      18Ap     0.282672    12App    0.400332    19Ap     0.400463  
      20Ap     0.419791    21Ap     0.426769    13App    0.427049  
      22Ap     0.468499    14App    0.497554    23Ap     0.497745  
      15App    0.513895    24Ap     0.556326    16App    0.584238  
      25Ap     0.584494    17App    0.597708    26Ap     0.597926  
      27Ap     0.609989    28Ap     0.628137    18App    0.631912  
      29Ap     0.639490    19App    0.639598    30Ap     0.666614  
      20App    0.667355    21App    0.686283    31Ap     0.686696  
      32Ap     0.757518    33Ap     0.830355    22App    0.830780  
      23App    0.855278    34Ap     0.922885    24App    0.923092  
      25App    0.945962    35Ap     0.953524    36Ap     0.965840  
      26App    0.967387    37Ap     1.008701    38Ap     1.131850  
      27App    1.132424    39Ap     1.155586    40Ap     1.168160  
      28App    1.168531    41Ap     1.232307    42Ap     1.280054  
      29App    1.280096    43Ap     1.285127    44Ap     1.329325  
      30App    1.329373    45Ap     1.365379    31App    1.371134  
      46Ap     1.371461    32App    1.393513    47Ap     1.407367  
      33App    1.407666    34App    1.421233    48Ap     1.423112  
      35App    1.428183    36App    1.492534    49Ap     1.509520  
      50Ap     1.546525    37App    1.547967    38App    1.582178  
      51Ap     1.582456    52Ap     1.674671    39App    1.744956  
      53Ap     1.745356    54Ap     1.779139    40App    1.833953  
      55Ap     1.836558    41App    1.972560    56Ap     2.024916  
      42App    2.026000    57Ap     2.039646    58Ap     2.059329  
      43App    2.059443    59Ap     2.746159    44App    2.747486  
      45App    2.811824    60Ap     2.816060    46App    2.902394  
      61Ap     2.902868    62Ap     2.924685    63Ap     2.931943  
      47App    2.932015    48App    2.960060    64Ap     2.968438  
      49App    2.969404    65Ap     3.041955    66Ap     3.080958  
      50App    3.081403    51App    3.086182    52App    3.183985  
      67Ap     3.185090    68Ap     3.188290    53App    3.289710  
      69Ap     3.290516    54App    3.330430    70Ap     3.331506  
      71Ap     3.383427    55App    3.492576    72Ap     3.493153  
      56App    3.512411    73Ap     3.528360    57App    3.574831  
      58App    3.581378    74Ap     3.582249    75Ap     3.670428  
      59App    3.671864    76Ap     3.692924    60App    3.725480  
      77Ap     3.726034    78Ap     3.780079    61App    3.782586  
      79Ap     3.817689    62App    3.921677    80Ap     3.922430  
      81Ap     4.045305    63App    4.117441    82Ap     4.118893  
      64App    4.153878    83Ap     4.156680    84Ap     4.187349  
      65App    4.208102    85Ap     4.209390    86Ap     4.211167  
      66App    4.215348    87Ap     4.323422    67App    4.323437  
      68App    4.362400    69App    4.432565    88Ap     4.432794  
      70App    4.446311    89Ap     4.524357    71App    4.524925  
      72App    4.588401    90Ap     4.589246    91Ap     4.624793  
      92Ap     4.719789    93Ap     4.780107    73App    4.782960  
      74App    4.839898    94Ap     4.967660    95Ap     5.006633  
      75App    5.007342    96Ap     5.233732    97Ap     5.246059  
      76App    5.251081    98Ap     5.361535    77App    5.362475  
      78App    5.481723  

    Final Occupation by Irrep:
             Ap   App 
    DOCC [    10,    6 ]
    SOCC [     1,    0 ]

  @DF-UKS Final Energy:  -157.81305847389237

   => Energetics <=

    Nuclear Repulsion Energy =            125.3946663605630931
    One-Electron Energy =                -458.7489654517171402
    Two-Electron Energy =                 195.8483863203925921
    DFT Exchange-Correlation Energy =     -20.3071457031308746
    Empirical Dispersion Energy =           0.0000000000000000
    VV10 Nonlocal Energy =                  0.0000000000000000
    Total Energy =                       -157.8130584738923687

  UHF NO Occupations:
  HONO-2 :    9 Ap 1.9996008
  HONO-1 :   10 Ap 1.9989804
  HONO-0 :   11 Ap 1.0000000
  LUNO+0 :   12 Ap 0.0010196
  LUNO+1 :   13 Ap 0.0003992
  LUNO+2 :    7App 0.0001979
  LUNO+3 :   14 Ap 0.0001972


Computation Completed


Properties will be evaluated at   0.000000,   0.000000,   0.000000 [a0]

Properties computed using the SCF density matrix

  Nuclear Dipole Moment: [e a0]
     X:     0.8272      Y:    -0.0050      Z:     0.0000

  Electronic Dipole Moment: [e a0]
     X:    -0.7493      Y:     0.0057      Z:     0.0000

  Dipole Moment: [e a0]
     X:     0.0779      Y:     0.0007      Z:     0.0000     Total:     0.0779

  Dipole Moment: [D]
     X:     0.1980      Y:     0.0017      Z:     0.0000     Total:     0.1980


*** tstop() called on n049 at Fri Nov  5 14:18:08 2021
Module time:
	user time   =     547.38 seconds =       9.12 minutes
	system time =      12.07 seconds =       0.20 minutes
	total time  =        141 seconds =       2.35 minutes
Total time:
	user time   =     547.38 seconds =       9.12 minutes
	system time =      12.07 seconds =       0.20 minutes
	total time  =        141 seconds =       2.35 minutes
Grab this energy -157.81305847389237
    Psi4 stopped on: Friday, 05 November 2021 02:18PM
    Psi4 wall time for execution: 0:02:20.81

*** Psi4 exiting successfully. Buy a developer a beer!
