
    -----------------------------------------------------------------------
          Psi4: An Open-Source Ab Initio Electronic Structure Package
                               Psi4 1.4a2.dev629 

                         Git: Rev {master} 2938fc2 dirty


    D. G. A. Smith, L. A. Burns, A. C. Simmonett, R. M. Parrish,
    M. C. Schieber, R. Galvelis, P. Kraus, H. Kruse, R. Di Remigio,
    A. Alenaizan, A. M. James, S. Lehtola, J. P. Misiewicz, M. Scheurer,
    R. A. Shaw, J. B. Schriber, Y. Xie, Z. L. Glick, D. A. Sirianni,
    J. S. O'Brien, J. M. Waldrop, A. Kumar, E. G. Hohenstein,
    B. P. Pritchard, B. R. Brooks, H. F. Schaefer III, A. Yu. Sokolov,
    K. Patkowski, A. E. DePrince III, U. Bozkaya, R. A. King,
    F. A. Evangelista, J. M. Turney, T. D. Crawford, C. D. Sherrill,
    J. Chem. Phys. 152(18) 184108 (2020). https://doi.org/10.1063/5.0006002

                            Additional Code Authors
    E. T. Seidl, C. L. Janssen, E. F. Valeev, M. L. Leininger,
    J. F. Gonthier, R. M. Richard, H. R. McAlexander, M. Saitow, X. Wang,
    P. Verma, and M. H. Lechner

             Previous Authors, Complete List of Code Contributors,
                       and Citations for Specific Modules
    https://github.com/psi4/psi4/blob/master/codemeta.json
    https://github.com/psi4/psi4/graphs/contributors
    http://psicode.org/psi4manual/master/introduction.html#citing-psifour

    -----------------------------------------------------------------------


    Psi4 started on: Friday, 05 November 2021 01:42PM

    Process ID: 27386
    Host:       n059
    PSIDATADIR: /opt/psi/4/master/share/psi4
    Memory:     500.0 MiB
    Threads:    4
    
  ==> Input File <==

--------------------------------------------------------------------------
import os
memory 14 GB 
 
molecule {
 C   -0.3233374587   -0.0053445552   -0.0004331463
 C    0.0613345084   -1.4010745331   -2.4261895784
 C    0.0611697695    2.8017045704   -0.0013899502
 C    0.0607980670   -1.4023707745    2.4256551563
 H    2.0862656079   -1.6416883207   -2.8484910489
 H   -0.7627493045   -0.3877237689   -4.0254707474
 H   -0.7675675160   -3.2929237155   -2.3474851057
 H    2.0865615862    3.2887072847   -0.0034949196
 H   -0.7689090758    3.6819875772    1.6784982957
 H   -0.7624962346    3.6801772864   -1.6737204468
 H    2.0878455042   -1.6447082772    2.8467294928
 H   -0.7649637476   -3.2891577265    2.3489122375
 H   -0.7665595827   -0.3876093606    4.0268797610
units bohr
0 2
}

basis {

assign 6-31g_2dfp_

[ 6-31g_2dfp_ ]

spherical

!----------------------------------------------------------------------
! Basis Set Exchange
! Version v0.8.13
! https://www.basissetexchange.org
!----------------------------------------------------------------------
!   Basis set: 6-31G(2df,p)
! Description: 6-31G(2df,p)
!        Role: orbital
!     Version: 0  (Data from the original Basis Set Exchange)
!----------------------------------------------------------------------


****
H     0
S    3   1.00
     18.7311370              0.03349460
      2.8253937              0.23472695
      0.6401217              0.81375733
S    1   1.00
      0.1612778              1.00000000
P    1   1.00
      1.5000000              1.0000000
P    1   1.00
      0.3750000              1.0000000
****
B     0
S    6   1.00
   2068.8823000              0.0018663
    310.6495700              0.0142515
     70.6830330              0.0695516
     19.8610800              0.2325729
      6.2993048              0.4670787
      2.1270270              0.3634314
SP   3   1.00
      4.7279710             -0.1303938              0.0745976
      1.1903377             -0.1307889              0.3078467
      0.3594117              1.1309444              0.7434568
SP   1   1.00
      0.1267512              1.0000000              1.0000000
D    1   1.00
      0.8020000              1.0000000
D    1   1.00
      0.2005000              1.0000000
F    1   1.00
      0.5000000              1.0000000
****
C     0
S    6   1.00
   3047.5249000              0.0018347
    457.3695100              0.0140373
    103.9486900              0.0688426
     29.2101550              0.2321844
      9.2866630              0.4679413
      3.1639270              0.3623120
SP   3   1.00
      7.8682724             -0.1193324              0.0689991
      1.8812885             -0.1608542              0.3164240
      0.5442493              1.1434564              0.7443083
SP   1   1.00
      0.1687144              1.0000000              1.0000000
D    1   1.00
      1.2520000              1.0000000
D    1   1.00
      0.3130000              1.0000000
F    1   1.00
      0.8000000              1.0000000
****
N     0
S    6   1.00
   4173.5110000              0.0018348
    627.4579000              0.0139950
    142.9021000              0.0685870
     40.2343300              0.2322410
     12.8202100              0.4690700
      4.3904370              0.3604550
SP   3   1.00
     11.6263580             -0.1149610              0.0675800
      2.7162800             -0.1691180              0.3239070
      0.7722180              1.1458520              0.7408950
SP   1   1.00
      0.2120313              1.0000000              1.0000000
D    1   1.00
      1.8260000              1.0000000
D    1   1.00
      0.4565000              1.0000000
F    1   1.00
      1.0000000              1.0000000
****
O     0
S    6   1.00
   5484.6717000              0.0018311
    825.2349500              0.0139501
    188.0469600              0.0684451
     52.9645000              0.2327143
     16.8975700              0.4701930
      5.7996353              0.3585209
SP   3   1.00
     15.5396160             -0.1107775              0.0708743
      3.5999336             -0.1480263              0.3397528
      1.0137618              1.1307670              0.7271586
SP   1   1.00
      0.2700058              1.0000000              1.0000000
D    1   1.00
      2.5840000              1.0000000
D    1   1.00
      0.6460000              1.0000000
F    1   1.00
      1.4000000              1.0000000
****
F     0
S    6   1.00
   7001.7130900              0.0018196169
   1051.3660900              0.0139160796
    239.2856900              0.0684053245
     67.3974453              0.233185760
     21.5199573              0.471267439
      7.40310130             0.356618546
SP   3   1.00
     20.8479528             -0.108506975            0.0716287243
      4.80830834            -0.146451658            0.3459121030
      1.34406986             1.128688580            0.7224699570
SP   1   1.00
      0.358151393            1.0000000              1.0000000
D    1   1.00
      3.5000000              1.0000000
D    1   1.00
      0.8750000              1.0000000
F    1   1.00
      1.8500000              1.0000000
****
Al     0
S    6   1.00
  13983.1000000              0.00194267
   2098.7500000              0.0148599
    477.7050000              0.0728494
    134.3600000              0.2468300
     42.8709000              0.4872580
     14.5189000              0.3234960
SP   6   1.00
    239.6680000             -0.00292619             0.00460285
     57.4419000             -0.0374080              0.0331990
     18.2859000             -0.1144870              0.1362820
      6.5991400              0.1156350              0.3304760
      2.4904900              0.6125950              0.4491460
      0.9445400              0.3937990              0.2657040
SP   3   1.00
      1.2779000             -0.2276060             -0.0175130
      0.3975900              0.00144583             0.2445330
      0.1600950              1.0927900              0.8049340
SP   1   1.00
      0.0556577              1.0000000              1.0000000
D    1   1.00
      0.6500000              1.0000000
D    1   1.00
      0.1625000              1.0000000
F    1   1.00
      0.2500000              1.0000000
****
Si     0
S    6   1.00
  16115.9000000              0.00195948
   2425.5800000              0.01492880
    553.8670000              0.07284780
    156.3400000              0.24613000
     50.0683000              0.48591400
     17.0178000              0.32500200
SP   6   1.00
    292.7180000             -0.00278094             0.00443826
     69.8731000             -0.03571460             0.03266790
     22.3363000             -0.11498500             0.13472100
      8.1503900              0.09356340             0.32867800
      3.1345800              0.60301700             0.44964000
      1.2254300              0.41895900             0.26137200
SP   3   1.00
      1.7273800             -0.24463000            -0.01779510
      0.5729220              0.00431572             0.25353900
      0.2221920              1.09818000             0.80066900
SP   1   1.00
      0.0778369              1.00000000             1.00000000
D    1   1.00
      0.9000000              1.0000000
D    1   1.00
      0.2250000              1.0000000
F    1   1.00
      0.3200000              1.0000000
****
P     0
S    6   1.00
  19413.3000000              0.0018516
   2909.4200000              0.0142062
    661.3640000              0.0699995
    185.7590000              0.2400790
     59.1943000              0.4847620
     20.0310000              0.3352000
SP   6   1.00
    339.4780000             -0.00278217             0.00456462
     81.0101000             -0.0360499              0.03369360
     25.8780000             -0.1166310              0.13975500
      9.4522100              0.0968328              0.33936200
      3.6656600              0.6144180              0.45092100
      1.4674600              0.4037980              0.23858600
SP   3   1.00
      2.1562300             -0.2529230             -0.01776530
      0.7489970              0.0328517              0.27405800
      0.2831450              1.0812500              0.78542100
SP   1   1.00
      0.0998317              1.0000000              1.00000000
D    1   1.00
      1.1000000              1.0000000
D    1   1.00
      0.2750000              1.0000000
F    1   1.00
      0.4500000              1.0000000
****
S     0
S    6   1.00
  21917.1000000              0.0018690
   3301.4900000              0.0142300
    754.1460000              0.0696960
    212.7110000              0.2384870
     67.9896000              0.4833070
     23.0515000              0.3380740
SP   6   1.00
    423.7350000             -0.0023767              0.0040610
    100.7100000             -0.0316930              0.0306810
     32.1599000             -0.1133170              0.1304520
     11.8079000              0.0560900              0.3272050
      4.6311000              0.5922550              0.4528510
      1.8702500              0.4550060              0.2560420
SP   3   1.00
      2.6158400             -0.2503740             -0.0145110
      0.9221670              0.0669570              0.3102630
      0.3412870              1.0545100              0.7544830
SP   1   1.00
      0.1171670              1.0000000              1.0000000
D    1   1.00
      1.3000000              1.0000000
D    1   1.00
      0.3250000              1.0000000
F    1   1.00
      0.5500000              1.0000000
****
Cl     0
S    6   1.00
  25180.1000000              0.0018330
   3780.3500000              0.0140340
    860.4740000              0.0690970
    242.1450000              0.2374520
     77.3349000              0.4830340
     26.2470000              0.3398560
SP   6   1.00
    491.7650000             -0.0022974              0.0039894
    116.9840000             -0.0307140              0.0303180
     37.4153000             -0.1125280              0.1298800
     13.7834000              0.0450160              0.3279510
      5.4521500              0.5893530              0.4535270
      2.2258800              0.4652060              0.2521540
SP   3   1.00
      3.1864900             -0.2518300             -0.0142990
      1.1442700              0.0615890              0.3235720
      0.4203770              1.0601800              0.7435070
SP   1   1.00
      0.1426570              1.0000000              1.0000000
D    1   1.00
      1.5000000              1.0000000
D    1   1.00
      0.3750000              1.0000000
F    1   1.00
      0.7000000              1.0000000
****
}


set {
reference uhf                          
freeze_core true
e_convergence 10                       
d_convergence 10                      
dft_spherical_points 1202
dft_radial_points 99
}

e = energy('b3lyp')

print_out('Grab this energy {0}'.format(e))
--------------------------------------------------------------------------

  Memory set to  13.039 GiB by Python driver.

Scratch directory: /tmp/

*** tstart() called on n059
*** at Fri Nov  5 13:42:02 2021

   => Loading Basis Set <=

    Name: ANONYMOUSA9B9894E
    Role: ORBITAL
    Keyword: BASIS
    atoms 1-4  entry C          line    48 inputblock 6-31g_2dfp_ 
    atoms 5-13 entry H          line    15 inputblock 6-31g_2dfp_ 


         ---------------------------------------------------------
                                   SCF
               by Justin Turney, Rob Parrish, Andy Simmonett
                          and Daniel G. A. Smith
                              UKS Reference
                        4 Threads,  13351 MiB Core
         ---------------------------------------------------------

  ==> Geometry <==

    Molecular point group: c1
    Full point group: C1

    Geometry (in Bohr), charge = 0, multiplicity = 2:

       Center              X                  Y                   Z               Mass       
    ------------   -----------------  -----------------  -----------------  -----------------
         C           -0.323338396898    -0.003979447491     0.000020928763    12.000000000000
         C            0.061333570202    -1.399709425391    -2.425735503337    12.000000000000
         C            0.061168831302     2.803069678109    -0.000935875137    12.000000000000
         C            0.060797128802    -1.401005666791     2.426109231363    12.000000000000
         H            2.086264669702    -1.640323212991    -2.848036973837     1.007825032230
         H           -0.762750242698    -0.386358661191    -4.025016672337     1.007825032230
         H           -0.767568454198    -3.291558607791    -2.347031030637     1.007825032230
         H            2.086560648002     3.290072392409    -0.003040844537     1.007825032230
         H           -0.768910013998     3.683352684909     1.678952370763     1.007825032230
         H           -0.762497172798     3.681542394109    -1.673266371737     1.007825032230
         H            2.087844566002    -1.643343169491     2.847183567863     1.007825032230
         H           -0.764964685798    -3.287792618791     2.349366312563     1.007825032230
         H           -0.766560520898    -0.386244252891     4.027333836063     1.007825032230

  Running in c1 symmetry.

  Rotational constants: A =      0.26743  B =      0.26723  C =      0.14535 [cm^-1]
  Rotational constants: A =   8017.34724  B =   8011.28946  C =   4357.39968 [MHz]
  Nuclear repulsion =  125.394724788201572

  Charge       = 0
  Multiplicity = 2
  Electrons    = 33
  Nalpha       = 17
  Nbeta        = 16

  ==> Algorithm <==

  SCF Algorithm Type is DF.
  DIIS enabled.
  MOM disabled.
  Fractional occupation disabled.
  Guess Type is SAD.
  Energy threshold   = 1.00e-10
  Density threshold  = 1.00e-10
  Integral threshold = 0.00e+00

  ==> Primary Basis <==

  Basis Set: ANONYMOUSA9B9894E
    Blend: 6-31G_2DFP_
    Number of shells: 68
    Number of basis function: 176
    Number of Cartesian functions: 196
    Spherical Harmonics?: true
    Max angular momentum: 3

  ==> DFT Potential <==

   => Composite Functional: B3LYP <= 

    B3LYP Hyb-GGA Exchange-Correlation Functional

    P. J. Stephens, F. J. Devlin, C. F. Chabalowski, and M. J. Frisch, J. Phys. Chem. 98, 11623 (1994)

    Deriv               =              1
    GGA                 =           TRUE
    Meta                =          FALSE

    Exchange Hybrid     =           TRUE
    MP2 Hybrid          =          FALSE

   => Exchange Functionals <=

    0.0800   Slater exchange
    0.7200         Becke 88

   => Exact (HF) Exchange <=

    0.2000               HF 

   => Correlation Functionals <=

    0.1900   Vosko, Wilk & Nusair (VWN5_RPA)
    0.8100   Lee, Yang & Parr

   => Molecular Quadrature <=

    Radial Scheme          =       TREUTLER
    Pruning Scheme         =           NONE
    Nuclear Scheme         =       TREUTLER

    BS radius alpha        =              1
    Pruning alpha          =              1
    Radial Points          =             99
    Spherical Points       =           1202
    Total Points           =        1442277
    Total Blocks           =           9562
    Max Points             =            256
    Max Functions          =            176
    Weights Tolerance      =       1.00E-15

   => Loading Basis Set <=

    Name: (ANONYMOUSA9B9894E AUX)
    Role: JKFIT
    Keyword: DF_BASIS_SCF
    atoms 1-4  entry C          line   198 file /opt/psi/4/master/share/psi4/basis/def2-universal-jkfit.gbs 
    atoms 5-13 entry H          line    18 file /opt/psi/4/master/share/psi4/basis/def2-universal-jkfit.gbs 

  ==> Integral Setup <==

  DFHelper Memory: AOs need 0.114 GiB; user supplied 3.918 GiB. Using in-core AOs.

  ==> MemDFJK: Density-Fitted J/K Matrices <==

    J tasked:                   Yes
    K tasked:                   Yes
    wK tasked:                   No
    OpenMP threads:               4
    Memory [MiB]:              4011
    Algorithm:                 Core
    Schwarz Cutoff:           1E-12
    Mask sparsity (%):       1.3042
    Fitting Condition:        1E-10

   => Auxiliary Basis Set <=

  Basis Set: (ANONYMOUSA9B9894E AUX)
    Blend: DEF2-UNIVERSAL-JKFIT
    Number of shells: 154
    Number of basis function: 462
    Number of Cartesian functions: 536
    Spherical Harmonics?: true
    Max angular momentum: 4

  Cached 100.0% of DFT collocation blocks in 5.861 [GiB].

  Minimum eigenvalue in the overlap matrix is 1.2846521640E-03.
  Reciprocal condition number of the overlap matrix is 2.1818817520E-04.
    Using symmetric orthogonalization.

  ==> Pre-Iterations <==

  SCF Guess: Superposition of Atomic Densities via on-the-fly atomic UHF (no occupation information).

   -------------------------
    Irrep   Nso     Nmo    
   -------------------------
     A        176     176 
   -------------------------
    Total     176     176
   -------------------------

  ==> Iterations <==

                           Total Energy        Delta E     RMS |[F,P]|

   @DF-UKS iter SAD:  -157.07649095086680   -1.57076e+02   0.00000e+00 
   @DF-UKS iter   1:  -157.41662591876522   -3.40135e-01   4.82180e-03 DIIS
   @DF-UKS iter   2:  -157.26086143747713    1.55764e-01   5.53960e-03 DIIS
   @DF-UKS iter   3:  -157.80975171705194   -5.48890e-01   4.40422e-04 DIIS
   @DF-UKS iter   4:  -157.81214450551647   -2.39279e-03   2.41351e-04 DIIS
   @DF-UKS iter   5:  -157.81304037413003   -8.95869e-04   2.24766e-05 DIIS
   @DF-UKS iter   6:  -157.81305060702374   -1.02329e-05   8.22628e-06 DIIS
   @DF-UKS iter   7:  -157.81305222372040   -1.61670e-06   2.80752e-06 DIIS
   @DF-UKS iter   8:  -157.81305244368565   -2.19965e-07   7.78243e-07 DIIS
   @DF-UKS iter   9:  -157.81305246375678   -2.00711e-08   2.46860e-07 DIIS
   @DF-UKS iter  10:  -157.81305246476742   -1.01065e-09   1.57144e-07 DIIS
   @DF-UKS iter  11:  -157.81305246523357   -4.66144e-10   1.40988e-08 DIIS
   @DF-UKS iter  12:  -157.81305246524187   -8.29914e-12   2.56725e-09 DIIS
   @DF-UKS iter  13:  -157.81305246524204   -1.70530e-13   5.61730e-10 DIIS
   @DF-UKS iter  14:  -157.81305246524204    0.00000e+00   1.84429e-10 DIIS
   @DF-UKS iter  15:  -157.81305246524198    5.68434e-14   8.01521e-11 DIIS
  Energy and wave function converged.


  ==> Post-Iterations <==

   @Spin Contamination Metric:   4.061494393E-03
   @S^2 Expected:                7.500000000E-01
   @S^2 Observed:                7.540614944E-01
   @S   Expected:                5.000000000E-01
   @S   Observed:                5.000000000E-01

    Orbital Energies [Eh]
    ---------------------

    Alpha Occupied:                                                       

       1A    -10.180342     2A    -10.167055     3A    -10.167014  
       4A    -10.166975     5A     -0.797770     6A     -0.686386  
       7A     -0.685990     8A     -0.530778     9A     -0.441133  
      10A     -0.434948    11A     -0.434387    12A     -0.382719  
      13A     -0.382482    14A     -0.363609    15A     -0.338543  
      16A     -0.337451    17A     -0.168960  

    Alpha Virtual:                                                        

      18A      0.076070    19A      0.134039    20A      0.134267  
      21A      0.142357    22A      0.142894    23A      0.154883  
      24A      0.178683    25A      0.178873    26A      0.203544  
      27A      0.214804    28A      0.275679    29A      0.276292  
      30A      0.398951    31A      0.399504    32A      0.403345  
      33A      0.423935    34A      0.424259    35A      0.456593  
      36A      0.495320    37A      0.495460    38A      0.512161  
      39A      0.513978    40A      0.578607    41A      0.579021  
      42A      0.591498    43A      0.591783    44A      0.602574  
      45A      0.624707    46A      0.631767    47A      0.635933  
      48A      0.636627    49A      0.663193    50A      0.663633  
      51A      0.683652    52A      0.684069    53A      0.734994  
      54A      0.825133    55A      0.825680    56A      0.853916  
      57A      0.914777    58A      0.915266    59A      0.944125  
      60A      0.944614    61A      0.961106    62A      0.961482  
      63A      1.003456    64A      1.127706    65A      1.128478  
      66A      1.142264    67A      1.162868    68A      1.163667  
      69A      1.223326    70A      1.273963    71A      1.275016  
      72A      1.279352    73A      1.324122    74A      1.324579  
      75A      1.355991    76A      1.365655    77A      1.366456  
      78A      1.392434    79A      1.403979    80A      1.404108  
      81A      1.416334    82A      1.417895    83A      1.427916  
      84A      1.491495    85A      1.499072    86A      1.542821  
      87A      1.542857    88A      1.574242    89A      1.574656  
      90A      1.669829    91A      1.738688    92A      1.740148  
      93A      1.768319    94A      1.830575    95A      1.832194  
      96A      1.971759    97A      2.017413    98A      2.019059  
      99A      2.019917   100A      2.051905   101A      2.053407  
     102A      2.738187   103A      2.738783   104A      2.790926  
     105A      2.811423   106A      2.889366   107A      2.890533  
     108A      2.894936   109A      2.929103   110A      2.929893  
     111A      2.958958   112A      2.964222   113A      2.964576  
     114A      3.034002   115A      3.070495   116A      3.072028  
     117A      3.084432   118A      3.168353   119A      3.169155  
     120A      3.180660   121A      3.284971   122A      3.285645  
     123A      3.326616   124A      3.327700   125A      3.375614  
     126A      3.489568   127A      3.490731   128A      3.514027  
     129A      3.525336   130A      3.567891   131A      3.568886  
     132A      3.575125   133A      3.665819   134A      3.666978  
     135A      3.679648   136A      3.693889   137A      3.694364  
     138A      3.776013   139A      3.777552   140A      3.789177  
     141A      3.911487   142A      3.912963   143A      4.034424  
     144A      4.110706   145A      4.111956   146A      4.147126  
     147A      4.149030   148A      4.173359   149A      4.201733  
     150A      4.202941   151A      4.204049   152A      4.210994  
     153A      4.315108   154A      4.316840   155A      4.358980  
     156A      4.423892   157A      4.425007   158A      4.443460  
     159A      4.515801   160A      4.517880   161A      4.578066  
     162A      4.578174   163A      4.617852   164A      4.709443  
     165A      4.773494   166A      4.775749   167A      4.836898  
     168A      4.962826   169A      5.002524   170A      5.003449  
     171A      5.227584   172A      5.246749   173A      5.247297  
     174A      5.354133   175A      5.356907   176A      5.479412  

    Beta Occupied:                                                        

       1A    -10.167807     2A    -10.167769     3A    -10.167747  
       4A    -10.166519     5A     -0.781095     6A     -0.684178  
       7A     -0.683803     8A     -0.511749     9A     -0.431329  
      10A     -0.430759    11A     -0.421817    12A     -0.376764  
      13A     -0.376609    14A     -0.362593    15A     -0.333674  
      16A     -0.332566  

    Beta Virtual:                                                         

      17A     -0.025743    18A      0.077079    19A      0.134905  
      20A      0.135182    21A      0.144212    22A      0.144782  
      23A      0.163340    24A      0.182353    25A      0.182545  
      26A      0.215034    27A      0.218926    28A      0.282059  
      29A      0.282607    30A      0.400118    31A      0.400677  
      32A      0.419791    33A      0.426746    34A      0.427070  
      35A      0.468500    36A      0.497575    37A      0.497726  
      38A      0.513896    39A      0.556321    40A      0.584138  
      41A      0.584594    42A      0.597653    43A      0.597983  
      44A      0.609998    45A      0.628084    46A      0.631925  
      47A      0.639229    48A      0.639902    49A      0.666773  
      50A      0.667181    51A      0.686308    52A      0.686683  
      53A      0.757517    54A      0.830314    55A      0.830836  
      56A      0.855269    57A      0.922751    58A      0.923234  
      59A      0.945962    60A      0.953540    61A      0.966397  
      62A      0.966806    63A      1.008696    64A      1.131767  
      65A      1.132492    66A      1.155624    67A      1.167947  
      68A      1.168733    69A      1.232298    70A      1.279597  
      71A      1.280577    72A      1.285105    73A      1.329117  
      74A      1.329562    75A      1.365406    76A      1.370977  
      77A      1.371622    78A      1.393495    79A      1.407390  
      80A      1.407624    81A      1.421434    82A      1.422893  
      83A      1.428188    84A      1.492544    85A      1.509515  
      86A      1.547202    87A      1.547295    88A      1.582114  
      89A      1.582524    90A      1.674677    91A      1.744435  
      92A      1.745928    93A      1.779096    94A      1.834421  
      95A      1.836058    96A      1.972619    97A      2.024619  
      98A      2.026240    99A      2.039691   100A      2.058632  
     101A      2.060129   102A      2.746491   103A      2.747151  
     104A      2.811836   105A      2.816061   106A      2.902124  
     107A      2.903149   108A      2.924644   109A      2.931531  
     110A      2.932428   111A      2.960035   112A      2.968766  
     113A      2.969107   114A      3.041937   115A      3.080363  
     116A      3.081862   117A      3.086365   118A      3.184103  
     119A      3.184771   120A      3.188476   121A      3.289800  
     122A      3.290415   123A      3.330394   124A      3.331530  
     125A      3.383433   126A      3.492296   127A      3.493458  
     128A      3.512397   129A      3.528381   130A      3.574976  
     131A      3.581182   132A      3.582288   133A      3.670714  
     134A      3.671569   135A      3.692954   136A      3.725603  
     137A      3.725907   138A      3.780565   139A      3.782079  
     140A      3.817687   141A      3.921256   142A      3.922833  
     143A      4.045312   144A      4.117358   145A      4.118943  
     146A      4.154261   147A      4.156327   148A      4.187393  
     149A      4.207895   150A      4.209848   151A      4.210810  
     152A      4.215484   153A      4.322537   154A      4.324294  
     155A      4.362344   156A      4.432116   157A      4.433203  
     158A      4.446353   159A      4.523577   160A      4.525682  
     161A      4.588679   162A      4.588739   163A      4.625068  
     164A      4.719789   165A      4.780452   166A      4.782699  
     167A      4.839816   168A      4.967617   169A      5.006574  
     170A      5.007480   171A      5.233193   172A      5.248545  
     173A      5.249180   174A      5.360610   175A      5.363386  
     176A      5.481734  

    Final Occupation by Irrep:
              A 
    DOCC [    16 ]
    SOCC [     1 ]

  @DF-UKS Final Energy:  -157.81305246524198

   => Energetics <=

    Nuclear Repulsion Energy =            125.3947247882015716
    One-Electron Energy =                -458.7490628028973561
    Two-Electron Energy =                 195.8484349870181802
    DFT Exchange-Correlation Energy =     -20.3071494375644015
    Empirical Dispersion Energy =           0.0000000000000000
    VV10 Nonlocal Energy =                  0.0000000000000000
    Total Energy =                       -157.8130524652419808

  UHF NO Occupations:
  HONO-2 :   15  A 1.9996009
  HONO-1 :   16  A 1.9989805
  HONO-0 :   17  A 1.0000000
  LUNO+0 :   18  A 0.0010195
  LUNO+1 :   19  A 0.0003991
  LUNO+2 :   20  A 0.0001986
  LUNO+3 :   21  A 0.0001965


Computation Completed


Properties will be evaluated at   0.000000,   0.000000,   0.000000 [a0]

Properties computed using the SCF density matrix

  Nuclear Dipole Moment: [e a0]
     X:     0.8272      Y:     0.0096      Z:     0.0032

  Electronic Dipole Moment: [e a0]
     X:    -0.7493      Y:    -0.0108      Z:    -0.0049

  Dipole Moment: [e a0]
     X:     0.0779      Y:    -0.0012      Z:    -0.0017     Total:     0.0779

  Dipole Moment: [D]
     X:     0.1980      Y:    -0.0031      Z:    -0.0044     Total:     0.1981


*** tstop() called on n059 at Fri Nov  5 13:44:21 2021
Module time:
	user time   =     540.82 seconds =       9.01 minutes
	system time =      12.08 seconds =       0.20 minutes
	total time  =        139 seconds =       2.32 minutes
Total time:
	user time   =     540.82 seconds =       9.01 minutes
	system time =      12.08 seconds =       0.20 minutes
	total time  =        139 seconds =       2.32 minutes
Grab this energy -157.81305246524198
    Psi4 stopped on: Friday, 05 November 2021 01:44PM
    Psi4 wall time for execution: 0:02:19.04

*** Psi4 exiting successfully. Buy a developer a beer!
