
    -----------------------------------------------------------------------
          Psi4: An Open-Source Ab Initio Electronic Structure Package
                               Psi4 1.4a2.dev629 

                         Git: Rev {master} 2938fc2 dirty


    D. G. A. Smith, L. A. Burns, A. C. Simmonett, R. M. Parrish,
    M. C. Schieber, R. Galvelis, P. Kraus, H. Kruse, R. Di Remigio,
    A. Alenaizan, A. M. James, S. Lehtola, J. P. Misiewicz, M. Scheurer,
    R. A. Shaw, J. B. Schriber, Y. Xie, Z. L. Glick, D. A. Sirianni,
    J. S. O'Brien, J. M. Waldrop, A. Kumar, E. G. Hohenstein,
    B. P. Pritchard, B. R. Brooks, H. F. Schaefer III, A. Yu. Sokolov,
    K. Patkowski, A. E. DePrince III, U. Bozkaya, R. A. King,
    F. A. Evangelista, J. M. Turney, T. D. Crawford, C. D. Sherrill,
    J. Chem. Phys. 152(18) 184108 (2020). https://doi.org/10.1063/5.0006002

                            Additional Code Authors
    E. T. Seidl, C. L. Janssen, E. F. Valeev, M. L. Leininger,
    J. F. Gonthier, R. M. Richard, H. R. McAlexander, M. Saitow, X. Wang,
    P. Verma, and M. H. Lechner

             Previous Authors, Complete List of Code Contributors,
                       and Citations for Specific Modules
    https://github.com/psi4/psi4/blob/master/codemeta.json
    https://github.com/psi4/psi4/graphs/contributors
    http://psicode.org/psi4manual/master/introduction.html#citing-psifour

    -----------------------------------------------------------------------


    Psi4 started on: Friday, 05 November 2021 03:25PM

    Process ID: 7089
    Host:       n079
    PSIDATADIR: /opt/psi/4/master/share/psi4
    Memory:     500.0 MiB
    Threads:    4
    
  ==> Input File <==

--------------------------------------------------------------------------
import os
memory 14 GB 
 
molecule {
 C   -0.3215619135   -0.0000018660   -0.0000000190
 C    0.0616974987   -1.4000586151   -2.4265559013
 C    0.0615777027    2.8015015987    0.0007967727
 C    0.0616975731   -1.4014386559    2.4257591151
 H    2.0866010906   -1.6457462937   -2.8534556725
 H   -0.7651457801   -0.3874696278   -4.0273134391
 H   -0.7666424286   -3.2877728034   -2.3425802786
 H    2.0864618503    3.2941366303    0.0015797138
 H   -0.7653870946    3.6814635995    1.6780670602
 H   -0.7667195976    3.6725915175   -1.6760434417
 H    2.0866012764   -1.6484828127    2.8518768071
 H   -0.7653094297   -3.2939611259    2.3492513636
 H   -0.7664786245   -0.3847858592    4.0186179196
units bohr
0 2
}

basis {

assign 6-31g_2dfp_

[ 6-31g_2dfp_ ]

spherical

!----------------------------------------------------------------------
! Basis Set Exchange
! Version v0.8.13
! https://www.basissetexchange.org
!----------------------------------------------------------------------
!   Basis set: 6-31G(2df,p)
! Description: 6-31G(2df,p)
!        Role: orbital
!     Version: 0  (Data from the original Basis Set Exchange)
!----------------------------------------------------------------------


****
H     0
S    3   1.00
     18.7311370              0.03349460
      2.8253937              0.23472695
      0.6401217              0.81375733
S    1   1.00
      0.1612778              1.00000000
P    1   1.00
      1.5000000              1.0000000
P    1   1.00
      0.3750000              1.0000000
****
B     0
S    6   1.00
   2068.8823000              0.0018663
    310.6495700              0.0142515
     70.6830330              0.0695516
     19.8610800              0.2325729
      6.2993048              0.4670787
      2.1270270              0.3634314
SP   3   1.00
      4.7279710             -0.1303938              0.0745976
      1.1903377             -0.1307889              0.3078467
      0.3594117              1.1309444              0.7434568
SP   1   1.00
      0.1267512              1.0000000              1.0000000
D    1   1.00
      0.8020000              1.0000000
D    1   1.00
      0.2005000              1.0000000
F    1   1.00
      0.5000000              1.0000000
****
C     0
S    6   1.00
   3047.5249000              0.0018347
    457.3695100              0.0140373
    103.9486900              0.0688426
     29.2101550              0.2321844
      9.2866630              0.4679413
      3.1639270              0.3623120
SP   3   1.00
      7.8682724             -0.1193324              0.0689991
      1.8812885             -0.1608542              0.3164240
      0.5442493              1.1434564              0.7443083
SP   1   1.00
      0.1687144              1.0000000              1.0000000
D    1   1.00
      1.2520000              1.0000000
D    1   1.00
      0.3130000              1.0000000
F    1   1.00
      0.8000000              1.0000000
****
N     0
S    6   1.00
   4173.5110000              0.0018348
    627.4579000              0.0139950
    142.9021000              0.0685870
     40.2343300              0.2322410
     12.8202100              0.4690700
      4.3904370              0.3604550
SP   3   1.00
     11.6263580             -0.1149610              0.0675800
      2.7162800             -0.1691180              0.3239070
      0.7722180              1.1458520              0.7408950
SP   1   1.00
      0.2120313              1.0000000              1.0000000
D    1   1.00
      1.8260000              1.0000000
D    1   1.00
      0.4565000              1.0000000
F    1   1.00
      1.0000000              1.0000000
****
O     0
S    6   1.00
   5484.6717000              0.0018311
    825.2349500              0.0139501
    188.0469600              0.0684451
     52.9645000              0.2327143
     16.8975700              0.4701930
      5.7996353              0.3585209
SP   3   1.00
     15.5396160             -0.1107775              0.0708743
      3.5999336             -0.1480263              0.3397528
      1.0137618              1.1307670              0.7271586
SP   1   1.00
      0.2700058              1.0000000              1.0000000
D    1   1.00
      2.5840000              1.0000000
D    1   1.00
      0.6460000              1.0000000
F    1   1.00
      1.4000000              1.0000000
****
F     0
S    6   1.00
   7001.7130900              0.0018196169
   1051.3660900              0.0139160796
    239.2856900              0.0684053245
     67.3974453              0.233185760
     21.5199573              0.471267439
      7.40310130             0.356618546
SP   3   1.00
     20.8479528             -0.108506975            0.0716287243
      4.80830834            -0.146451658            0.3459121030
      1.34406986             1.128688580            0.7224699570
SP   1   1.00
      0.358151393            1.0000000              1.0000000
D    1   1.00
      3.5000000              1.0000000
D    1   1.00
      0.8750000              1.0000000
F    1   1.00
      1.8500000              1.0000000
****
Al     0
S    6   1.00
  13983.1000000              0.00194267
   2098.7500000              0.0148599
    477.7050000              0.0728494
    134.3600000              0.2468300
     42.8709000              0.4872580
     14.5189000              0.3234960
SP   6   1.00
    239.6680000             -0.00292619             0.00460285
     57.4419000             -0.0374080              0.0331990
     18.2859000             -0.1144870              0.1362820
      6.5991400              0.1156350              0.3304760
      2.4904900              0.6125950              0.4491460
      0.9445400              0.3937990              0.2657040
SP   3   1.00
      1.2779000             -0.2276060             -0.0175130
      0.3975900              0.00144583             0.2445330
      0.1600950              1.0927900              0.8049340
SP   1   1.00
      0.0556577              1.0000000              1.0000000
D    1   1.00
      0.6500000              1.0000000
D    1   1.00
      0.1625000              1.0000000
F    1   1.00
      0.2500000              1.0000000
****
Si     0
S    6   1.00
  16115.9000000              0.00195948
   2425.5800000              0.01492880
    553.8670000              0.07284780
    156.3400000              0.24613000
     50.0683000              0.48591400
     17.0178000              0.32500200
SP   6   1.00
    292.7180000             -0.00278094             0.00443826
     69.8731000             -0.03571460             0.03266790
     22.3363000             -0.11498500             0.13472100
      8.1503900              0.09356340             0.32867800
      3.1345800              0.60301700             0.44964000
      1.2254300              0.41895900             0.26137200
SP   3   1.00
      1.7273800             -0.24463000            -0.01779510
      0.5729220              0.00431572             0.25353900
      0.2221920              1.09818000             0.80066900
SP   1   1.00
      0.0778369              1.00000000             1.00000000
D    1   1.00
      0.9000000              1.0000000
D    1   1.00
      0.2250000              1.0000000
F    1   1.00
      0.3200000              1.0000000
****
P     0
S    6   1.00
  19413.3000000              0.0018516
   2909.4200000              0.0142062
    661.3640000              0.0699995
    185.7590000              0.2400790
     59.1943000              0.4847620
     20.0310000              0.3352000
SP   6   1.00
    339.4780000             -0.00278217             0.00456462
     81.0101000             -0.0360499              0.03369360
     25.8780000             -0.1166310              0.13975500
      9.4522100              0.0968328              0.33936200
      3.6656600              0.6144180              0.45092100
      1.4674600              0.4037980              0.23858600
SP   3   1.00
      2.1562300             -0.2529230             -0.01776530
      0.7489970              0.0328517              0.27405800
      0.2831450              1.0812500              0.78542100
SP   1   1.00
      0.0998317              1.0000000              1.00000000
D    1   1.00
      1.1000000              1.0000000
D    1   1.00
      0.2750000              1.0000000
F    1   1.00
      0.4500000              1.0000000
****
S     0
S    6   1.00
  21917.1000000              0.0018690
   3301.4900000              0.0142300
    754.1460000              0.0696960
    212.7110000              0.2384870
     67.9896000              0.4833070
     23.0515000              0.3380740
SP   6   1.00
    423.7350000             -0.0023767              0.0040610
    100.7100000             -0.0316930              0.0306810
     32.1599000             -0.1133170              0.1304520
     11.8079000              0.0560900              0.3272050
      4.6311000              0.5922550              0.4528510
      1.8702500              0.4550060              0.2560420
SP   3   1.00
      2.6158400             -0.2503740             -0.0145110
      0.9221670              0.0669570              0.3102630
      0.3412870              1.0545100              0.7544830
SP   1   1.00
      0.1171670              1.0000000              1.0000000
D    1   1.00
      1.3000000              1.0000000
D    1   1.00
      0.3250000              1.0000000
F    1   1.00
      0.5500000              1.0000000
****
Cl     0
S    6   1.00
  25180.1000000              0.0018330
   3780.3500000              0.0140340
    860.4740000              0.0690970
    242.1450000              0.2374520
     77.3349000              0.4830340
     26.2470000              0.3398560
SP   6   1.00
    491.7650000             -0.0022974              0.0039894
    116.9840000             -0.0307140              0.0303180
     37.4153000             -0.1125280              0.1298800
     13.7834000              0.0450160              0.3279510
      5.4521500              0.5893530              0.4535270
      2.2258800              0.4652060              0.2521540
SP   3   1.00
      3.1864900             -0.2518300             -0.0142990
      1.1442700              0.0615890              0.3235720
      0.4203770              1.0601800              0.7435070
SP   1   1.00
      0.1426570              1.0000000              1.0000000
D    1   1.00
      1.5000000              1.0000000
D    1   1.00
      0.3750000              1.0000000
F    1   1.00
      0.7000000              1.0000000
****
}


set {
reference uhf                          
freeze_core true
e_convergence 10                       
d_convergence 10                      
dft_spherical_points 1202
dft_radial_points 99
}

e = energy('b3lyp')

print_out('Grab this energy {0}'.format(e))
--------------------------------------------------------------------------

  Memory set to  13.039 GiB by Python driver.

Scratch directory: /tmp/

*** tstart() called on n079
*** at Fri Nov  5 15:25:17 2021

   => Loading Basis Set <=

    Name: ANONYMOUSD50CEA48
    Role: ORBITAL
    Keyword: BASIS
    atoms 1-4  entry C          line    48 inputblock 6-31g_2dfp_ 
    atoms 5-13 entry H          line    15 inputblock 6-31g_2dfp_ 


         ---------------------------------------------------------
                                   SCF
               by Justin Turney, Rob Parrish, Andy Simmonett
                          and Daniel G. A. Smith
                              UKS Reference
                        4 Threads,  13351 MiB Core
         ---------------------------------------------------------

  ==> Geometry <==

    Molecular point group: c1
    Full point group: C1

    Geometry (in Bohr), charge = 0, multiplicity = 2:

       Center              X                  Y                   Z               Mass       
    ------------   -----------------  -----------------  -----------------  -----------------
         C           -0.322226571263    -0.000001910778    -0.000000012739    12.000000000000
         C            0.061032840937    -1.400058659878    -2.426555895038    12.000000000000
         C            0.060913044937     2.801501553922     0.000796778961    12.000000000000
         C            0.061032915337    -1.401438700678     2.425759121362    12.000000000000
         H            2.085936432837    -1.645746338478    -2.853455666238     1.007825032230
         H           -0.765810437863    -0.387469672578    -4.027313432839     1.007825032230
         H           -0.767307086363    -3.287772848178    -2.342580272338     1.007825032230
         H            2.085797192537     3.294136585522     0.001579720061     1.007825032230
         H           -0.766051752363     3.681463554722     1.678067066462     1.007825032230
         H           -0.767384255363     3.672591472722    -1.676043435439     1.007825032230
         H            2.085936618637    -1.648482857478     2.851876813362     1.007825032230
         H           -0.765974087463    -3.293961170678     2.349251369862     1.007825032230
         H           -0.767143282263    -0.384785903978     4.018617925861     1.007825032230

  Running in c1 symmetry.

  Rotational constants: A =      0.26738  B =      0.26738  C =      0.14537 [cm^-1]
  Rotational constants: A =   8015.91312  B =   8015.83902  C =   4358.07288 [MHz]
  Nuclear repulsion =  125.406224452883393

  Charge       = 0
  Multiplicity = 2
  Electrons    = 33
  Nalpha       = 17
  Nbeta        = 16

  ==> Algorithm <==

  SCF Algorithm Type is DF.
  DIIS enabled.
  MOM disabled.
  Fractional occupation disabled.
  Guess Type is SAD.
  Energy threshold   = 1.00e-10
  Density threshold  = 1.00e-10
  Integral threshold = 0.00e+00

  ==> Primary Basis <==

  Basis Set: ANONYMOUSD50CEA48
    Blend: 6-31G_2DFP_
    Number of shells: 68
    Number of basis function: 176
    Number of Cartesian functions: 196
    Spherical Harmonics?: true
    Max angular momentum: 3

  ==> DFT Potential <==

   => Composite Functional: B3LYP <= 

    B3LYP Hyb-GGA Exchange-Correlation Functional

    P. J. Stephens, F. J. Devlin, C. F. Chabalowski, and M. J. Frisch, J. Phys. Chem. 98, 11623 (1994)

    Deriv               =              1
    GGA                 =           TRUE
    Meta                =          FALSE

    Exchange Hybrid     =           TRUE
    MP2 Hybrid          =          FALSE

   => Exchange Functionals <=

    0.0800   Slater exchange
    0.7200         Becke 88

   => Exact (HF) Exchange <=

    0.2000               HF 

   => Correlation Functionals <=

    0.1900   Vosko, Wilk & Nusair (VWN5_RPA)
    0.8100   Lee, Yang & Parr

   => Molecular Quadrature <=

    Radial Scheme          =       TREUTLER
    Pruning Scheme         =           NONE
    Nuclear Scheme         =       TREUTLER

    BS radius alpha        =              1
    Pruning alpha          =              1
    Radial Points          =             99
    Spherical Points       =           1202
    Total Points           =        1442234
    Total Blocks           =           9559
    Max Points             =            256
    Max Functions          =            176
    Weights Tolerance      =       1.00E-15

   => Loading Basis Set <=

    Name: (ANONYMOUSD50CEA48 AUX)
    Role: JKFIT
    Keyword: DF_BASIS_SCF
    atoms 1-4  entry C          line   198 file /opt/psi/4/master/share/psi4/basis/def2-universal-jkfit.gbs 
    atoms 5-13 entry H          line    18 file /opt/psi/4/master/share/psi4/basis/def2-universal-jkfit.gbs 

  ==> Integral Setup <==

  DFHelper Memory: AOs need 0.114 GiB; user supplied 3.914 GiB. Using in-core AOs.

  ==> MemDFJK: Density-Fitted J/K Matrices <==

    J tasked:                   Yes
    K tasked:                   Yes
    wK tasked:                   No
    OpenMP threads:               4
    Memory [MiB]:              4008
    Algorithm:                 Core
    Schwarz Cutoff:           1E-12
    Mask sparsity (%):       1.2913
    Fitting Condition:        1E-10

   => Auxiliary Basis Set <=

  Basis Set: (ANONYMOUSD50CEA48 AUX)
    Blend: DEF2-UNIVERSAL-JKFIT
    Number of shells: 154
    Number of basis function: 462
    Number of Cartesian functions: 536
    Spherical Harmonics?: true
    Max angular momentum: 4

  Cached 100.0% of DFT collocation blocks in 5.865 [GiB].

  Minimum eigenvalue in the overlap matrix is 1.2839033915E-03.
  Reciprocal condition number of the overlap matrix is 2.1804579501E-04.
    Using symmetric orthogonalization.

  ==> Pre-Iterations <==

  SCF Guess: Superposition of Atomic Densities via on-the-fly atomic UHF (no occupation information).

   -------------------------
    Irrep   Nso     Nmo    
   -------------------------
     A        176     176 
   -------------------------
    Total     176     176
   -------------------------

  ==> Iterations <==

                           Total Energy        Delta E     RMS |[F,P]|

   @DF-UKS iter SAD:  -157.07738593214088   -1.57077e+02   0.00000e+00 
   @DF-UKS iter   1:  -157.41651408995321   -3.39128e-01   4.82268e-03 DIIS
   @DF-UKS iter   2:  -157.26061096197469    1.55903e-01   5.54102e-03 DIIS
   @DF-UKS iter   3:  -157.80976208358913   -5.49151e-01   4.41146e-04 DIIS
   @DF-UKS iter   4:  -157.81216361007836   -2.40153e-03   2.41559e-04 DIIS
   @DF-UKS iter   5:  -157.81306094225107   -8.97332e-04   2.24924e-05 DIIS
   @DF-UKS iter   6:  -157.81307119083428   -1.02486e-05   8.22862e-06 DIIS
   @DF-UKS iter   7:  -157.81307281019761   -1.61936e-06   2.79535e-06 DIIS
   @DF-UKS iter   8:  -157.81307302978300   -2.19585e-07   7.53008e-07 DIIS
   @DF-UKS iter   9:  -157.81307304995269   -2.01697e-08   1.22726e-07 DIIS
   @DF-UKS iter  10:  -157.81307305065445   -7.01760e-10   2.12855e-08 DIIS
   @DF-UKS iter  11:  -157.81307305067523   -2.07763e-11   4.16761e-09 DIIS
   @DF-UKS iter  12:  -157.81307305067611   -8.81073e-13   6.38498e-10 DIIS
   @DF-UKS iter  13:  -157.81307305067608    2.84217e-14   1.19821e-10 DIIS
   @DF-UKS iter  14:  -157.81307305067591    1.70530e-13   4.87044e-11 DIIS
  Energy and wave function converged.


  ==> Post-Iterations <==

   @Spin Contamination Metric:   4.061577290E-03
   @S^2 Expected:                7.500000000E-01
   @S^2 Observed:                7.540615773E-01
   @S   Expected:                5.000000000E-01
   @S   Observed:                5.000000000E-01

    Orbital Energies [Eh]
    ---------------------

    Alpha Occupied:                                                       

       1A    -10.180330     2A    -10.166984     3A    -10.166984  
       4A    -10.166938     5A     -0.797831     6A     -0.686225  
       7A     -0.686224     8A     -0.530787     9A     -0.440954  
      10A     -0.434885    11A     -0.434884    12A     -0.382447  
      13A     -0.382445    14A     -0.363748    15A     -0.338020  
      16A     -0.338020    17A     -0.169051  

    Alpha Virtual:                                                        

      18A      0.076109    19A      0.134104    20A      0.134105  
      21A      0.142696    22A      0.142696    23A      0.155084  
      24A      0.178743    25A      0.178743    26A      0.203661  
      27A      0.215040    28A      0.276023    29A      0.276025  
      30A      0.399454    31A      0.399458    32A      0.403268  
      33A      0.423946    34A      0.423946    35A      0.456829  
      36A      0.495365    37A      0.495366    38A      0.511972  
      39A      0.514038    40A      0.578959    41A      0.578967  
      42A      0.591451    43A      0.591453    44A      0.602338  
      45A      0.624753    46A      0.632103    47A      0.636337  
      48A      0.636340    49A      0.663688    50A      0.663689  
      51A      0.683768    52A      0.683769    53A      0.735075  
      54A      0.825304    55A      0.825307    56A      0.854261  
      57A      0.915171    58A      0.915177    59A      0.943724  
      60A      0.944425    61A      0.961001    62A      0.961018  
      63A      1.004193    64A      1.128558    65A      1.128570  
      66A      1.141611    67A      1.163811    68A      1.163823  
      69A      1.223256    70A      1.274470    71A      1.274473  
      72A      1.279579    73A      1.324624    74A      1.324626  
      75A      1.355561    76A      1.366376    77A      1.366380  
      78A      1.392271    79A      1.403741    80A      1.403743  
      81A      1.416986    82A      1.416993    83A      1.428530  
      84A      1.492093    85A      1.498766    86A      1.542893  
      87A      1.542895    88A      1.573831    89A      1.573833  
      90A      1.669901    91A      1.739283    92A      1.739294  
      93A      1.768174    94A      1.831674    95A      1.831674  
      96A      1.971833    97A      2.018092    98A      2.019898  
      99A      2.019901   100A      2.053111   101A      2.053111  
     102A      2.738071   103A      2.738072   104A      2.791149  
     105A      2.811945   106A      2.890112   107A      2.890118  
     108A      2.895188   109A      2.929947   110A      2.929956  
     111A      2.959059   112A      2.964425   113A      2.964439  
     114A      3.034481   115A      3.070798   116A      3.070812  
     117A      3.083996   118A      3.168712   119A      3.168720  
     120A      3.180747   121A      3.284903   122A      3.284903  
     123A      3.328277   124A      3.328282   125A      3.375322  
     126A      3.489654   127A      3.489674   128A      3.514144  
     129A      3.525584   130A      3.568913   131A      3.568933  
     132A      3.576015   133A      3.666337   134A      3.666345  
     135A      3.680735   136A      3.693578   137A      3.693594  
     138A      3.777965   139A      3.777991   140A      3.787803  
     141A      3.912350   142A      3.912356   143A      4.033354  
     144A      4.111480   145A      4.111484   146A      4.147897  
     147A      4.147904   148A      4.173162   149A      4.202275  
     150A      4.203848   151A      4.203851   152A      4.211354  
     153A      4.316278   154A      4.316297   155A      4.360101  
     156A      4.423948   157A      4.423951   158A      4.444451  
     159A      4.517660   160A      4.517661   161A      4.579250  
     162A      4.579262   163A      4.618018   164A      4.709750  
     165A      4.774946   166A      4.774954   167A      4.835909  
     168A      4.963408   169A      5.002836   170A      5.002848  
     171A      5.228406   172A      5.246753   173A      5.246754  
     174A      5.356074   175A      5.356087   176A      5.479607  

    Beta Occupied:                                                        

       1A    -10.167738     2A    -10.167737     3A    -10.167713  
       4A    -10.166513     5A     -0.781160     6A     -0.684026  
       7A     -0.684025     8A     -0.511755     9A     -0.431246  
      10A     -0.431246    11A     -0.421659    12A     -0.376521  
      13A     -0.376520    14A     -0.362726    15A     -0.333147  
      16A     -0.333147  

    Beta Virtual:                                                         

      17A     -0.025909    18A      0.077114    19A      0.135009  
      20A      0.135010    21A      0.144577    22A      0.144577  
      23A      0.163594    24A      0.182407    25A      0.182408  
      26A      0.215205    27A      0.219072    28A      0.282360  
      29A      0.282362    30A      0.400628    31A      0.400632  
      32A      0.419737    33A      0.426751    34A      0.426751  
      35A      0.468815    36A      0.497641    37A      0.497641  
      38A      0.513713    39A      0.556297    40A      0.584531  
      41A      0.584540    42A      0.597603    43A      0.597604  
      44A      0.609781    45A      0.628080    46A      0.632316  
      47A      0.639616    48A      0.639620    49A      0.667275  
      50A      0.667276    51A      0.686384    52A      0.686385  
      53A      0.757562    54A      0.830489    55A      0.830491  
      56A      0.855617    57A      0.923188    58A      0.923195  
      59A      0.946160    60A      0.952836    61A      0.966281  
      62A      0.966297    63A      1.009461    64A      1.132587  
      65A      1.132598    66A      1.154776    67A      1.168878  
      68A      1.168891    69A      1.232326    70A      1.280084  
      71A      1.280088    72A      1.285400    73A      1.329653  
      74A      1.329655    75A      1.364917    76A      1.371611  
      77A      1.371615    78A      1.393345    79A      1.407226  
      80A      1.407229    81A      1.421980    82A      1.421987  
      83A      1.428801    84A      1.493132    85A      1.509186  
      86A      1.547296    87A      1.547297    88A      1.581714  
      89A      1.581715    90A      1.674751    91A      1.745046  
      92A      1.745057    93A      1.778970    94A      1.835527  
      95A      1.835528    96A      1.972701    97A      2.026331  
      98A      2.026335    99A      2.039481   100A      2.059810  
     101A      2.059810   102A      2.746417   103A      2.746419  
     104A      2.812352   105A      2.816298   106A      2.902733  
     107A      2.902738   108A      2.924883   109A      2.932441  
     110A      2.932450   111A      2.960128   112A      2.969008  
     113A      2.969022   114A      3.042407   115A      3.080697  
     116A      3.080708   117A      3.085813   118A      3.184460  
     119A      3.184464   120A      3.188440   121A      3.289677  
     122A      3.289677   123A      3.332058   124A      3.332064  
     125A      3.383113   126A      3.492451   127A      3.492472  
     128A      3.512540   129A      3.528569   130A      3.575864  
     131A      3.582187   132A      3.582208   133A      3.670993  
     134A      3.671004   135A      3.693971   136A      3.725373  
     137A      3.725389   138A      3.782557   139A      3.782583  
     140A      3.816374   141A      3.922118   142A      3.922125  
     143A      4.044295   144A      4.118389   145A      4.118391  
     146A      4.155023   147A      4.155031   148A      4.187188  
     149A      4.209750   150A      4.209754   151A      4.210282  
     152A      4.215863   153A      4.323735   154A      4.323755  
     155A      4.363487   156A      4.432169   157A      4.432172  
     158A      4.447309   159A      4.525437   160A      4.525438  
     161A      4.589874   162A      4.589886   163A      4.625133  
     164A      4.720197   165A      4.781886   166A      4.781894  
     167A      4.838832   168A      4.968199   169A      5.006891  
     170A      5.006903   171A      5.234107   172A      5.248541  
     173A      5.248542   174A      5.362555   175A      5.362568  
     176A      5.481934  

    Final Occupation by Irrep:
              A 
    DOCC [    16 ]
    SOCC [     1 ]

  @DF-UKS Final Energy:  -157.81307305067591

   => Energetics <=

    Nuclear Repulsion Energy =            125.4062244528833929
    One-Electron Energy =                -458.7715553237262043
    Two-Electron Energy =                 195.8597442326374392
    DFT Exchange-Correlation Energy =     -20.3074864124705492
    Empirical Dispersion Energy =           0.0000000000000000
    VV10 Nonlocal Energy =                  0.0000000000000000
    Total Energy =                       -157.8130730506759107

  UHF NO Occupations:
  HONO-2 :   15  A 1.9995995
  HONO-1 :   16  A 1.9989824
  HONO-0 :   17  A 1.0000000
  LUNO+0 :   18  A 0.0010176
  LUNO+1 :   19  A 0.0004005
  LUNO+2 :   20  A 0.0001972
  LUNO+3 :   21  A 0.0001972


Computation Completed


Properties will be evaluated at   0.000000,   0.000000,   0.000000 [a0]

Properties computed using the SCF density matrix

  Nuclear Dipole Moment: [e a0]
     X:     0.8225      Y:    -0.0000      Z:     0.0000

  Electronic Dipole Moment: [e a0]
     X:    -0.7450      Y:     0.0000      Z:    -0.0000

  Dipole Moment: [e a0]
     X:     0.0775      Y:    -0.0000      Z:    -0.0000     Total:     0.0775

  Dipole Moment: [D]
     X:     0.1970      Y:    -0.0000      Z:    -0.0000     Total:     0.1970


*** tstop() called on n079 at Fri Nov  5 15:27:15 2021
Module time:
	user time   =     464.50 seconds =       7.74 minutes
	system time =       4.33 seconds =       0.07 minutes
	total time  =        118 seconds =       1.97 minutes
Total time:
	user time   =     464.50 seconds =       7.74 minutes
	system time =       4.33 seconds =       0.07 minutes
	total time  =        118 seconds =       1.97 minutes
Grab this energy -157.8130730506759
    Psi4 stopped on: Friday, 05 November 2021 03:27PM
    Psi4 wall time for execution: 0:01:57.93

*** Psi4 exiting successfully. Buy a developer a beer!
