
    -----------------------------------------------------------------------
          Psi4: An Open-Source Ab Initio Electronic Structure Package
                               Psi4 1.4a2.dev629 

                         Git: Rev {master} 2938fc2 dirty


    D. G. A. Smith, L. A. Burns, A. C. Simmonett, R. M. Parrish,
    M. C. Schieber, R. Galvelis, P. Kraus, H. Kruse, R. Di Remigio,
    A. Alenaizan, A. M. James, S. Lehtola, J. P. Misiewicz, M. Scheurer,
    R. A. Shaw, J. B. Schriber, Y. Xie, Z. L. Glick, D. A. Sirianni,
    J. S. O'Brien, J. M. Waldrop, A. Kumar, E. G. Hohenstein,
    B. P. Pritchard, B. R. Brooks, H. F. Schaefer III, A. Yu. Sokolov,
    K. Patkowski, A. E. DePrince III, U. Bozkaya, R. A. King,
    F. A. Evangelista, J. M. Turney, T. D. Crawford, C. D. Sherrill,
    J. Chem. Phys. 152(18) 184108 (2020). https://doi.org/10.1063/5.0006002

                            Additional Code Authors
    E. T. Seidl, C. L. Janssen, E. F. Valeev, M. L. Leininger,
    J. F. Gonthier, R. M. Richard, H. R. McAlexander, M. Saitow, X. Wang,
    P. Verma, and M. H. Lechner

             Previous Authors, Complete List of Code Contributors,
                       and Citations for Specific Modules
    https://github.com/psi4/psi4/blob/master/codemeta.json
    https://github.com/psi4/psi4/graphs/contributors
    http://psicode.org/psi4manual/master/introduction.html#citing-psifour

    -----------------------------------------------------------------------


    Psi4 started on: Friday, 05 November 2021 12:39PM

    Process ID: 10878
    Host:       n073
    PSIDATADIR: /opt/psi/4/master/share/psi4
    Memory:     500.0 MiB
    Threads:    4
    
  ==> Input File <==

--------------------------------------------------------------------------
import os
memory 14 GB 
 
molecule {
 C   -0.3233408824   -0.0002273708    0.0000000644
 C    0.0610557842   -1.4020587524   -2.4243895164
 C    0.0611870017    2.8040283264   -0.0016020328
 C    0.0610560452   -1.3992876918    2.4259894914
 H    2.0868945963   -1.6435911669   -2.8481250393
 H   -0.7650895559   -0.3880847534   -4.0258563589
 H   -0.7657525399   -3.2918039189   -2.3495655701
 H    2.0868763007    3.2874194182    0.0006203576
 H   -0.7655770192    3.6795242886    1.6769544970
 H   -0.7659705467    3.6796627384   -1.6763511477
 H    2.0868959345   -1.6446675064    2.8475057283
 H   -0.7653593193   -3.2922646229    2.3491547697
 H   -0.7654836759   -0.3886733017    4.0256647567
units bohr
0 2
}

basis {

assign 6-31g_2dfp_

[ 6-31g_2dfp_ ]

spherical

!----------------------------------------------------------------------
! Basis Set Exchange
! Version v0.8.13
! https://www.basissetexchange.org
!----------------------------------------------------------------------
!   Basis set: 6-31G(2df,p)
! Description: 6-31G(2df,p)
!        Role: orbital
!     Version: 0  (Data from the original Basis Set Exchange)
!----------------------------------------------------------------------


****
H     0
S    3   1.00
     18.7311370              0.03349460
      2.8253937              0.23472695
      0.6401217              0.81375733
S    1   1.00
      0.1612778              1.00000000
P    1   1.00
      1.5000000              1.0000000
P    1   1.00
      0.3750000              1.0000000
****
B     0
S    6   1.00
   2068.8823000              0.0018663
    310.6495700              0.0142515
     70.6830330              0.0695516
     19.8610800              0.2325729
      6.2993048              0.4670787
      2.1270270              0.3634314
SP   3   1.00
      4.7279710             -0.1303938              0.0745976
      1.1903377             -0.1307889              0.3078467
      0.3594117              1.1309444              0.7434568
SP   1   1.00
      0.1267512              1.0000000              1.0000000
D    1   1.00
      0.8020000              1.0000000
D    1   1.00
      0.2005000              1.0000000
F    1   1.00
      0.5000000              1.0000000
****
C     0
S    6   1.00
   3047.5249000              0.0018347
    457.3695100              0.0140373
    103.9486900              0.0688426
     29.2101550              0.2321844
      9.2866630              0.4679413
      3.1639270              0.3623120
SP   3   1.00
      7.8682724             -0.1193324              0.0689991
      1.8812885             -0.1608542              0.3164240
      0.5442493              1.1434564              0.7443083
SP   1   1.00
      0.1687144              1.0000000              1.0000000
D    1   1.00
      1.2520000              1.0000000
D    1   1.00
      0.3130000              1.0000000
F    1   1.00
      0.8000000              1.0000000
****
N     0
S    6   1.00
   4173.5110000              0.0018348
    627.4579000              0.0139950
    142.9021000              0.0685870
     40.2343300              0.2322410
     12.8202100              0.4690700
      4.3904370              0.3604550
SP   3   1.00
     11.6263580             -0.1149610              0.0675800
      2.7162800             -0.1691180              0.3239070
      0.7722180              1.1458520              0.7408950
SP   1   1.00
      0.2120313              1.0000000              1.0000000
D    1   1.00
      1.8260000              1.0000000
D    1   1.00
      0.4565000              1.0000000
F    1   1.00
      1.0000000              1.0000000
****
O     0
S    6   1.00
   5484.6717000              0.0018311
    825.2349500              0.0139501
    188.0469600              0.0684451
     52.9645000              0.2327143
     16.8975700              0.4701930
      5.7996353              0.3585209
SP   3   1.00
     15.5396160             -0.1107775              0.0708743
      3.5999336             -0.1480263              0.3397528
      1.0137618              1.1307670              0.7271586
SP   1   1.00
      0.2700058              1.0000000              1.0000000
D    1   1.00
      2.5840000              1.0000000
D    1   1.00
      0.6460000              1.0000000
F    1   1.00
      1.4000000              1.0000000
****
F     0
S    6   1.00
   7001.7130900              0.0018196169
   1051.3660900              0.0139160796
    239.2856900              0.0684053245
     67.3974453              0.233185760
     21.5199573              0.471267439
      7.40310130             0.356618546
SP   3   1.00
     20.8479528             -0.108506975            0.0716287243
      4.80830834            -0.146451658            0.3459121030
      1.34406986             1.128688580            0.7224699570
SP   1   1.00
      0.358151393            1.0000000              1.0000000
D    1   1.00
      3.5000000              1.0000000
D    1   1.00
      0.8750000              1.0000000
F    1   1.00
      1.8500000              1.0000000
****
Al     0
S    6   1.00
  13983.1000000              0.00194267
   2098.7500000              0.0148599
    477.7050000              0.0728494
    134.3600000              0.2468300
     42.8709000              0.4872580
     14.5189000              0.3234960
SP   6   1.00
    239.6680000             -0.00292619             0.00460285
     57.4419000             -0.0374080              0.0331990
     18.2859000             -0.1144870              0.1362820
      6.5991400              0.1156350              0.3304760
      2.4904900              0.6125950              0.4491460
      0.9445400              0.3937990              0.2657040
SP   3   1.00
      1.2779000             -0.2276060             -0.0175130
      0.3975900              0.00144583             0.2445330
      0.1600950              1.0927900              0.8049340
SP   1   1.00
      0.0556577              1.0000000              1.0000000
D    1   1.00
      0.6500000              1.0000000
D    1   1.00
      0.1625000              1.0000000
F    1   1.00
      0.2500000              1.0000000
****
Si     0
S    6   1.00
  16115.9000000              0.00195948
   2425.5800000              0.01492880
    553.8670000              0.07284780
    156.3400000              0.24613000
     50.0683000              0.48591400
     17.0178000              0.32500200
SP   6   1.00
    292.7180000             -0.00278094             0.00443826
     69.8731000             -0.03571460             0.03266790
     22.3363000             -0.11498500             0.13472100
      8.1503900              0.09356340             0.32867800
      3.1345800              0.60301700             0.44964000
      1.2254300              0.41895900             0.26137200
SP   3   1.00
      1.7273800             -0.24463000            -0.01779510
      0.5729220              0.00431572             0.25353900
      0.2221920              1.09818000             0.80066900
SP   1   1.00
      0.0778369              1.00000000             1.00000000
D    1   1.00
      0.9000000              1.0000000
D    1   1.00
      0.2250000              1.0000000
F    1   1.00
      0.3200000              1.0000000
****
P     0
S    6   1.00
  19413.3000000              0.0018516
   2909.4200000              0.0142062
    661.3640000              0.0699995
    185.7590000              0.2400790
     59.1943000              0.4847620
     20.0310000              0.3352000
SP   6   1.00
    339.4780000             -0.00278217             0.00456462
     81.0101000             -0.0360499              0.03369360
     25.8780000             -0.1166310              0.13975500
      9.4522100              0.0968328              0.33936200
      3.6656600              0.6144180              0.45092100
      1.4674600              0.4037980              0.23858600
SP   3   1.00
      2.1562300             -0.2529230             -0.01776530
      0.7489970              0.0328517              0.27405800
      0.2831450              1.0812500              0.78542100
SP   1   1.00
      0.0998317              1.0000000              1.00000000
D    1   1.00
      1.1000000              1.0000000
D    1   1.00
      0.2750000              1.0000000
F    1   1.00
      0.4500000              1.0000000
****
S     0
S    6   1.00
  21917.1000000              0.0018690
   3301.4900000              0.0142300
    754.1460000              0.0696960
    212.7110000              0.2384870
     67.9896000              0.4833070
     23.0515000              0.3380740
SP   6   1.00
    423.7350000             -0.0023767              0.0040610
    100.7100000             -0.0316930              0.0306810
     32.1599000             -0.1133170              0.1304520
     11.8079000              0.0560900              0.3272050
      4.6311000              0.5922550              0.4528510
      1.8702500              0.4550060              0.2560420
SP   3   1.00
      2.6158400             -0.2503740             -0.0145110
      0.9221670              0.0669570              0.3102630
      0.3412870              1.0545100              0.7544830
SP   1   1.00
      0.1171670              1.0000000              1.0000000
D    1   1.00
      1.3000000              1.0000000
D    1   1.00
      0.3250000              1.0000000
F    1   1.00
      0.5500000              1.0000000
****
Cl     0
S    6   1.00
  25180.1000000              0.0018330
   3780.3500000              0.0140340
    860.4740000              0.0690970
    242.1450000              0.2374520
     77.3349000              0.4830340
     26.2470000              0.3398560
SP   6   1.00
    491.7650000             -0.0022974              0.0039894
    116.9840000             -0.0307140              0.0303180
     37.4153000             -0.1125280              0.1298800
     13.7834000              0.0450160              0.3279510
      5.4521500              0.5893530              0.4535270
      2.2258800              0.4652060              0.2521540
SP   3   1.00
      3.1864900             -0.2518300             -0.0142990
      1.1442700              0.0615890              0.3235720
      0.4203770              1.0601800              0.7435070
SP   1   1.00
      0.1426570              1.0000000              1.0000000
D    1   1.00
      1.5000000              1.0000000
D    1   1.00
      0.3750000              1.0000000
F    1   1.00
      0.7000000              1.0000000
****
}


set {
reference uhf                          
freeze_core true
e_convergence 10                       
d_convergence 10                      
dft_spherical_points 1202
dft_radial_points 99
}

e = energy('b3lyp')

print_out('Grab this energy {0}'.format(e))
--------------------------------------------------------------------------

  Memory set to  13.039 GiB by Python driver.

Scratch directory: /tmp/

*** tstart() called on n073
*** at Fri Nov  5 12:39:02 2021

   => Loading Basis Set <=

    Name: ANONYMOUS33C91A4D
    Role: ORBITAL
    Keyword: BASIS
    atoms 1-4  entry C          line    48 inputblock 6-31g_2dfp_ 
    atoms 5-13 entry H          line    15 inputblock 6-31g_2dfp_ 


         ---------------------------------------------------------
                                   SCF
               by Justin Turney, Rob Parrish, Andy Simmonett
                          and Daniel G. A. Smith
                              UKS Reference
                        4 Threads,  13351 MiB Core
         ---------------------------------------------------------

  ==> Geometry <==

    Molecular point group: c1
    Full point group: C1

    Geometry (in Bohr), charge = 0, multiplicity = 2:

       Center              X                  Y                   Z               Mass       
    ------------   -----------------  -----------------  -----------------  -----------------
         C           -0.323340484386    -0.000699698013     0.000000448345    12.000000000000
         C            0.061056182214    -1.402531079613    -2.424389132455    12.000000000000
         C            0.061187399714     2.803555999187    -0.001601648855    12.000000000000
         C            0.061056443214    -1.399760019013     2.425989875345    12.000000000000
         H            2.086894994314    -1.644063494113    -2.848124655355     1.007825032230
         H           -0.765089157886    -0.388557080613    -4.025855974955     1.007825032230
         H           -0.765752141886    -3.292276246113    -2.349565186155     1.007825032230
         H            2.086876698714     3.286947090987     0.000620741545     1.007825032230
         H           -0.765576621186     3.679051961387     1.676954880945     1.007825032230
         H           -0.765970148686     3.679190411187    -1.676350763755     1.007825032230
         H            2.086896332514    -1.645139833613     2.847506112245     1.007825032230
         H           -0.765358921286    -3.292736950113     2.349155153645     1.007825032230
         H           -0.765483277886    -0.389145628913     4.025665140645     1.007825032230

  Running in c1 symmetry.

  Rotational constants: A =      0.26748  B =      0.26718  C =      0.14535 [cm^-1]
  Rotational constants: A =   8018.81571  B =   8009.81592  C =   4357.39643 [MHz]
  Nuclear repulsion =  125.394591322343501

  Charge       = 0
  Multiplicity = 2
  Electrons    = 33
  Nalpha       = 17
  Nbeta        = 16

  ==> Algorithm <==

  SCF Algorithm Type is DF.
  DIIS enabled.
  MOM disabled.
  Fractional occupation disabled.
  Guess Type is SAD.
  Energy threshold   = 1.00e-10
  Density threshold  = 1.00e-10
  Integral threshold = 0.00e+00

  ==> Primary Basis <==

  Basis Set: ANONYMOUS33C91A4D
    Blend: 6-31G_2DFP_
    Number of shells: 68
    Number of basis function: 176
    Number of Cartesian functions: 196
    Spherical Harmonics?: true
    Max angular momentum: 3

  ==> DFT Potential <==

   => Composite Functional: B3LYP <= 

    B3LYP Hyb-GGA Exchange-Correlation Functional

    P. J. Stephens, F. J. Devlin, C. F. Chabalowski, and M. J. Frisch, J. Phys. Chem. 98, 11623 (1994)

    Deriv               =              1
    GGA                 =           TRUE
    Meta                =          FALSE

    Exchange Hybrid     =           TRUE
    MP2 Hybrid          =          FALSE

   => Exchange Functionals <=

    0.0800   Slater exchange
    0.7200         Becke 88

   => Exact (HF) Exchange <=

    0.2000               HF 

   => Correlation Functionals <=

    0.1900   Vosko, Wilk & Nusair (VWN5_RPA)
    0.8100   Lee, Yang & Parr

   => Molecular Quadrature <=

    Radial Scheme          =       TREUTLER
    Pruning Scheme         =           NONE
    Nuclear Scheme         =       TREUTLER

    BS radius alpha        =              1
    Pruning alpha          =              1
    Radial Points          =             99
    Spherical Points       =           1202
    Total Points           =        1442237
    Total Blocks           =           9560
    Max Points             =            256
    Max Functions          =            176
    Weights Tolerance      =       1.00E-15

   => Loading Basis Set <=

    Name: (ANONYMOUS33C91A4D AUX)
    Role: JKFIT
    Keyword: DF_BASIS_SCF
    atoms 1-4  entry C          line   198 file /opt/psi/4/master/share/psi4/basis/def2-universal-jkfit.gbs 
    atoms 5-13 entry H          line    18 file /opt/psi/4/master/share/psi4/basis/def2-universal-jkfit.gbs 

  ==> Integral Setup <==

  DFHelper Memory: AOs need 0.114 GiB; user supplied 3.915 GiB. Using in-core AOs.

  ==> MemDFJK: Density-Fitted J/K Matrices <==

    J tasked:                   Yes
    K tasked:                   Yes
    wK tasked:                   No
    OpenMP threads:               4
    Memory [MiB]:              4008
    Algorithm:                 Core
    Schwarz Cutoff:           1E-12
    Mask sparsity (%):       1.2913
    Fitting Condition:        1E-10

   => Auxiliary Basis Set <=

  Basis Set: (ANONYMOUS33C91A4D AUX)
    Blend: DEF2-UNIVERSAL-JKFIT
    Number of shells: 154
    Number of basis function: 462
    Number of Cartesian functions: 536
    Spherical Harmonics?: true
    Max angular momentum: 4

  Cached 100.0% of DFT collocation blocks in 5.864 [GiB].

  Minimum eigenvalue in the overlap matrix is 1.2846684283E-03.
  Reciprocal condition number of the overlap matrix is 2.1819144220E-04.
    Using symmetric orthogonalization.

  ==> Pre-Iterations <==

  SCF Guess: Superposition of Atomic Densities via on-the-fly atomic UHF (no occupation information).

   -------------------------
    Irrep   Nso     Nmo    
   -------------------------
     A        176     176 
   -------------------------
    Total     176     176
   -------------------------

  ==> Iterations <==

                           Total Energy        Delta E     RMS |[F,P]|

   @DF-UKS iter SAD:  -157.07648931191036   -1.57076e+02   0.00000e+00 
   @DF-UKS iter   1:  -157.41665083809701   -3.40162e-01   4.82175e-03 DIIS
   @DF-UKS iter   2:  -157.26089370401999    1.55757e-01   5.53953e-03 DIIS
   @DF-UKS iter   3:  -157.80976866549969   -5.48875e-01   4.40413e-04 DIIS
   @DF-UKS iter   4:  -157.81216136750425   -2.39270e-03   2.41345e-04 DIIS
   @DF-UKS iter   5:  -157.81305719621128   -8.95829e-04   2.24724e-05 DIIS
   @DF-UKS iter   6:  -157.81306742776948   -1.02316e-05   8.21991e-06 DIIS
   @DF-UKS iter   7:  -157.81306904352195   -1.61575e-06   2.79886e-06 DIIS
   @DF-UKS iter   8:  -157.81306926315486   -2.19633e-07   7.59495e-07 DIIS
   @DF-UKS iter   9:  -157.81306928329408   -2.01392e-08   1.64493e-07 DIIS
   @DF-UKS iter  10:  -157.81306928388730   -5.93218e-10   1.36041e-07 DIIS
   @DF-UKS iter  11:  -157.81306928420574   -3.18437e-10   1.62404e-08 DIIS
   @DF-UKS iter  12:  -157.81306928421506   -9.32232e-12   2.53929e-09 DIIS
   @DF-UKS iter  13:  -157.81306928421481    2.55795e-13   4.34812e-10 DIIS
   @DF-UKS iter  14:  -157.81306928421506   -2.55795e-13   7.64636e-11 DIIS
  Energy and wave function converged.


  ==> Post-Iterations <==

   @Spin Contamination Metric:   4.061454777E-03
   @S^2 Expected:                7.500000000E-01
   @S^2 Observed:                7.540614548E-01
   @S   Expected:                5.000000000E-01
   @S   Observed:                5.000000000E-01

    Orbital Energies [Eh]
    ---------------------

    Alpha Occupied:                                                       

       1A    -10.180342     2A    -10.167051     3A    -10.167029  
       4A    -10.166965     5A     -0.797766     6A     -0.686210  
       7A     -0.686163     8A     -0.530776     9A     -0.441124  
      10A     -0.434754    11A     -0.434589    12A     -0.382690  
      13A     -0.382508    14A     -0.363612    15A     -0.338206  
      16A     -0.337791    17A     -0.168961  

    Alpha Virtual:                                                        

      18A      0.076072    19A      0.134137    20A      0.134172  
      21A      0.142565    22A      0.142693    23A      0.154879  
      24A      0.178697    25A      0.178861    26A      0.203543  
      27A      0.214804    28A      0.275762    29A      0.276210  
      30A      0.399215    31A      0.399241    32A      0.403346  
      33A      0.424053    34A      0.424141    35A      0.456593  
      36A      0.495366    37A      0.495412    38A      0.512153  
      39A      0.513987    40A      0.578772    41A      0.578858  
      42A      0.591573    43A      0.591697    44A      0.602573  
      45A      0.624751    46A      0.631785    47A      0.636083  
      48A      0.636412    49A      0.663350    50A      0.663472  
      51A      0.683834    52A      0.683874    53A      0.734994  
      54A      0.825352    55A      0.825463    56A      0.853916  
      57A      0.915014    58A      0.915038    59A      0.944125  
      60A      0.944614    61A      0.961251    62A      0.961333  
      63A      1.003452    64A      1.128021    65A      1.128191  
      66A      1.142225    67A      1.162979    68A      1.163560  
      69A      1.223322    70A      1.274170    71A      1.274794  
      72A      1.279369    73A      1.324293    74A      1.324419  
      75A      1.355982    76A      1.365912    77A      1.366209  
      78A      1.392458    79A      1.403877    80A      1.404225  
      81A      1.416956    82A      1.417250    83A      1.427917  
      84A      1.491451    85A      1.499126    86A      1.542755  
      87A      1.542896    88A      1.574256    89A      1.574645  
      90A      1.669820    91A      1.739290    92A      1.739555  
      93A      1.768323    94A      1.830889    95A      1.831905  
      96A      1.971730    97A      2.018162    98A      2.018640  
      99A      2.019591   100A      2.051968   101A      2.053319  
     102A      2.738364   103A      2.738607   104A      2.790916  
     105A      2.811433   106A      2.889865   107A      2.890032  
     108A      2.894946   109A      2.929433   110A      2.929562  
     111A      2.958995   112A      2.964292   113A      2.964465  
     114A      3.034009   115A      3.071142   116A      3.071426  
     117A      3.084349   118A      3.168569   119A      3.168979  
     120A      3.180606   121A      3.285304   122A      3.285322  
     123A      3.326971   124A      3.327352   125A      3.375615  
     126A      3.489837   127A      3.490475   128A      3.513985  
     129A      3.525354   130A      3.568319   131A      3.568464  
     132A      3.575148   133A      3.665704   134A      3.667026  
     135A      3.679670   136A      3.694000   137A      3.694266  
     138A      3.776614   139A      3.777000   140A      3.789120  
     141A      3.911471   142A      3.912976   143A      4.034453  
     144A      4.111216   145A      4.111531   146A      4.147820  
     147A      4.148430   148A      4.173245   149A      4.202261  
     150A      4.203075   151A      4.203458   152A      4.210863  
     153A      4.315221   154A      4.316667   155A      4.358977  
     156A      4.423522   157A      4.425290   158A      4.443527  
     159A      4.516185   160A      4.517505   161A      4.578251  
     162A      4.578290   163A      4.617537   164A      4.709455  
     165A      4.774251   166A      4.774901   167A      4.836924  
     168A      4.962831   169A      5.002231   170A      5.003703  
     171A      5.228041   172A      5.246617   173A      5.247014  
     174A      5.355433   175A      5.355574   176A      5.479350  

    Beta Occupied:                                                        

       1A    -10.167806     2A    -10.167791     3A    -10.167727  
       4A    -10.166519     5A     -0.781091     6A     -0.684018  
       7A     -0.683960     8A     -0.511748     9A     -0.431126  
      10A     -0.430959    11A     -0.421822    12A     -0.376794  
      13A     -0.376573    14A     -0.362595    15A     -0.333330  
      16A     -0.332912  

    Beta Virtual:                                                         

      17A     -0.025742    18A      0.077081    19A      0.135040  
      20A      0.135048    21A      0.144452    22A      0.144547  
      23A      0.163338    24A      0.182380    25A      0.182520  
      26A      0.215027    27A      0.218933    28A      0.282119  
      29A      0.282548    30A      0.400388    31A      0.400407  
      32A      0.419791    33A      0.426863    34A      0.426953  
      35A      0.468501    36A      0.497621    37A      0.497679  
      38A      0.513895    39A      0.556325    40A      0.584318  
      41A      0.584413    42A      0.597753    43A      0.597876  
      44A      0.609997    45A      0.628119    46A      0.631949  
      47A      0.639374    48A      0.639692    49A      0.666908  
      50A      0.667042    51A      0.686481    52A      0.686496  
      53A      0.757517    54A      0.830515    55A      0.830636  
      56A      0.855269    57A      0.922983    58A      0.923012  
      59A      0.945963    60A      0.953542    61A      0.966560  
      62A      0.966636    63A      1.008692    64A      1.132059  
      65A      1.132214    66A      1.155597    67A      1.168037  
      68A      1.168651    69A      1.232295    70A      1.279764  
      71A      1.280394    72A      1.285123    73A      1.329296  
      74A      1.329395    75A      1.365395    76A      1.371183  
      77A      1.371424    78A      1.393520    79A      1.407393  
      80A      1.407641    81A      1.422024    82A      1.422276  
      83A      1.428193    84A      1.492518    85A      1.509549  
      86A      1.547153    87A      1.547313    88A      1.582123  
      89A      1.582522    90A      1.674667    91A      1.745047  
      92A      1.745320    93A      1.779104    94A      1.834754  
      95A      1.835750    96A      1.972590    97A      2.024903  
      98A      2.026002    99A      2.039661   100A      2.058688  
     101A      2.060034   102A      2.746722   103A      2.746921  
     104A      2.811803   105A      2.816093   106A      2.902580  
     107A      2.902697   108A      2.924646   109A      2.931933  
     110A      2.932027   111A      2.960058   112A      2.968821  
     113A      2.969023   114A      3.041944   115A      3.081056  
     116A      3.081330   117A      3.086169   118A      3.184261  
     119A      3.184745   120A      3.188329   121A      3.290094  
     122A      3.290129   123A      3.330784   124A      3.331148  
     125A      3.383434   126A      3.492546   127A      3.493226  
     128A      3.512358   129A      3.528391   130A      3.575004  
     131A      3.581641   132A      3.581824   133A      3.670422  
     134A      3.671813   135A      3.692962   136A      3.725624  
     137A      3.725901   138A      3.781095   139A      3.781567  
     140A      3.817667   141A      3.921338   142A      3.922743  
     143A      4.045340   144A      4.117930   145A      4.118446  
     146A      4.155126   147A      4.155543   148A      4.187304  
     149A      4.208534   150A      4.209400   151A      4.210698  
     152A      4.215340   153A      4.322633   154A      4.324134  
     155A      4.362340   156A      4.431771   157A      4.433441  
     158A      4.446443   159A      4.523981   160A      4.525287  
     161A      4.588836   162A      4.588909   163A      4.624730  
     164A      4.719800   165A      4.781222   166A      4.781836  
     167A      4.839842   168A      4.967627   169A      5.006285  
     170A      5.007727   171A      5.233757   172A      5.248409  
     173A      5.248791   174A      5.361892   175A      5.362075  
     176A      5.481671  

    Final Occupation by Irrep:
              A 
    DOCC [    16 ]
    SOCC [     1 ]

  @DF-UKS Final Energy:  -157.81306928421506

   => Energetics <=

    Nuclear Repulsion Energy =            125.3945913223435014
    One-Electron Energy =                -458.7488466745776350
    Two-Electron Energy =                 195.8483287887007123
    DFT Exchange-Correlation Energy =     -20.3071427206816431
    Empirical Dispersion Energy =           0.0000000000000000
    VV10 Nonlocal Energy =                  0.0000000000000000
    Total Energy =                       -157.8130692842150609

  UHF NO Occupations:
  HONO-2 :   15  A 1.9996009
  HONO-1 :   16  A 1.9989805
  HONO-0 :   17  A 1.0000000
  LUNO+0 :   18  A 0.0010195
  LUNO+1 :   19  A 0.0003991
  LUNO+2 :   20  A 0.0001979
  LUNO+3 :   21  A 0.0001972


Computation Completed


Properties will be evaluated at   0.000000,   0.000000,   0.000000 [a0]

Properties computed using the SCF density matrix

  Nuclear Dipole Moment: [e a0]
     X:     0.8272      Y:    -0.0033      Z:     0.0000

  Electronic Dipole Moment: [e a0]
     X:    -0.7493      Y:     0.0034      Z:    -0.0000

  Dipole Moment: [e a0]
     X:     0.0779      Y:     0.0001      Z:     0.0000     Total:     0.0779

  Dipole Moment: [D]
     X:     0.1980      Y:     0.0002      Z:     0.0000     Total:     0.1980


*** tstop() called on n073 at Fri Nov  5 12:41:19 2021
Module time:
	user time   =     531.99 seconds =       8.87 minutes
	system time =      12.05 seconds =       0.20 minutes
	total time  =        137 seconds =       2.28 minutes
Total time:
	user time   =     531.99 seconds =       8.87 minutes
	system time =      12.05 seconds =       0.20 minutes
	total time  =        137 seconds =       2.28 minutes
Grab this energy -157.81306928421506
    Psi4 stopped on: Friday, 05 November 2021 12:41PM
    Psi4 wall time for execution: 0:02:16.87

*** Psi4 exiting successfully. Buy a developer a beer!
