
    -----------------------------------------------------------------------
          Psi4: An Open-Source Ab Initio Electronic Structure Package
                               Psi4 1.4a2.dev629 

                         Git: Rev {master} 2938fc2 dirty


    D. G. A. Smith, L. A. Burns, A. C. Simmonett, R. M. Parrish,
    M. C. Schieber, R. Galvelis, P. Kraus, H. Kruse, R. Di Remigio,
    A. Alenaizan, A. M. James, S. Lehtola, J. P. Misiewicz, M. Scheurer,
    R. A. Shaw, J. B. Schriber, Y. Xie, Z. L. Glick, D. A. Sirianni,
    J. S. O'Brien, J. M. Waldrop, A. Kumar, E. G. Hohenstein,
    B. P. Pritchard, B. R. Brooks, H. F. Schaefer III, A. Yu. Sokolov,
    K. Patkowski, A. E. DePrince III, U. Bozkaya, R. A. King,
    F. A. Evangelista, J. M. Turney, T. D. Crawford, C. D. Sherrill,
    J. Chem. Phys. 152(18) 184108 (2020). https://doi.org/10.1063/5.0006002

                            Additional Code Authors
    E. T. Seidl, C. L. Janssen, E. F. Valeev, M. L. Leininger,
    J. F. Gonthier, R. M. Richard, H. R. McAlexander, M. Saitow, X. Wang,
    P. Verma, and M. H. Lechner

             Previous Authors, Complete List of Code Contributors,
                       and Citations for Specific Modules
    https://github.com/psi4/psi4/blob/master/codemeta.json
    https://github.com/psi4/psi4/graphs/contributors
    http://psicode.org/psi4manual/master/introduction.html#citing-psifour

    -----------------------------------------------------------------------


    Psi4 started on: Friday, 05 November 2021 12:51PM

    Process ID: 23270
    Host:       n080
    PSIDATADIR: /opt/psi/4/master/share/psi4
    Memory:     500.0 MiB
    Threads:    4
    
  ==> Input File <==

--------------------------------------------------------------------------
import os
memory 14 GB 
 
molecule {
 C   -0.3233325240    0.0049901566    0.0000012115
 C    0.0614407507   -1.4049513564   -2.4194377029
 C    0.0604190808    2.8096666752   -0.0016012505
 C    0.0614425940   -1.4021859481    2.4210489895
 H    2.0873246356   -1.6496161358   -2.8389449262
 H   -0.7622963725   -0.3964092897   -4.0236739805
 H   -0.7676222145   -3.2934841324   -2.3360167877
 H    2.0860210205    3.2972563203    0.0006185575
 H   -0.7665040056    3.6881043405    1.6769990923
 H   -0.7669001168    3.6882342114   -1.6763949073
 H    2.0873213415   -1.6506912107    2.8383198484
 H   -0.7672315742   -3.2939414023    2.3355983970
 H   -0.7626904922   -0.3969965422    4.0234834588
units bohr
0 2
}

basis {

assign 6-31g_2dfp_

[ 6-31g_2dfp_ ]

spherical

!----------------------------------------------------------------------
! Basis Set Exchange
! Version v0.8.13
! https://www.basissetexchange.org
!----------------------------------------------------------------------
!   Basis set: 6-31G(2df,p)
! Description: 6-31G(2df,p)
!        Role: orbital
!     Version: 0  (Data from the original Basis Set Exchange)
!----------------------------------------------------------------------


****
H     0
S    3   1.00
     18.7311370              0.03349460
      2.8253937              0.23472695
      0.6401217              0.81375733
S    1   1.00
      0.1612778              1.00000000
P    1   1.00
      1.5000000              1.0000000
P    1   1.00
      0.3750000              1.0000000
****
B     0
S    6   1.00
   2068.8823000              0.0018663
    310.6495700              0.0142515
     70.6830330              0.0695516
     19.8610800              0.2325729
      6.2993048              0.4670787
      2.1270270              0.3634314
SP   3   1.00
      4.7279710             -0.1303938              0.0745976
      1.1903377             -0.1307889              0.3078467
      0.3594117              1.1309444              0.7434568
SP   1   1.00
      0.1267512              1.0000000              1.0000000
D    1   1.00
      0.8020000              1.0000000
D    1   1.00
      0.2005000              1.0000000
F    1   1.00
      0.5000000              1.0000000
****
C     0
S    6   1.00
   3047.5249000              0.0018347
    457.3695100              0.0140373
    103.9486900              0.0688426
     29.2101550              0.2321844
      9.2866630              0.4679413
      3.1639270              0.3623120
SP   3   1.00
      7.8682724             -0.1193324              0.0689991
      1.8812885             -0.1608542              0.3164240
      0.5442493              1.1434564              0.7443083
SP   1   1.00
      0.1687144              1.0000000              1.0000000
D    1   1.00
      1.2520000              1.0000000
D    1   1.00
      0.3130000              1.0000000
F    1   1.00
      0.8000000              1.0000000
****
N     0
S    6   1.00
   4173.5110000              0.0018348
    627.4579000              0.0139950
    142.9021000              0.0685870
     40.2343300              0.2322410
     12.8202100              0.4690700
      4.3904370              0.3604550
SP   3   1.00
     11.6263580             -0.1149610              0.0675800
      2.7162800             -0.1691180              0.3239070
      0.7722180              1.1458520              0.7408950
SP   1   1.00
      0.2120313              1.0000000              1.0000000
D    1   1.00
      1.8260000              1.0000000
D    1   1.00
      0.4565000              1.0000000
F    1   1.00
      1.0000000              1.0000000
****
O     0
S    6   1.00
   5484.6717000              0.0018311
    825.2349500              0.0139501
    188.0469600              0.0684451
     52.9645000              0.2327143
     16.8975700              0.4701930
      5.7996353              0.3585209
SP   3   1.00
     15.5396160             -0.1107775              0.0708743
      3.5999336             -0.1480263              0.3397528
      1.0137618              1.1307670              0.7271586
SP   1   1.00
      0.2700058              1.0000000              1.0000000
D    1   1.00
      2.5840000              1.0000000
D    1   1.00
      0.6460000              1.0000000
F    1   1.00
      1.4000000              1.0000000
****
F     0
S    6   1.00
   7001.7130900              0.0018196169
   1051.3660900              0.0139160796
    239.2856900              0.0684053245
     67.3974453              0.233185760
     21.5199573              0.471267439
      7.40310130             0.356618546
SP   3   1.00
     20.8479528             -0.108506975            0.0716287243
      4.80830834            -0.146451658            0.3459121030
      1.34406986             1.128688580            0.7224699570
SP   1   1.00
      0.358151393            1.0000000              1.0000000
D    1   1.00
      3.5000000              1.0000000
D    1   1.00
      0.8750000              1.0000000
F    1   1.00
      1.8500000              1.0000000
****
Al     0
S    6   1.00
  13983.1000000              0.00194267
   2098.7500000              0.0148599
    477.7050000              0.0728494
    134.3600000              0.2468300
     42.8709000              0.4872580
     14.5189000              0.3234960
SP   6   1.00
    239.6680000             -0.00292619             0.00460285
     57.4419000             -0.0374080              0.0331990
     18.2859000             -0.1144870              0.1362820
      6.5991400              0.1156350              0.3304760
      2.4904900              0.6125950              0.4491460
      0.9445400              0.3937990              0.2657040
SP   3   1.00
      1.2779000             -0.2276060             -0.0175130
      0.3975900              0.00144583             0.2445330
      0.1600950              1.0927900              0.8049340
SP   1   1.00
      0.0556577              1.0000000              1.0000000
D    1   1.00
      0.6500000              1.0000000
D    1   1.00
      0.1625000              1.0000000
F    1   1.00
      0.2500000              1.0000000
****
Si     0
S    6   1.00
  16115.9000000              0.00195948
   2425.5800000              0.01492880
    553.8670000              0.07284780
    156.3400000              0.24613000
     50.0683000              0.48591400
     17.0178000              0.32500200
SP   6   1.00
    292.7180000             -0.00278094             0.00443826
     69.8731000             -0.03571460             0.03266790
     22.3363000             -0.11498500             0.13472100
      8.1503900              0.09356340             0.32867800
      3.1345800              0.60301700             0.44964000
      1.2254300              0.41895900             0.26137200
SP   3   1.00
      1.7273800             -0.24463000            -0.01779510
      0.5729220              0.00431572             0.25353900
      0.2221920              1.09818000             0.80066900
SP   1   1.00
      0.0778369              1.00000000             1.00000000
D    1   1.00
      0.9000000              1.0000000
D    1   1.00
      0.2250000              1.0000000
F    1   1.00
      0.3200000              1.0000000
****
P     0
S    6   1.00
  19413.3000000              0.0018516
   2909.4200000              0.0142062
    661.3640000              0.0699995
    185.7590000              0.2400790
     59.1943000              0.4847620
     20.0310000              0.3352000
SP   6   1.00
    339.4780000             -0.00278217             0.00456462
     81.0101000             -0.0360499              0.03369360
     25.8780000             -0.1166310              0.13975500
      9.4522100              0.0968328              0.33936200
      3.6656600              0.6144180              0.45092100
      1.4674600              0.4037980              0.23858600
SP   3   1.00
      2.1562300             -0.2529230             -0.01776530
      0.7489970              0.0328517              0.27405800
      0.2831450              1.0812500              0.78542100
SP   1   1.00
      0.0998317              1.0000000              1.00000000
D    1   1.00
      1.1000000              1.0000000
D    1   1.00
      0.2750000              1.0000000
F    1   1.00
      0.4500000              1.0000000
****
S     0
S    6   1.00
  21917.1000000              0.0018690
   3301.4900000              0.0142300
    754.1460000              0.0696960
    212.7110000              0.2384870
     67.9896000              0.4833070
     23.0515000              0.3380740
SP   6   1.00
    423.7350000             -0.0023767              0.0040610
    100.7100000             -0.0316930              0.0306810
     32.1599000             -0.1133170              0.1304520
     11.8079000              0.0560900              0.3272050
      4.6311000              0.5922550              0.4528510
      1.8702500              0.4550060              0.2560420
SP   3   1.00
      2.6158400             -0.2503740             -0.0145110
      0.9221670              0.0669570              0.3102630
      0.3412870              1.0545100              0.7544830
SP   1   1.00
      0.1171670              1.0000000              1.0000000
D    1   1.00
      1.3000000              1.0000000
D    1   1.00
      0.3250000              1.0000000
F    1   1.00
      0.5500000              1.0000000
****
Cl     0
S    6   1.00
  25180.1000000              0.0018330
   3780.3500000              0.0140340
    860.4740000              0.0690970
    242.1450000              0.2374520
     77.3349000              0.4830340
     26.2470000              0.3398560
SP   6   1.00
    491.7650000             -0.0022974              0.0039894
    116.9840000             -0.0307140              0.0303180
     37.4153000             -0.1125280              0.1298800
     13.7834000              0.0450160              0.3279510
      5.4521500              0.5893530              0.4535270
      2.2258800              0.4652060              0.2521540
SP   3   1.00
      3.1864900             -0.2518300             -0.0142990
      1.1442700              0.0615890              0.3235720
      0.4203770              1.0601800              0.7435070
SP   1   1.00
      0.1426570              1.0000000              1.0000000
D    1   1.00
      1.5000000              1.0000000
D    1   1.00
      0.3750000              1.0000000
F    1   1.00
      0.7000000              1.0000000
****
}


set {
reference uhf                          
freeze_core true
e_convergence 10                       
d_convergence 10                      
dft_spherical_points 1202
dft_radial_points 99
}

e = energy('b3lyp')

print_out('Grab this energy {0}'.format(e))
--------------------------------------------------------------------------

  Memory set to  13.039 GiB by Python driver.

Scratch directory: /tmp/

*** tstart() called on n080
*** at Fri Nov  5 12:51:32 2021

   => Loading Basis Set <=

    Name: ANONYMOUS9A1DF4D1
    Role: ORBITAL
    Keyword: BASIS
    atoms 1-4  entry C          line    48 inputblock 6-31g_2dfp_ 
    atoms 5-13 entry H          line    15 inputblock 6-31g_2dfp_ 


         ---------------------------------------------------------
                                   SCF
               by Justin Turney, Rob Parrish, Andy Simmonett
                          and Daniel G. A. Smith
                              UKS Reference
                        4 Threads,  13351 MiB Core
         ---------------------------------------------------------

  ==> Geometry <==

    Molecular point group: c1
    Full point group: C1

    Geometry (in Bohr), charge = 0, multiplicity = 2:

       Center              X                  Y                   Z               Mass       
    ------------   -----------------  -----------------  -----------------  -----------------
         C           -0.323334428181     0.003542270843    -0.000000954867    12.000000000000
         C            0.061438846519    -1.406399242157    -2.419439869267    12.000000000000
         C            0.060417176619     2.808218789443    -0.001603416867    12.000000000000
         C            0.061440689819    -1.403633833857     2.421046823133    12.000000000000
         H            2.087322731419    -1.651064021557    -2.838947092567     1.007825032230
         H           -0.762298276681    -0.397857175457    -4.023676146867     1.007825032230
         H           -0.767624118681    -3.294932018157    -2.336018954067     1.007825032230
         H            2.086019116319     3.295808434543     0.000616391133     1.007825032230
         H           -0.766505909781     3.686656454743     1.676996925933     1.007825032230
         H           -0.766902020981     3.686786325643    -1.676397073667     1.007825032230
         H            2.087319437319    -1.652139096457     2.838317682033     1.007825032230
         H           -0.767233478381    -3.295389288057     2.335596230633     1.007825032230
         H           -0.762692396381    -0.398444427957     4.023481292433     1.007825032230

  Running in c1 symmetry.

  Rotational constants: A =      0.26849  B =      0.26618  C =      0.14535 [cm^-1]
  Rotational constants: A =   8048.98382  B =   7979.96059  C =   4357.40210 [MHz]
  Nuclear repulsion =  125.394854921175138

  Charge       = 0
  Multiplicity = 2
  Electrons    = 33
  Nalpha       = 17
  Nbeta        = 16

  ==> Algorithm <==

  SCF Algorithm Type is DF.
  DIIS enabled.
  MOM disabled.
  Fractional occupation disabled.
  Guess Type is SAD.
  Energy threshold   = 1.00e-10
  Density threshold  = 1.00e-10
  Integral threshold = 0.00e+00

  ==> Primary Basis <==

  Basis Set: ANONYMOUS9A1DF4D1
    Blend: 6-31G_2DFP_
    Number of shells: 68
    Number of basis function: 176
    Number of Cartesian functions: 196
    Spherical Harmonics?: true
    Max angular momentum: 3

  ==> DFT Potential <==

   => Composite Functional: B3LYP <= 

    B3LYP Hyb-GGA Exchange-Correlation Functional

    P. J. Stephens, F. J. Devlin, C. F. Chabalowski, and M. J. Frisch, J. Phys. Chem. 98, 11623 (1994)

    Deriv               =              1
    GGA                 =           TRUE
    Meta                =          FALSE

    Exchange Hybrid     =           TRUE
    MP2 Hybrid          =          FALSE

   => Exchange Functionals <=

    0.0800   Slater exchange
    0.7200         Becke 88

   => Exact (HF) Exchange <=

    0.2000               HF 

   => Correlation Functionals <=

    0.1900   Vosko, Wilk & Nusair (VWN5_RPA)
    0.8100   Lee, Yang & Parr

   => Molecular Quadrature <=

    Radial Scheme          =       TREUTLER
    Pruning Scheme         =           NONE
    Nuclear Scheme         =       TREUTLER

    BS radius alpha        =              1
    Pruning alpha          =              1
    Radial Points          =             99
    Spherical Points       =           1202
    Total Points           =        1442232
    Total Blocks           =           9549
    Max Points             =            256
    Max Functions          =            176
    Weights Tolerance      =       1.00E-15

   => Loading Basis Set <=

    Name: (ANONYMOUS9A1DF4D1 AUX)
    Role: JKFIT
    Keyword: DF_BASIS_SCF
    atoms 1-4  entry C          line   198 file /opt/psi/4/master/share/psi4/basis/def2-universal-jkfit.gbs 
    atoms 5-13 entry H          line    18 file /opt/psi/4/master/share/psi4/basis/def2-universal-jkfit.gbs 

  ==> Integral Setup <==

  DFHelper Memory: AOs need 0.114 GiB; user supplied 3.915 GiB. Using in-core AOs.

  ==> MemDFJK: Density-Fitted J/K Matrices <==

    J tasked:                   Yes
    K tasked:                   Yes
    wK tasked:                   No
    OpenMP threads:               4
    Memory [MiB]:              4009
    Algorithm:                 Core
    Schwarz Cutoff:           1E-12
    Mask sparsity (%):       1.3171
    Fitting Condition:        1E-10

   => Auxiliary Basis Set <=

  Basis Set: (ANONYMOUS9A1DF4D1 AUX)
    Blend: DEF2-UNIVERSAL-JKFIT
    Number of shells: 154
    Number of basis function: 462
    Number of Cartesian functions: 536
    Spherical Harmonics?: true
    Max angular momentum: 4

  Cached 100.0% of DFT collocation blocks in 5.864 [GiB].

  Minimum eigenvalue in the overlap matrix is 1.2846753961E-03.
  Reciprocal condition number of the overlap matrix is 2.1818860621E-04.
    Using symmetric orthogonalization.

  ==> Pre-Iterations <==

  SCF Guess: Superposition of Atomic Densities via on-the-fly atomic UHF (no occupation information).

   -------------------------
    Irrep   Nso     Nmo    
   -------------------------
     A        176     176 
   -------------------------
    Total     176     176
   -------------------------

  ==> Iterations <==

                           Total Energy        Delta E     RMS |[F,P]|

   @DF-UKS iter SAD:  -157.07650836955952   -1.57077e+02   0.00000e+00 
   @DF-UKS iter   1:  -157.41664328137887   -3.40135e-01   4.82176e-03 DIIS
   @DF-UKS iter   2:  -157.26088016256332    1.55763e-01   5.53957e-03 DIIS
   @DF-UKS iter   3:  -157.80976200017000   -5.48882e-01   4.40409e-04 DIIS
   @DF-UKS iter   4:  -157.81215463911619   -2.39264e-03   2.41345e-04 DIIS
   @DF-UKS iter   5:  -157.81305046185201   -8.95823e-04   2.24725e-05 DIIS
   @DF-UKS iter   6:  -157.81306069390030   -1.02320e-05   8.21832e-06 DIIS
   @DF-UKS iter   7:  -157.81306230948380   -1.61558e-06   2.79639e-06 DIIS
   @DF-UKS iter   8:  -157.81306252902732   -2.19544e-07   7.54218e-07 DIIS
   @DF-UKS iter   9:  -157.81306254919591   -2.01686e-08   1.30591e-07 DIIS
   @DF-UKS iter  10:  -157.81306254985105   -6.55149e-10   7.24295e-08 DIIS
   @DF-UKS iter  11:  -157.81306254993845   -8.73968e-11   2.37526e-08 DIIS
   @DF-UKS iter  12:  -157.81306254995133   -1.28750e-11   2.80868e-09 DIIS
   @DF-UKS iter  13:  -157.81306254995133    0.00000e+00   9.96431e-10 DIIS
   @DF-UKS iter  14:  -157.81306254995164   -3.12639e-13   1.88751e-10 DIIS
   @DF-UKS iter  15:  -157.81306254995150    1.42109e-13   2.93434e-11 DIIS
  Energy and wave function converged.


  ==> Post-Iterations <==

   @Spin Contamination Metric:   4.061468518E-03
   @S^2 Expected:                7.500000000E-01
   @S^2 Observed:                7.540614685E-01
   @S   Expected:                5.000000000E-01
   @S   Observed:                5.000000000E-01

    Orbital Energies [Eh]
    ---------------------

    Alpha Occupied:                                                       

       1A    -10.180341     2A    -10.167329     3A    -10.166874  
       4A    -10.166842     5A     -0.797769     6A     -0.686407  
       7A     -0.685964     8A     -0.530776     9A     -0.441127  
      10A     -0.434937    11A     -0.434407    12A     -0.382745  
      13A     -0.382452    14A     -0.363610    15A     -0.338274  
      16A     -0.337720    17A     -0.168961  

    Alpha Virtual:                                                        

      18A      0.076072    19A      0.133914    20A      0.134396  
      21A      0.142489    22A      0.142767    23A      0.154879  
      24A      0.178555    25A      0.179004    26A      0.203542  
      27A      0.214809    28A      0.275817    29A      0.276155  
      30A      0.399023    31A      0.399371    32A      0.403411  
      33A      0.423967    34A      0.424237    35A      0.456595  
      36A      0.494984    37A      0.495786    38A      0.512165  
      39A      0.513994    40A      0.578545    41A      0.579064  
      42A      0.591612    43A      0.591663    44A      0.602574  
      45A      0.624757    46A      0.631781    47A      0.636028  
      48A      0.636470    49A      0.663195    50A      0.663631  
      51A      0.683610    52A      0.684102    53A      0.734993  
      54A      0.824580    55A      0.826221    56A      0.853915  
      57A      0.914778    58A      0.915277    59A      0.944047  
      60A      0.944520    61A      0.961129    62A      0.961663  
      63A      1.003470    64A      1.126942    65A      1.129296  
      66A      1.142211    67A      1.162772    68A      1.163761  
      69A      1.223330    70A      1.273975    71A      1.275017  
      72A      1.279350    73A      1.324261    74A      1.324444  
      75A      1.355983    76A      1.365343    77A      1.366715  
      78A      1.392449    79A      1.403264    80A      1.404911  
      81A      1.416628    82A      1.417600    83A      1.427923  
      84A      1.491397    85A      1.499110    86A      1.542453  
      87A      1.543209    88A      1.572600    89A      1.576413  
      90A      1.669819    91A      1.738327    92A      1.740478  
      93A      1.768354    94A      1.830889    95A      1.831911  
      96A      1.971726    97A      2.017582    98A      2.018293  
      99A      2.020489   100A      2.050129   101A      2.055247  
     102A      2.738219   103A      2.738751   104A      2.790914  
     105A      2.811447   106A      2.889854   107A      2.890037  
     108A      2.894943   109A      2.929314   110A      2.929675  
     111A      2.958992   112A      2.963474   113A      2.965312  
     114A      3.034011   115A      3.070299   116A      3.072241  
     117A      3.084381   118A      3.168005   119A      3.169606  
     120A      3.180560   121A      3.284599   122A      3.286011  
     123A      3.326213   124A      3.328126   125A      3.375664  
     126A      3.489668   127A      3.490583   128A      3.514004  
     129A      3.525325   130A      3.567312   131A      3.569301  
     132A      3.575404   133A      3.666255   134A      3.666510  
     135A      3.679657   136A      3.693668   137A      3.694552  
     138A      3.776019   139A      3.777502   140A      3.789297  
     141A      3.910802   142A      3.913652   143A      4.034475  
     144A      4.110017   145A      4.112751   146A      4.146450  
     147A      4.149764   148A      4.173229   149A      4.201387  
     150A      4.202694   151A      4.204638   152A      4.210987  
     153A      4.315927   154A      4.315957   155A      4.358997  
     156A      4.424306   157A      4.424478   158A      4.443536  
     159A      4.515990   160A      4.517727   161A      4.577198  
     162A      4.579342   163A      4.617535   164A      4.709443  
     165A      4.773322   166A      4.775880   167A      4.836947  
     168A      4.962861   169A      5.001982   170A      5.003929  
     171A      5.228027   172A      5.246662   173A      5.246992  
     174A      5.354799   175A      5.356205   176A      5.479334  

    Beta Occupied:                                                        

       1A    -10.168085     2A    -10.167628     3A    -10.167612  
       4A    -10.166518     5A     -0.781095     6A     -0.684213  
       7A     -0.683763     8A     -0.511748     9A     -0.431317  
      10A     -0.430769    11A     -0.421823    12A     -0.376839  
      13A     -0.376527    14A     -0.362594    15A     -0.333401  
      16A     -0.332840  

    Beta Virtual:                                                         

      17A     -0.025743    18A      0.077081    19A      0.134794  
      20A      0.135296    21A      0.144366    22A      0.144632  
      23A      0.163339    24A      0.182216    25A      0.182685  
      26A      0.215032    27A      0.218931    28A      0.282153  
      29A      0.282514    30A      0.400271    31A      0.400517  
      32A      0.419799    33A      0.426764    34A      0.427063  
      35A      0.468505    36A      0.497245    37A      0.498050  
      38A      0.513907    39A      0.556329    40A      0.584126  
      41A      0.584585    42A      0.597776    43A      0.597855  
      44A      0.609993    45A      0.628132    46A      0.631945  
      47A      0.639295    48A      0.639773    49A      0.666731  
      50A      0.667220    51A      0.686194    52A      0.686790  
      53A      0.757516    54A      0.829739    55A      0.831398  
      56A      0.855268    57A      0.922735    58A      0.923262  
      59A      0.945909    60A      0.953434    61A      0.966362  
      62A      0.967038    63A      1.008708    64A      1.130980  
      65A      1.133316    66A      1.155583    67A      1.167818  
      68A      1.168867    69A      1.232300    70A      1.279570  
      71A      1.280618    72A      1.285103    73A      1.329235  
      74A      1.329449    75A      1.365396    76A      1.370482  
      77A      1.372054    78A      1.393515    79A      1.406765  
      80A      1.408350    81A      1.421676    82A      1.422645  
      83A      1.428197    84A      1.492467    85A      1.509533  
      86A      1.546752    87A      1.547722    88A      1.580627  
      89A      1.584133    90A      1.674665    91A      1.744095  
      92A      1.746235    93A      1.779132    94A      1.834727  
      95A      1.835784    96A      1.972589    97A      2.023940  
      98A      2.026953    99A      2.039637   100A      2.056945  
     101A      2.061869   102A      2.746511   103A      2.747132  
     104A      2.811817   105A      2.816091   106A      2.902574  
     107A      2.902693   108A      2.924649   109A      2.931890  
     110A      2.932067   111A      2.960059   112A      2.968050  
     113A      2.969820   114A      3.041946   115A      3.080101  
     116A      3.082100   117A      3.086367   118A      3.183865  
     119A      3.185233   120A      3.188240   121A      3.289464  
     122A      3.290748   123A      3.330011   124A      3.331939  
     125A      3.383481   126A      3.492407   127A      3.493297  
     128A      3.512388   129A      3.528371   130A      3.574812  
     131A      3.580647   132A      3.583092   133A      3.670980  
     134A      3.671278   135A      3.692954   136A      3.725348  
     137A      3.726129   138A      3.780523   139A      3.782133  
     140A      3.817759   141A      3.920618   142A      3.923470  
     143A      4.045362   144A      4.116839   145A      4.119558  
     146A      4.153716   147A      4.156918   148A      4.187290  
     149A      4.207321   150A      4.210547   151A      4.210651  
     152A      4.215504   153A      4.323349   154A      4.323415  
     155A      4.362359   156A      4.432548   157A      4.432623  
     158A      4.446468   159A      4.523877   160A      4.525412  
     161A      4.587720   162A      4.590024   163A      4.624728  
     164A      4.719788   165A      4.780240   166A      4.782868  
     167A      4.839867   168A      4.967655   169A      5.006023  
     170A      5.007966   171A      5.233740   172A      5.248442  
     173A      5.248784   174A      5.361261   175A      5.362703  
     176A      5.481655  

    Final Occupation by Irrep:
              A 
    DOCC [    16 ]
    SOCC [     1 ]

  @DF-UKS Final Energy:  -157.81306254995150

   => Energetics <=

    Nuclear Repulsion Energy =            125.3948549211751384
    One-Electron Energy =                -458.7493578464844859
    Two-Electron Energy =                 195.8485860322399503
    DFT Exchange-Correlation Energy =     -20.3071456568820921
    Empirical Dispersion Energy =           0.0000000000000000
    VV10 Nonlocal Energy =                  0.0000000000000000
    Total Energy =                       -157.8130625499514963

  UHF NO Occupations:
  HONO-2 :   15  A 1.9996009
  HONO-1 :   16  A 1.9989804
  HONO-0 :   17  A 1.0000000
  LUNO+0 :   18  A 0.0010196
  LUNO+1 :   19  A 0.0003991
  LUNO+2 :   20  A 0.0001979
  LUNO+3 :   21  A 0.0001972


Computation Completed


Properties will be evaluated at   0.000000,   0.000000,   0.000000 [a0]

Properties computed using the SCF density matrix

  Nuclear Dipole Moment: [e a0]
     X:     0.8272      Y:    -0.0102      Z:    -0.0000

  Electronic Dipole Moment: [e a0]
     X:    -0.7493      Y:     0.0110      Z:     0.0000

  Dipole Moment: [e a0]
     X:     0.0779      Y:     0.0008      Z:     0.0000     Total:     0.0779

  Dipole Moment: [D]
     X:     0.1980      Y:     0.0019      Z:     0.0000     Total:     0.1981


*** tstop() called on n080 at Fri Nov  5 12:53:37 2021
Module time:
	user time   =     492.20 seconds =       8.20 minutes
	system time =       4.56 seconds =       0.08 minutes
	total time  =        125 seconds =       2.08 minutes
Total time:
	user time   =     492.20 seconds =       8.20 minutes
	system time =       4.56 seconds =       0.08 minutes
	total time  =        125 seconds =       2.08 minutes
Grab this energy -157.8130625499515
    Psi4 stopped on: Friday, 05 November 2021 12:53PM
    Psi4 wall time for execution: 0:02:04.91

*** Psi4 exiting successfully. Buy a developer a beer!
