
    -----------------------------------------------------------------------
          Psi4: An Open-Source Ab Initio Electronic Structure Package
                               Psi4 1.4a2.dev629 

                         Git: Rev {master} 2938fc2 dirty


    D. G. A. Smith, L. A. Burns, A. C. Simmonett, R. M. Parrish,
    M. C. Schieber, R. Galvelis, P. Kraus, H. Kruse, R. Di Remigio,
    A. Alenaizan, A. M. James, S. Lehtola, J. P. Misiewicz, M. Scheurer,
    R. A. Shaw, J. B. Schriber, Y. Xie, Z. L. Glick, D. A. Sirianni,
    J. S. O'Brien, J. M. Waldrop, A. Kumar, E. G. Hohenstein,
    B. P. Pritchard, B. R. Brooks, H. F. Schaefer III, A. Yu. Sokolov,
    K. Patkowski, A. E. DePrince III, U. Bozkaya, R. A. King,
    F. A. Evangelista, J. M. Turney, T. D. Crawford, C. D. Sherrill,
    J. Chem. Phys. 152(18) 184108 (2020). https://doi.org/10.1063/5.0006002

                            Additional Code Authors
    E. T. Seidl, C. L. Janssen, E. F. Valeev, M. L. Leininger,
    J. F. Gonthier, R. M. Richard, H. R. McAlexander, M. Saitow, X. Wang,
    P. Verma, and M. H. Lechner

             Previous Authors, Complete List of Code Contributors,
                       and Citations for Specific Modules
    https://github.com/psi4/psi4/blob/master/codemeta.json
    https://github.com/psi4/psi4/graphs/contributors
    http://psicode.org/psi4manual/master/introduction.html#citing-psifour

    -----------------------------------------------------------------------


    Psi4 started on: Friday, 05 November 2021 01:18PM

    Process ID: 13555
    Host:       n032
    PSIDATADIR: /opt/psi/4/master/share/psi4
    Memory:     500.0 MiB
    Threads:    4
    
  ==> Input File <==

--------------------------------------------------------------------------
import os
memory 14 GB 
 
molecule {
 C   -0.3233530486    0.0004954271    0.0000000000
 C    0.0616447206   -1.3997447621   -2.4250843623
 C    0.0594602404    2.8002175828    0.0000000000
 C    0.0616447206   -1.3997447621    2.4250843623
 H    2.0848216445   -1.6443302952   -2.8481623640
 H   -0.7632932994   -0.3872139094   -4.0261297808
 H   -0.7655315301   -3.2939205579   -2.3488761005
 H    2.0908698284    3.2881118592    0.0000000000
 H   -0.7674339841    3.6807849332    1.6732682237
 H   -0.7674339841    3.6807849332   -1.6732682237
 H    2.0848216445   -1.6443302952    2.8481623640
 H   -0.7655315301   -3.2939205579    2.3488761005
 H   -0.7632932994   -0.3872139094    4.0261297808
units bohr
0 2
}

basis {

assign 6-31g_2dfp_

[ 6-31g_2dfp_ ]

spherical

!----------------------------------------------------------------------
! Basis Set Exchange
! Version v0.8.13
! https://www.basissetexchange.org
!----------------------------------------------------------------------
!   Basis set: 6-31G(2df,p)
! Description: 6-31G(2df,p)
!        Role: orbital
!     Version: 0  (Data from the original Basis Set Exchange)
!----------------------------------------------------------------------


****
H     0
S    3   1.00
     18.7311370              0.03349460
      2.8253937              0.23472695
      0.6401217              0.81375733
S    1   1.00
      0.1612778              1.00000000
P    1   1.00
      1.5000000              1.0000000
P    1   1.00
      0.3750000              1.0000000
****
B     0
S    6   1.00
   2068.8823000              0.0018663
    310.6495700              0.0142515
     70.6830330              0.0695516
     19.8610800              0.2325729
      6.2993048              0.4670787
      2.1270270              0.3634314
SP   3   1.00
      4.7279710             -0.1303938              0.0745976
      1.1903377             -0.1307889              0.3078467
      0.3594117              1.1309444              0.7434568
SP   1   1.00
      0.1267512              1.0000000              1.0000000
D    1   1.00
      0.8020000              1.0000000
D    1   1.00
      0.2005000              1.0000000
F    1   1.00
      0.5000000              1.0000000
****
C     0
S    6   1.00
   3047.5249000              0.0018347
    457.3695100              0.0140373
    103.9486900              0.0688426
     29.2101550              0.2321844
      9.2866630              0.4679413
      3.1639270              0.3623120
SP   3   1.00
      7.8682724             -0.1193324              0.0689991
      1.8812885             -0.1608542              0.3164240
      0.5442493              1.1434564              0.7443083
SP   1   1.00
      0.1687144              1.0000000              1.0000000
D    1   1.00
      1.2520000              1.0000000
D    1   1.00
      0.3130000              1.0000000
F    1   1.00
      0.8000000              1.0000000
****
N     0
S    6   1.00
   4173.5110000              0.0018348
    627.4579000              0.0139950
    142.9021000              0.0685870
     40.2343300              0.2322410
     12.8202100              0.4690700
      4.3904370              0.3604550
SP   3   1.00
     11.6263580             -0.1149610              0.0675800
      2.7162800             -0.1691180              0.3239070
      0.7722180              1.1458520              0.7408950
SP   1   1.00
      0.2120313              1.0000000              1.0000000
D    1   1.00
      1.8260000              1.0000000
D    1   1.00
      0.4565000              1.0000000
F    1   1.00
      1.0000000              1.0000000
****
O     0
S    6   1.00
   5484.6717000              0.0018311
    825.2349500              0.0139501
    188.0469600              0.0684451
     52.9645000              0.2327143
     16.8975700              0.4701930
      5.7996353              0.3585209
SP   3   1.00
     15.5396160             -0.1107775              0.0708743
      3.5999336             -0.1480263              0.3397528
      1.0137618              1.1307670              0.7271586
SP   1   1.00
      0.2700058              1.0000000              1.0000000
D    1   1.00
      2.5840000              1.0000000
D    1   1.00
      0.6460000              1.0000000
F    1   1.00
      1.4000000              1.0000000
****
F     0
S    6   1.00
   7001.7130900              0.0018196169
   1051.3660900              0.0139160796
    239.2856900              0.0684053245
     67.3974453              0.233185760
     21.5199573              0.471267439
      7.40310130             0.356618546
SP   3   1.00
     20.8479528             -0.108506975            0.0716287243
      4.80830834            -0.146451658            0.3459121030
      1.34406986             1.128688580            0.7224699570
SP   1   1.00
      0.358151393            1.0000000              1.0000000
D    1   1.00
      3.5000000              1.0000000
D    1   1.00
      0.8750000              1.0000000
F    1   1.00
      1.8500000              1.0000000
****
Al     0
S    6   1.00
  13983.1000000              0.00194267
   2098.7500000              0.0148599
    477.7050000              0.0728494
    134.3600000              0.2468300
     42.8709000              0.4872580
     14.5189000              0.3234960
SP   6   1.00
    239.6680000             -0.00292619             0.00460285
     57.4419000             -0.0374080              0.0331990
     18.2859000             -0.1144870              0.1362820
      6.5991400              0.1156350              0.3304760
      2.4904900              0.6125950              0.4491460
      0.9445400              0.3937990              0.2657040
SP   3   1.00
      1.2779000             -0.2276060             -0.0175130
      0.3975900              0.00144583             0.2445330
      0.1600950              1.0927900              0.8049340
SP   1   1.00
      0.0556577              1.0000000              1.0000000
D    1   1.00
      0.6500000              1.0000000
D    1   1.00
      0.1625000              1.0000000
F    1   1.00
      0.2500000              1.0000000
****
Si     0
S    6   1.00
  16115.9000000              0.00195948
   2425.5800000              0.01492880
    553.8670000              0.07284780
    156.3400000              0.24613000
     50.0683000              0.48591400
     17.0178000              0.32500200
SP   6   1.00
    292.7180000             -0.00278094             0.00443826
     69.8731000             -0.03571460             0.03266790
     22.3363000             -0.11498500             0.13472100
      8.1503900              0.09356340             0.32867800
      3.1345800              0.60301700             0.44964000
      1.2254300              0.41895900             0.26137200
SP   3   1.00
      1.7273800             -0.24463000            -0.01779510
      0.5729220              0.00431572             0.25353900
      0.2221920              1.09818000             0.80066900
SP   1   1.00
      0.0778369              1.00000000             1.00000000
D    1   1.00
      0.9000000              1.0000000
D    1   1.00
      0.2250000              1.0000000
F    1   1.00
      0.3200000              1.0000000
****
P     0
S    6   1.00
  19413.3000000              0.0018516
   2909.4200000              0.0142062
    661.3640000              0.0699995
    185.7590000              0.2400790
     59.1943000              0.4847620
     20.0310000              0.3352000
SP   6   1.00
    339.4780000             -0.00278217             0.00456462
     81.0101000             -0.0360499              0.03369360
     25.8780000             -0.1166310              0.13975500
      9.4522100              0.0968328              0.33936200
      3.6656600              0.6144180              0.45092100
      1.4674600              0.4037980              0.23858600
SP   3   1.00
      2.1562300             -0.2529230             -0.01776530
      0.7489970              0.0328517              0.27405800
      0.2831450              1.0812500              0.78542100
SP   1   1.00
      0.0998317              1.0000000              1.00000000
D    1   1.00
      1.1000000              1.0000000
D    1   1.00
      0.2750000              1.0000000
F    1   1.00
      0.4500000              1.0000000
****
S     0
S    6   1.00
  21917.1000000              0.0018690
   3301.4900000              0.0142300
    754.1460000              0.0696960
    212.7110000              0.2384870
     67.9896000              0.4833070
     23.0515000              0.3380740
SP   6   1.00
    423.7350000             -0.0023767              0.0040610
    100.7100000             -0.0316930              0.0306810
     32.1599000             -0.1133170              0.1304520
     11.8079000              0.0560900              0.3272050
      4.6311000              0.5922550              0.4528510
      1.8702500              0.4550060              0.2560420
SP   3   1.00
      2.6158400             -0.2503740             -0.0145110
      0.9221670              0.0669570              0.3102630
      0.3412870              1.0545100              0.7544830
SP   1   1.00
      0.1171670              1.0000000              1.0000000
D    1   1.00
      1.3000000              1.0000000
D    1   1.00
      0.3250000              1.0000000
F    1   1.00
      0.5500000              1.0000000
****
Cl     0
S    6   1.00
  25180.1000000              0.0018330
   3780.3500000              0.0140340
    860.4740000              0.0690970
    242.1450000              0.2374520
     77.3349000              0.4830340
     26.2470000              0.3398560
SP   6   1.00
    491.7650000             -0.0022974              0.0039894
    116.9840000             -0.0307140              0.0303180
     37.4153000             -0.1125280              0.1298800
     13.7834000              0.0450160              0.3279510
      5.4521500              0.5893530              0.4535270
      2.2258800              0.4652060              0.2521540
SP   3   1.00
      3.1864900             -0.2518300             -0.0142990
      1.1442700              0.0615890              0.3235720
      0.4203770              1.0601800              0.7435070
SP   1   1.00
      0.1426570              1.0000000              1.0000000
D    1   1.00
      1.5000000              1.0000000
D    1   1.00
      0.3750000              1.0000000
F    1   1.00
      0.7000000              1.0000000
****
}


set {
reference uhf                          
freeze_core true
e_convergence 10                       
d_convergence 10                      
dft_spherical_points 1202
dft_radial_points 99
}

e = energy('b3lyp')

print_out('Grab this energy {0}'.format(e))
--------------------------------------------------------------------------

  Memory set to  13.039 GiB by Python driver.

Scratch directory: /tmp/

*** tstart() called on n032
*** at Fri Nov  5 13:18:48 2021

   => Loading Basis Set <=

    Name: ANONYMOUS839ADF28
    Role: ORBITAL
    Keyword: BASIS
    atoms 1-4  entry C          line    48 inputblock 6-31g_2dfp_ 
    atoms 5-13 entry H          line    15 inputblock 6-31g_2dfp_ 


         ---------------------------------------------------------
                                   SCF
               by Justin Turney, Rob Parrish, Andy Simmonett
                          and Daniel G. A. Smith
                              UKS Reference
                        4 Threads,  13351 MiB Core
         ---------------------------------------------------------

  ==> Geometry <==

    Molecular point group: cs
    Full point group: Cs

    Geometry (in Bohr), charge = 0, multiplicity = 2:

       Center              X                  Y                   Z               Mass       
    ------------   -----------------  -----------------  -----------------  -----------------
         C           -0.323244537137     0.000260204305     0.000000000000    12.000000000000
         C            0.061753232063    -1.399979984895    -2.425084362300    12.000000000000
         C            0.059568751863     2.799982360005     0.000000000000    12.000000000000
         C            0.061753232063    -1.399979984895     2.425084362300    12.000000000000
         H            2.084930155963    -1.644565517995    -2.848162364000     1.007825032230
         H           -0.763184787937    -0.387449132195    -4.026129780800     1.007825032230
         H           -0.765423018637    -3.294155780695    -2.348876100500     1.007825032230
         H            2.090978339863     3.287876636405     0.000000000000     1.007825032230
         H           -0.767325472637     3.680549710405     1.673268223700     1.007825032230
         H           -0.767325472637     3.680549710405    -1.673268223700     1.007825032230
         H            2.084930155963    -1.644565517995     2.848162364000     1.007825032230
         H           -0.765423018637    -3.294155780695     2.348876100500     1.007825032230
         H           -0.763184787937    -0.387449132195     4.026129780800     1.007825032230

  Running in cs symmetry.

  Rotational constants: A =      0.26752  B =      0.26750  C =      0.14545 [cm^-1]
  Rotational constants: A =   8019.96154  B =   8019.57818  C =   4360.57194 [MHz]
  Nuclear repulsion =  125.422587053647419

  Charge       = 0
  Multiplicity = 2
  Electrons    = 33
  Nalpha       = 17
  Nbeta        = 16

  ==> Algorithm <==

  SCF Algorithm Type is DF.
  DIIS enabled.
  MOM disabled.
  Fractional occupation disabled.
  Guess Type is SAD.
  Energy threshold   = 1.00e-10
  Density threshold  = 1.00e-10
  Integral threshold = 0.00e+00

  ==> Primary Basis <==

  Basis Set: ANONYMOUS839ADF28
    Blend: 6-31G_2DFP_
    Number of shells: 68
    Number of basis function: 176
    Number of Cartesian functions: 196
    Spherical Harmonics?: true
    Max angular momentum: 3

  ==> DFT Potential <==

   => Composite Functional: B3LYP <= 

    B3LYP Hyb-GGA Exchange-Correlation Functional

    P. J. Stephens, F. J. Devlin, C. F. Chabalowski, and M. J. Frisch, J. Phys. Chem. 98, 11623 (1994)

    Deriv               =              1
    GGA                 =           TRUE
    Meta                =          FALSE

    Exchange Hybrid     =           TRUE
    MP2 Hybrid          =          FALSE

   => Exchange Functionals <=

    0.0800   Slater exchange
    0.7200         Becke 88

   => Exact (HF) Exchange <=

    0.2000               HF 

   => Correlation Functionals <=

    0.1900   Vosko, Wilk & Nusair (VWN5_RPA)
    0.8100   Lee, Yang & Parr

   => Molecular Quadrature <=

    Radial Scheme          =       TREUTLER
    Pruning Scheme         =           NONE
    Nuclear Scheme         =       TREUTLER

    BS radius alpha        =              1
    Pruning alpha          =              1
    Radial Points          =             99
    Spherical Points       =           1202
    Total Points           =        1442237
    Total Blocks           =           9542
    Max Points             =            256
    Max Functions          =            176
    Weights Tolerance      =       1.00E-15

   => Loading Basis Set <=

    Name: (ANONYMOUS839ADF28 AUX)
    Role: JKFIT
    Keyword: DF_BASIS_SCF
    atoms 1-4  entry C          line   198 file /opt/psi/4/master/share/psi4/basis/def2-universal-jkfit.gbs 
    atoms 5-13 entry H          line    18 file /opt/psi/4/master/share/psi4/basis/def2-universal-jkfit.gbs 

  ==> Integral Setup <==

  DFHelper Memory: AOs need 0.114 GiB; user supplied 3.915 GiB. Using in-core AOs.

  ==> MemDFJK: Density-Fitted J/K Matrices <==

    J tasked:                   Yes
    K tasked:                   Yes
    wK tasked:                   No
    OpenMP threads:               4
    Memory [MiB]:              4008
    Algorithm:                 Core
    Schwarz Cutoff:           1E-12
    Mask sparsity (%):       1.2913
    Fitting Condition:        1E-10

   => Auxiliary Basis Set <=

  Basis Set: (ANONYMOUS839ADF28 AUX)
    Blend: DEF2-UNIVERSAL-JKFIT
    Number of shells: 154
    Number of basis function: 462
    Number of Cartesian functions: 536
    Spherical Harmonics?: true
    Max angular momentum: 4

  Cached 100.0% of DFT collocation blocks in 5.864 [GiB].

  Minimum eigenvalue in the overlap matrix is 1.2193961598E-03.
  Reciprocal condition number of the overlap matrix is 2.1912087610E-04.
    Using symmetric orthogonalization.

  ==> Pre-Iterations <==

  SCF Guess: Superposition of Atomic Densities via on-the-fly atomic UHF (no occupation information).

   -------------------------
    Irrep   Nso     Nmo    
   -------------------------
     A'        98      98 
     A"        78      78 
   -------------------------
    Total     176     176
   -------------------------

  ==> Iterations <==

                           Total Energy        Delta E     RMS |[F,P]|

   @DF-UKS iter SAD:  -157.07825985305701   -1.57078e+02   0.00000e+00 
   @DF-UKS iter   1:  -157.41622244480769   -3.37963e-01   6.77861e-03 DIIS
   @DF-UKS iter   2:  -157.25879825495144    1.57424e-01   7.79793e-03 DIIS
   @DF-UKS iter   3:  -157.80975504036357   -5.50957e-01   6.21677e-04 DIIS
   @DF-UKS iter   4:  -157.81217240450559   -2.41736e-03   3.39794e-04 DIIS
   @DF-UKS iter   5:  -157.81307132675931   -8.98922e-04   3.16451e-05 DIIS
   @DF-UKS iter   6:  -157.81308160053712   -1.02738e-05   1.15675e-05 DIIS
   @DF-UKS iter   7:  -157.81308322086150   -1.62032e-06   3.93659e-06 DIIS
   @DF-UKS iter   8:  -157.81308344107885   -2.20217e-07   1.06026e-06 DIIS
   @DF-UKS iter   9:  -157.81308346131391   -2.02351e-08   1.76289e-07 DIIS
   @DF-UKS iter  10:  -157.81308346200694   -6.93035e-10   6.18757e-08 DIIS
   @DF-UKS iter  11:  -157.81308346203741   -3.04681e-11   3.98891e-08 DIIS
   @DF-UKS iter  12:  -157.81308346205205   -1.46372e-11   3.88401e-09 DIIS
   @DF-UKS iter  13:  -157.81308346205242   -3.69482e-13   6.36578e-10 DIIS
   @DF-UKS iter  14:  -157.81308346205256   -1.42109e-13   1.16311e-10 DIIS
   @DF-UKS iter  15:  -157.81308346205239    1.70530e-13   4.78163e-11 DIIS
  Energy and wave function converged.


  ==> Post-Iterations <==

   @Spin Contamination Metric:   4.060697113E-03
   @S^2 Expected:                7.500000000E-01
   @S^2 Observed:                7.540606971E-01
   @S   Expected:                5.000000000E-01
   @S   Observed:                5.000000000E-01

    Orbital Energies [Eh]
    ---------------------

    Alpha Occupied:                                                       

       1Ap   -10.180291     2Ap   -10.167101     1App  -10.167070  
       3Ap   -10.167032     4Ap    -0.798023     5Ap    -0.686197  
       2App   -0.686197     6Ap    -0.530944     7Ap    -0.441136  
       3App   -0.434762     8Ap    -0.434715     4App   -0.382483  
       9Ap    -0.382437     5App   -0.363410    10Ap    -0.338191  
       6App   -0.338126    11Ap    -0.168982  

    Alpha Virtual:                                                        

      12Ap     0.076063    13Ap     0.133928     7App    0.134265  
      14Ap     0.142431     8App    0.142555    15Ap     0.154986  
      16Ap     0.178529     9App    0.178698    17Ap     0.203838  
      10App    0.214679    11App    0.276150    18Ap     0.276303  
      12App    0.399191    19Ap     0.399254    20Ap     0.403252  
      21Ap     0.423959    13App    0.424129    22Ap     0.456773  
      14App    0.495236    23Ap     0.495522    15App    0.512106  
      24Ap     0.513923    25Ap     0.578592    16App    0.578953  
      26Ap     0.591378    17App    0.591682    27Ap     0.602538  
      28Ap     0.624642    18App    0.631527    29Ap     0.636200  
      19App    0.636425    30Ap     0.663167    20App    0.663900  
      21App    0.683664    31Ap     0.684015    32Ap     0.734863  
      22App    0.825401    33Ap     0.825447    23App    0.854057  
      34Ap     0.914772    24App    0.915195    25App    0.944172  
      35Ap     0.944922    36Ap     0.961110    26App    0.961348  
      37Ap     1.003283    38Ap     1.128130    27App    1.128243  
      39Ap     1.142630    40Ap     1.162534    28App    1.162792  
      41Ap     1.223754    42Ap     1.274455    29App    1.274765  
      43Ap     1.279534    44Ap     1.324514    30App    1.324600  
      45Ap     1.356296    46Ap     1.366173    31App    1.366209  
      32App    1.391960    47Ap     1.402883    33App    1.403795  
      34App    1.416571    48Ap     1.417629    35App    1.427658  
      36App    1.492013    49Ap     1.498494    50Ap     1.542541  
      37App    1.543452    38App    1.574389    51Ap     1.574704  
      52Ap     1.669035    53Ap     1.739717    39App    1.740081  
      54Ap     1.768329    40App    1.830166    55Ap     1.831777  
      41App    1.972313    56Ap     2.017966    57Ap     2.019477  
      42App    2.020226    58Ap     2.052145    43App    2.054032  
      59Ap     2.738253    44App    2.739069    60Ap     2.791148  
      45App    2.811512    61Ap     2.890039    46App    2.890055  
      62Ap     2.895373    63Ap     2.929324    47App    2.929352  
      48App    2.958948    64Ap     2.964011    49App    2.964684  
      65Ap     3.034190    66Ap     3.071222    50App    3.071232  
      51App    3.084770    52App    3.168673    67Ap     3.169091  
      68Ap     3.181195    53App    3.284658    69Ap     3.285310  
      54App    3.327204    70Ap     3.327602    71Ap     3.375527  
      55App    3.490078    72Ap     3.490409    56App    3.514162  
      73Ap     3.525672    57App    3.568498    74Ap     3.568770  
      58App    3.575018    75Ap     3.664859    59App    3.666332  
      76Ap     3.679077    60App    3.693859    77Ap     3.694212  
      78Ap     3.776853    61App    3.776866    79Ap     3.788833  
      62App    3.913229    80Ap     3.913429    81Ap     4.034999  
      82Ap     4.110624    63App    4.111540    64App    4.147522  
      83Ap     4.148669    84Ap     4.173911    65App    4.202897  
      85Ap     4.203141    86Ap     4.204937    66App    4.211271  
      87Ap     4.315008    67App    4.316719    68App    4.358343  
      69App    4.422970    88Ap     4.423623    70App    4.441464  
      89Ap     4.516491    71App    4.517881    72App    4.578868  
      90Ap     4.579103    91Ap     4.617934    92Ap     4.710738  
      93Ap     4.774934    73App    4.775838    74App    4.838220  
      94Ap     4.961557    95Ap     5.001326    75App    5.002816  
      96Ap     5.227481    97Ap     5.244467    76App    5.248577  
      98Ap     5.354504    77App    5.356889    78App    5.480596  

    Beta Occupied:                                                        

       1Ap   -10.167860     1App  -10.167823     2Ap   -10.167803  
       3Ap   -10.166479     4Ap    -0.781334     5Ap    -0.683999  
       2App   -0.683989     6Ap    -0.511961     3App   -0.431107  
       7Ap    -0.431079     8Ap    -0.421786     4App   -0.376574  
       9Ap    -0.376484     5App   -0.362390    10Ap    -0.333321  
       6App   -0.333271  

    Beta Virtual:                                                         

      11Ap    -0.025913    12Ap     0.077076    13Ap     0.134838  
       7App    0.135153    14Ap     0.144329     8App    0.144401  
      15Ap     0.163486    16Ap     0.182196     9App    0.182404  
      10App    0.214910    17Ap     0.219171    11App    0.282475  
      18Ap     0.282635    12App    0.400368    19Ap     0.400428  
      20Ap     0.419707    21Ap     0.426772    13App    0.426941  
      22Ap     0.468758    14App    0.497496    23Ap     0.497798  
      15App    0.513850    24Ap     0.556236    25Ap     0.584157  
      16App    0.584486    26Ap     0.597527    17App    0.597875  
      27Ap     0.609952    28Ap     0.628055    18App    0.631695  
      29Ap     0.639502    19App    0.639720    30Ap     0.666765  
      20App    0.667434    21App    0.686329    31Ap     0.686642  
      32Ap     0.757309    22App    0.830582    33Ap     0.830632  
      23App    0.855424    34Ap     0.922754    24App    0.923149  
      25App    0.946016    35Ap     0.953864    36Ap     0.966396  
      26App    0.966692    37Ap     1.008513    27App    1.132204  
      38Ap     1.132211    39Ap     1.156044    40Ap     1.167566  
      28App    1.167891    41Ap     1.232668    42Ap     1.280070  
      29App    1.280407    43Ap     1.285266    44Ap     1.329527  
      30App    1.329610    45Ap     1.365717    31App    1.371341  
      46Ap     1.371405    32App    1.393027    47Ap     1.406341  
      33App    1.407337    34App    1.421604    48Ap     1.422701  
      35App    1.427915    36App    1.493074    49Ap     1.508959  
      50Ap     1.546982    37App    1.547869    38App    1.582255  
      51Ap     1.582547    52Ap     1.673876    53Ap     1.745484  
      39App    1.745839    54Ap     1.779142    40App    1.834038  
      55Ap     1.835666    41App    1.973181    56Ap     2.025781  
      42App    2.026723    57Ap     2.039463    58Ap     2.058870  
      43App    2.060664    59Ap     2.746567    44App    2.747364  
      45App    2.811923    60Ap     2.816250    46App    2.902652  
      61Ap     2.902761    62Ap     2.925095    63Ap     2.931803  
      47App    2.931891    48App    2.960008    64Ap     2.968578  
      49App    2.969272    65Ap     3.042166    66Ap     3.081083  
      50App    3.081262    51App    3.086614    52App    3.184223  
      67Ap     3.184847    68Ap     3.188857    53App    3.289495  
      69Ap     3.290167    54App    3.330979    70Ap     3.331427  
      71Ap     3.383377    55App    3.492855    72Ap     3.493111  
      56App    3.512525    73Ap     3.528681    57App    3.574860  
      58App    3.581743    74Ap     3.582082    75Ap     3.669396  
      59App    3.670948    76Ap     3.692373    60App    3.725595  
      77Ap     3.725944    78Ap     3.781380    61App    3.781520  
      79Ap     3.817319    62App    3.922985    80Ap     3.923229  
      81Ap     4.045806    82Ap     4.117556    63App    4.118430  
      64App    4.154730    83Ap     4.155781    84Ap     4.188016  
      65App    4.208781    85Ap     4.210154    86Ap     4.211931  
      66App    4.215761    87Ap     4.322355    67App    4.324065  
      68App    4.361727    69App    4.431252    88Ap     4.431905  
      70App    4.444345    89Ap     4.524343    71App    4.525736  
      72App    4.589476    90Ap     4.589733    91Ap     4.625148  
      92Ap     4.721085    93Ap     4.781885    73App    4.782789  
      74App    4.841134    94Ap     4.966375    95Ap     5.005408  
      75App    5.006860    96Ap     5.233212    97Ap     5.246274  
      76App    5.250360    98Ap     5.361003    77App    5.363408  
      78App    5.482925  

    Final Occupation by Irrep:
             Ap   App 
    DOCC [    10,    6 ]
    SOCC [     1,    0 ]

  @DF-UKS Final Energy:  -157.81308346205239

   => Energetics <=

    Nuclear Repulsion Energy =            125.4225870536474190
    One-Electron Energy =                -458.8039112664460504
    Two-Electron Energy =                 195.8752702538438655
    DFT Exchange-Correlation Energy =     -20.3070295030976276
    Empirical Dispersion Energy =           0.0000000000000000
    VV10 Nonlocal Energy =                  0.0000000000000000
    Total Energy =                       -157.8130834620523899

  UHF NO Occupations:
  HONO-2 :    9 Ap 1.9995992
  HONO-1 :   10 Ap 1.9989827
  HONO-0 :   11 Ap 1.0000000
  LUNO+0 :   12 Ap 0.0010173
  LUNO+1 :   13 Ap 0.0004008
  LUNO+2 :   14 Ap 0.0001968
  LUNO+3 :    7App 0.0001968


Computation Completed


Properties will be evaluated at   0.000000,   0.000000,   0.000000 [a0]

Properties computed using the SCF density matrix

  Nuclear Dipole Moment: [e a0]
     X:     0.8280      Y:    -0.0017      Z:     0.0000

  Electronic Dipole Moment: [e a0]
     X:    -0.7502      Y:     0.0023      Z:     0.0000

  Dipole Moment: [e a0]
     X:     0.0778      Y:     0.0006      Z:     0.0000     Total:     0.0778

  Dipole Moment: [D]
     X:     0.1977      Y:     0.0016      Z:     0.0000     Total:     0.1977


*** tstop() called on n032 at Fri Nov  5 13:21:31 2021
Module time:
	user time   =     634.65 seconds =      10.58 minutes
	system time =      12.21 seconds =       0.20 minutes
	total time  =        163 seconds =       2.72 minutes
Total time:
	user time   =     634.65 seconds =      10.58 minutes
	system time =      12.21 seconds =       0.20 minutes
	total time  =        163 seconds =       2.72 minutes
Grab this energy -157.8130834620524
    Psi4 stopped on: Friday, 05 November 2021 01:21PM
    Psi4 wall time for execution: 0:02:42.69

*** Psi4 exiting successfully. Buy a developer a beer!
