
    -----------------------------------------------------------------------
          Psi4: An Open-Source Ab Initio Electronic Structure Package
                               Psi4 1.4a2.dev629 

                         Git: Rev {master} 2938fc2 dirty


    D. G. A. Smith, L. A. Burns, A. C. Simmonett, R. M. Parrish,
    M. C. Schieber, R. Galvelis, P. Kraus, H. Kruse, R. Di Remigio,
    A. Alenaizan, A. M. James, S. Lehtola, J. P. Misiewicz, M. Scheurer,
    R. A. Shaw, J. B. Schriber, Y. Xie, Z. L. Glick, D. A. Sirianni,
    J. S. O'Brien, J. M. Waldrop, A. Kumar, E. G. Hohenstein,
    B. P. Pritchard, B. R. Brooks, H. F. Schaefer III, A. Yu. Sokolov,
    K. Patkowski, A. E. DePrince III, U. Bozkaya, R. A. King,
    F. A. Evangelista, J. M. Turney, T. D. Crawford, C. D. Sherrill,
    J. Chem. Phys. 152(18) 184108 (2020). https://doi.org/10.1063/5.0006002

                            Additional Code Authors
    E. T. Seidl, C. L. Janssen, E. F. Valeev, M. L. Leininger,
    J. F. Gonthier, R. M. Richard, H. R. McAlexander, M. Saitow, X. Wang,
    P. Verma, and M. H. Lechner

             Previous Authors, Complete List of Code Contributors,
                       and Citations for Specific Modules
    https://github.com/psi4/psi4/blob/master/codemeta.json
    https://github.com/psi4/psi4/graphs/contributors
    http://psicode.org/psi4manual/master/introduction.html#citing-psifour

    -----------------------------------------------------------------------


    Psi4 started on: Friday, 05 November 2021 02:52PM

    Process ID: 5772
    Host:       n079
    PSIDATADIR: /opt/psi/4/master/share/psi4
    Memory:     500.0 MiB
    Threads:    4
    
  ==> Input File <==

--------------------------------------------------------------------------
import os
memory 14 GB 
 
molecule {
 C   -0.3223081194    0.0049897154    0.0000000000
 C    0.0625014516   -1.4034917998   -2.4201108505
 C    0.0614791137    2.8095128317   -0.0000000000
 C    0.0625014516   -1.4034917998    2.4201108505
 H    2.0840121536   -1.6499386963   -2.8382738692
 H   -0.7615355205   -0.3948005396   -4.0249811858
 H   -0.7664754434   -3.2958720079   -2.3348433924
 H    2.0827103801    3.2968337168   -0.0000000000
 H   -0.7657472667    3.6884227549    1.6790476160
 H   -0.7657472667    3.6884227549   -1.6790476160
 H    2.0840121536   -1.6499386963    2.8382738692
 H   -0.7664754434   -3.2958720079    2.3348433924
 H   -0.7615355205   -0.3948005396    4.0249811858
units bohr
0 2
}

basis {

assign 6-31g_2dfp_

[ 6-31g_2dfp_ ]

spherical

!----------------------------------------------------------------------
! Basis Set Exchange
! Version v0.8.13
! https://www.basissetexchange.org
!----------------------------------------------------------------------
!   Basis set: 6-31G(2df,p)
! Description: 6-31G(2df,p)
!        Role: orbital
!     Version: 0  (Data from the original Basis Set Exchange)
!----------------------------------------------------------------------


****
H     0
S    3   1.00
     18.7311370              0.03349460
      2.8253937              0.23472695
      0.6401217              0.81375733
S    1   1.00
      0.1612778              1.00000000
P    1   1.00
      1.5000000              1.0000000
P    1   1.00
      0.3750000              1.0000000
****
B     0
S    6   1.00
   2068.8823000              0.0018663
    310.6495700              0.0142515
     70.6830330              0.0695516
     19.8610800              0.2325729
      6.2993048              0.4670787
      2.1270270              0.3634314
SP   3   1.00
      4.7279710             -0.1303938              0.0745976
      1.1903377             -0.1307889              0.3078467
      0.3594117              1.1309444              0.7434568
SP   1   1.00
      0.1267512              1.0000000              1.0000000
D    1   1.00
      0.8020000              1.0000000
D    1   1.00
      0.2005000              1.0000000
F    1   1.00
      0.5000000              1.0000000
****
C     0
S    6   1.00
   3047.5249000              0.0018347
    457.3695100              0.0140373
    103.9486900              0.0688426
     29.2101550              0.2321844
      9.2866630              0.4679413
      3.1639270              0.3623120
SP   3   1.00
      7.8682724             -0.1193324              0.0689991
      1.8812885             -0.1608542              0.3164240
      0.5442493              1.1434564              0.7443083
SP   1   1.00
      0.1687144              1.0000000              1.0000000
D    1   1.00
      1.2520000              1.0000000
D    1   1.00
      0.3130000              1.0000000
F    1   1.00
      0.8000000              1.0000000
****
N     0
S    6   1.00
   4173.5110000              0.0018348
    627.4579000              0.0139950
    142.9021000              0.0685870
     40.2343300              0.2322410
     12.8202100              0.4690700
      4.3904370              0.3604550
SP   3   1.00
     11.6263580             -0.1149610              0.0675800
      2.7162800             -0.1691180              0.3239070
      0.7722180              1.1458520              0.7408950
SP   1   1.00
      0.2120313              1.0000000              1.0000000
D    1   1.00
      1.8260000              1.0000000
D    1   1.00
      0.4565000              1.0000000
F    1   1.00
      1.0000000              1.0000000
****
O     0
S    6   1.00
   5484.6717000              0.0018311
    825.2349500              0.0139501
    188.0469600              0.0684451
     52.9645000              0.2327143
     16.8975700              0.4701930
      5.7996353              0.3585209
SP   3   1.00
     15.5396160             -0.1107775              0.0708743
      3.5999336             -0.1480263              0.3397528
      1.0137618              1.1307670              0.7271586
SP   1   1.00
      0.2700058              1.0000000              1.0000000
D    1   1.00
      2.5840000              1.0000000
D    1   1.00
      0.6460000              1.0000000
F    1   1.00
      1.4000000              1.0000000
****
F     0
S    6   1.00
   7001.7130900              0.0018196169
   1051.3660900              0.0139160796
    239.2856900              0.0684053245
     67.3974453              0.233185760
     21.5199573              0.471267439
      7.40310130             0.356618546
SP   3   1.00
     20.8479528             -0.108506975            0.0716287243
      4.80830834            -0.146451658            0.3459121030
      1.34406986             1.128688580            0.7224699570
SP   1   1.00
      0.358151393            1.0000000              1.0000000
D    1   1.00
      3.5000000              1.0000000
D    1   1.00
      0.8750000              1.0000000
F    1   1.00
      1.8500000              1.0000000
****
Al     0
S    6   1.00
  13983.1000000              0.00194267
   2098.7500000              0.0148599
    477.7050000              0.0728494
    134.3600000              0.2468300
     42.8709000              0.4872580
     14.5189000              0.3234960
SP   6   1.00
    239.6680000             -0.00292619             0.00460285
     57.4419000             -0.0374080              0.0331990
     18.2859000             -0.1144870              0.1362820
      6.5991400              0.1156350              0.3304760
      2.4904900              0.6125950              0.4491460
      0.9445400              0.3937990              0.2657040
SP   3   1.00
      1.2779000             -0.2276060             -0.0175130
      0.3975900              0.00144583             0.2445330
      0.1600950              1.0927900              0.8049340
SP   1   1.00
      0.0556577              1.0000000              1.0000000
D    1   1.00
      0.6500000              1.0000000
D    1   1.00
      0.1625000              1.0000000
F    1   1.00
      0.2500000              1.0000000
****
Si     0
S    6   1.00
  16115.9000000              0.00195948
   2425.5800000              0.01492880
    553.8670000              0.07284780
    156.3400000              0.24613000
     50.0683000              0.48591400
     17.0178000              0.32500200
SP   6   1.00
    292.7180000             -0.00278094             0.00443826
     69.8731000             -0.03571460             0.03266790
     22.3363000             -0.11498500             0.13472100
      8.1503900              0.09356340             0.32867800
      3.1345800              0.60301700             0.44964000
      1.2254300              0.41895900             0.26137200
SP   3   1.00
      1.7273800             -0.24463000            -0.01779510
      0.5729220              0.00431572             0.25353900
      0.2221920              1.09818000             0.80066900
SP   1   1.00
      0.0778369              1.00000000             1.00000000
D    1   1.00
      0.9000000              1.0000000
D    1   1.00
      0.2250000              1.0000000
F    1   1.00
      0.3200000              1.0000000
****
P     0
S    6   1.00
  19413.3000000              0.0018516
   2909.4200000              0.0142062
    661.3640000              0.0699995
    185.7590000              0.2400790
     59.1943000              0.4847620
     20.0310000              0.3352000
SP   6   1.00
    339.4780000             -0.00278217             0.00456462
     81.0101000             -0.0360499              0.03369360
     25.8780000             -0.1166310              0.13975500
      9.4522100              0.0968328              0.33936200
      3.6656600              0.6144180              0.45092100
      1.4674600              0.4037980              0.23858600
SP   3   1.00
      2.1562300             -0.2529230             -0.01776530
      0.7489970              0.0328517              0.27405800
      0.2831450              1.0812500              0.78542100
SP   1   1.00
      0.0998317              1.0000000              1.00000000
D    1   1.00
      1.1000000              1.0000000
D    1   1.00
      0.2750000              1.0000000
F    1   1.00
      0.4500000              1.0000000
****
S     0
S    6   1.00
  21917.1000000              0.0018690
   3301.4900000              0.0142300
    754.1460000              0.0696960
    212.7110000              0.2384870
     67.9896000              0.4833070
     23.0515000              0.3380740
SP   6   1.00
    423.7350000             -0.0023767              0.0040610
    100.7100000             -0.0316930              0.0306810
     32.1599000             -0.1133170              0.1304520
     11.8079000              0.0560900              0.3272050
      4.6311000              0.5922550              0.4528510
      1.8702500              0.4550060              0.2560420
SP   3   1.00
      2.6158400             -0.2503740             -0.0145110
      0.9221670              0.0669570              0.3102630
      0.3412870              1.0545100              0.7544830
SP   1   1.00
      0.1171670              1.0000000              1.0000000
D    1   1.00
      1.3000000              1.0000000
D    1   1.00
      0.3250000              1.0000000
F    1   1.00
      0.5500000              1.0000000
****
Cl     0
S    6   1.00
  25180.1000000              0.0018330
   3780.3500000              0.0140340
    860.4740000              0.0690970
    242.1450000              0.2374520
     77.3349000              0.4830340
     26.2470000              0.3398560
SP   6   1.00
    491.7650000             -0.0022974              0.0039894
    116.9840000             -0.0307140              0.0303180
     37.4153000             -0.1125280              0.1298800
     13.7834000              0.0450160              0.3279510
      5.4521500              0.5893530              0.4535270
      2.2258800              0.4652060              0.2521540
SP   3   1.00
      3.1864900             -0.2518300             -0.0142990
      1.1442700              0.0615890              0.3235720
      0.4203770              1.0601800              0.7435070
SP   1   1.00
      0.1426570              1.0000000              1.0000000
D    1   1.00
      1.5000000              1.0000000
D    1   1.00
      0.3750000              1.0000000
F    1   1.00
      0.7000000              1.0000000
****
}


set {
reference uhf                          
freeze_core true
e_convergence 10                       
d_convergence 10                      
dft_spherical_points 1202
dft_radial_points 99
}

e = energy('b3lyp')

print_out('Grab this energy {0}'.format(e))
--------------------------------------------------------------------------

  Memory set to  13.039 GiB by Python driver.

Scratch directory: /tmp/

*** tstart() called on n079
*** at Fri Nov  5 14:52:17 2021

   => Loading Basis Set <=

    Name: ANONYMOUS11A6E026
    Role: ORBITAL
    Keyword: BASIS
    atoms 1-4  entry C          line    48 inputblock 6-31g_2dfp_ 
    atoms 5-13 entry H          line    15 inputblock 6-31g_2dfp_ 


         ---------------------------------------------------------
                                   SCF
               by Justin Turney, Rob Parrish, Andy Simmonett
                          and Daniel G. A. Smith
                              UKS Reference
                        4 Threads,  13351 MiB Core
         ---------------------------------------------------------

  ==> Geometry <==

    Molecular point group: cs
    Full point group: Cs

    Geometry (in Bohr), charge = 0, multiplicity = 2:

       Center              X                  Y                   Z               Mass       
    ------------   -----------------  -----------------  -----------------  -----------------
         C           -0.323119743496     0.003541941315     0.000000000000    12.000000000000
         C            0.061689827504    -1.404939573885    -2.420110850500    12.000000000000
         C            0.060667489604     2.808065057615     0.000000000000    12.000000000000
         C            0.061689827504    -1.404939573885     2.420110850500    12.000000000000
         H            2.083200529504    -1.651386470385    -2.838273869200     1.007825032230
         H           -0.762347144596    -0.396248313685    -4.024981185800     1.007825032230
         H           -0.767287067496    -3.297319781985    -2.334843392400     1.007825032230
         H            2.081898756004     3.295385942715     0.000000000000     1.007825032230
         H           -0.766558890796     3.686974980815     1.679047616000     1.007825032230
         H           -0.766558890796     3.686974980815    -1.679047616000     1.007825032230
         H            2.083200529504    -1.651386470385     2.838273869200     1.007825032230
         H           -0.767287067496    -3.297319781985     2.334843392400     1.007825032230
         H           -0.762347144596    -0.396248313685     4.024981185800     1.007825032230

  Running in cs symmetry.

  Rotational constants: A =      0.26854  B =      0.26623  C =      0.14534 [cm^-1]
  Rotational constants: A =   8050.55710  B =   7981.52312  C =   4357.19580 [MHz]
  Nuclear repulsion =  125.400257479964637

  Charge       = 0
  Multiplicity = 2
  Electrons    = 33
  Nalpha       = 17
  Nbeta        = 16

  ==> Algorithm <==

  SCF Algorithm Type is DF.
  DIIS enabled.
  MOM disabled.
  Fractional occupation disabled.
  Guess Type is SAD.
  Energy threshold   = 1.00e-10
  Density threshold  = 1.00e-10
  Integral threshold = 0.00e+00

  ==> Primary Basis <==

  Basis Set: ANONYMOUS11A6E026
    Blend: 6-31G_2DFP_
    Number of shells: 68
    Number of basis function: 176
    Number of Cartesian functions: 196
    Spherical Harmonics?: true
    Max angular momentum: 3

  ==> DFT Potential <==

   => Composite Functional: B3LYP <= 

    B3LYP Hyb-GGA Exchange-Correlation Functional

    P. J. Stephens, F. J. Devlin, C. F. Chabalowski, and M. J. Frisch, J. Phys. Chem. 98, 11623 (1994)

    Deriv               =              1
    GGA                 =           TRUE
    Meta                =          FALSE

    Exchange Hybrid     =           TRUE
    MP2 Hybrid          =          FALSE

   => Exchange Functionals <=

    0.0800   Slater exchange
    0.7200         Becke 88

   => Exact (HF) Exchange <=

    0.2000               HF 

   => Correlation Functionals <=

    0.1900   Vosko, Wilk & Nusair (VWN5_RPA)
    0.8100   Lee, Yang & Parr

   => Molecular Quadrature <=

    Radial Scheme          =       TREUTLER
    Pruning Scheme         =           NONE
    Nuclear Scheme         =       TREUTLER

    BS radius alpha        =              1
    Pruning alpha          =              1
    Radial Points          =             99
    Spherical Points       =           1202
    Total Points           =        1442215
    Total Blocks           =           9517
    Max Points             =            256
    Max Functions          =            176
    Weights Tolerance      =       1.00E-15

   => Loading Basis Set <=

    Name: (ANONYMOUS11A6E026 AUX)
    Role: JKFIT
    Keyword: DF_BASIS_SCF
    atoms 1-4  entry C          line   198 file /opt/psi/4/master/share/psi4/basis/def2-universal-jkfit.gbs 
    atoms 5-13 entry H          line    18 file /opt/psi/4/master/share/psi4/basis/def2-universal-jkfit.gbs 

  ==> Integral Setup <==

  DFHelper Memory: AOs need 0.114 GiB; user supplied 3.915 GiB. Using in-core AOs.

  ==> MemDFJK: Density-Fitted J/K Matrices <==

    J tasked:                   Yes
    K tasked:                   Yes
    wK tasked:                   No
    OpenMP threads:               4
    Memory [MiB]:              4009
    Algorithm:                 Core
    Schwarz Cutoff:           1E-12
    Mask sparsity (%):       1.3171
    Fitting Condition:        1E-10

   => Auxiliary Basis Set <=

  Basis Set: (ANONYMOUS11A6E026 AUX)
    Blend: DEF2-UNIVERSAL-JKFIT
    Number of shells: 154
    Number of basis function: 462
    Number of Cartesian functions: 536
    Spherical Harmonics?: true
    Max angular momentum: 4

  Cached 100.0% of DFT collocation blocks in 5.864 [GiB].

  Minimum eigenvalue in the overlap matrix is 1.2207144744E-03.
  Reciprocal condition number of the overlap matrix is 2.1942406930E-04.
    Using symmetric orthogonalization.

  ==> Pre-Iterations <==

  SCF Guess: Superposition of Atomic Densities via on-the-fly atomic UHF (no occupation information).

   -------------------------
    Irrep   Nso     Nmo    
   -------------------------
     A'        98      98 
     A"        78      78 
   -------------------------
    Total     176     176
   -------------------------

  ==> Iterations <==

                           Total Energy        Delta E     RMS |[F,P]|

   @DF-UKS iter SAD:  -157.07690618100582   -1.57077e+02   0.00000e+00 
   @DF-UKS iter   1:  -157.41661251863806   -3.39706e-01   6.77580e-03 DIIS
   @DF-UKS iter   2:  -157.26079419077419    1.55818e-01   7.78484e-03 DIIS
   @DF-UKS iter   3:  -157.80976159436520   -5.48967e-01   6.17828e-04 DIIS
   @DF-UKS iter   4:  -157.81214509978849   -2.38351e-03   3.38794e-04 DIIS
   @DF-UKS iter   5:  -157.81303899281338   -8.93893e-04   3.16255e-05 DIIS
   @DF-UKS iter   6:  -157.81304922801570   -1.02352e-05   1.15712e-05 DIIS
   @DF-UKS iter   7:  -157.81305084651297   -1.61850e-06   3.91791e-06 DIIS
   @DF-UKS iter   8:  -157.81305106499497   -2.18482e-07   1.05604e-06 DIIS
   @DF-UKS iter   9:  -157.81305108504714   -2.00522e-08   1.83265e-07 DIIS
   @DF-UKS iter  10:  -157.81305108569921   -6.52079e-10   1.02292e-07 DIIS
   @DF-UKS iter  11:  -157.81305108578755   -8.83347e-11   3.31896e-08 DIIS
   @DF-UKS iter  12:  -157.81305108580040   -1.28466e-11   3.93341e-09 DIIS
   @DF-UKS iter  13:  -157.81305108580051   -1.13687e-13   1.39885e-09 DIIS
   @DF-UKS iter  14:  -157.81305108580042    8.52651e-14   2.62656e-10 DIIS
   @DF-UKS iter  15:  -157.81305108580059   -1.70530e-13   4.13010e-11 DIIS
  Energy and wave function converged.


  ==> Post-Iterations <==

   @Spin Contamination Metric:   4.049892704E-03
   @S^2 Expected:                7.500000000E-01
   @S^2 Observed:                7.540498927E-01
   @S   Expected:                5.000000000E-01
   @S   Observed:                5.000000000E-01

    Orbital Energies [Eh]
    ---------------------

    Alpha Occupied:                                                       

       1Ap   -10.180284     2Ap   -10.167325     1App  -10.166871  
       3Ap   -10.166839     4Ap    -0.797807     5Ap    -0.686414  
       2App   -0.685971     6Ap    -0.530788     7Ap    -0.441222  
       8Ap    -0.434893     3App   -0.434363     9Ap    -0.382881  
       4App   -0.382587     5App   -0.363432    10Ap    -0.338221  
       6App   -0.337667    11Ap    -0.168925  

    Alpha Virtual:                                                        

      12Ap     0.075986    13Ap     0.133904     7App    0.134391  
      14Ap     0.142426     8App    0.142699    15Ap     0.155046  
      16Ap     0.178731     9App    0.179183    17Ap     0.203586  
      10App    0.214533    18Ap     0.275843    11App    0.276180  
      19Ap     0.399144    12App    0.399489    20Ap     0.403495  
      21Ap     0.423778    13App    0.424050    22Ap     0.456672  
      23Ap     0.494806    14App    0.495607    15App    0.512291  
      24Ap     0.514140    25Ap     0.578723    16App    0.579213  
      26Ap     0.591869    17App    0.591947    27Ap     0.603326  
      28Ap     0.624267    18App    0.631382    19App    0.635657  
      29Ap     0.636099    30Ap     0.663694    20App    0.664125  
      31Ap     0.683357    21App    0.683856    32Ap     0.734932  
      33Ap     0.824610    22App    0.826255    23App    0.854194  
      34Ap     0.914999    24App    0.915500    25App    0.943765  
      35Ap     0.944377    26App    0.961224    36Ap     0.961767  
      37Ap     1.003656    38Ap     1.126693    27App    1.129050  
      39Ap     1.142933    40Ap     1.162503    28App    1.163496  
      41Ap     1.222919    42Ap     1.274221    29App    1.275258  
      43Ap     1.279513    30App    1.324471    44Ap     1.324655  
      45Ap     1.355453    46Ap     1.365387    31App    1.366790  
      32App    1.392490    47Ap     1.404285    33App    1.405921  
      48Ap     1.415679    34App    1.416626    35App    1.428142  
      36App    1.491455    49Ap     1.500016    50Ap     1.542820  
      37App    1.543595    51Ap     1.572230    38App    1.576029  
      52Ap     1.668555    53Ap     1.739174    39App    1.741330  
      54Ap     1.770198    55Ap     1.829491    40App    1.830518  
      41App    1.970706    56Ap     2.017551    57Ap     2.018381  
      42App    2.020317    58Ap     2.051437    43App    2.056682  
      59Ap     2.737897    44App    2.738437    60Ap     2.791315  
      45App    2.810983    46App    2.890234    61Ap     2.890417  
      62Ap     2.895278    63Ap     2.929110    47App    2.929463  
      48App    2.959129    64Ap     2.963897    49App    2.965737  
      65Ap     3.034712    66Ap     3.070340    50App    3.072260  
      51App    3.082993    67Ap     3.168131    52App    3.169727  
      68Ap     3.180614    53App    3.284704    69Ap     3.286106  
      70Ap     3.325582    54App    3.327496    71Ap     3.375485  
      72Ap     3.489907    55App    3.490815    56App    3.515246  
      73Ap     3.524116    74Ap     3.567709    57App    3.569724  
      58App    3.576213    75Ap     3.666638    59App    3.666896  
      76Ap     3.679045    60App    3.693494    77Ap     3.694350  
      61App    3.775593    78Ap     3.777094    79Ap     3.790072  
      80Ap     3.910243    62App    3.913105    81Ap     4.034004  
      82Ap     4.110058    63App    4.112773    83Ap     4.146998  
      64App    4.150350    84Ap     4.174903    85Ap     4.200560  
      86Ap     4.202838    65App    4.203839    66App    4.212087  
      67App    4.316412    87Ap     4.316424    68App    4.357789  
      88Ap     4.425047    69App    4.425197    70App    4.443323  
      89Ap     4.516687    71App    4.518341    90Ap     4.576503  
      72App    4.578671    91Ap     4.617631    92Ap     4.709995  
      93Ap     4.773191    73App    4.775792    74App    4.835578  
      94Ap     4.962556    95Ap     5.003295    75App    5.005233  
      96Ap     5.230776    76App    5.243661    97Ap     5.243989  
      98Ap     5.356792    77App    5.358197    78App    5.477383  

    Beta Occupied:                                                        

       1Ap   -10.168080     1App  -10.167623     2Ap   -10.167607  
       3Ap   -10.166455     4Ap    -0.781126     5Ap    -0.684208  
       2App   -0.683758     6Ap    -0.511710     7Ap    -0.431249  
       3App   -0.430701     8Ap    -0.421978     9Ap    -0.377001  
       4App   -0.376688     5App   -0.362407    10Ap    -0.333351  
       6App   -0.332790  

    Beta Virtual:                                                         

      11Ap    -0.025616    12Ap     0.076980    13Ap     0.134718  
       7App    0.135223    14Ap     0.144324     8App    0.144586  
      15Ap     0.163485    16Ap     0.182421     9App    0.182892  
      10App    0.214770    17Ap     0.218970    18Ap     0.282174  
      11App    0.282535    19Ap     0.400389    12App    0.400633  
      20Ap     0.419786    21Ap     0.426575    13App    0.426876  
      22Ap     0.468682    23Ap     0.497057    14App    0.497862  
      15App    0.514019    24Ap     0.556520    25Ap     0.584275  
      16App    0.584706    26Ap     0.598042    17App    0.598147  
      27Ap     0.610607    28Ap     0.627790    18App    0.631541  
      19App    0.638964    29Ap     0.639439    30Ap     0.667201  
      20App    0.667682    31Ap     0.685952    21App    0.686557  
      32Ap     0.757458    33Ap     0.829747    22App    0.831410  
      23App    0.855539    34Ap     0.922937    24App    0.923466  
      25App    0.945632    35Ap     0.953245    26App    0.966491  
      36Ap     0.967175    37Ap     1.008934    38Ap     1.130695  
      27App    1.133033    39Ap     1.156225    40Ap     1.167573  
      28App    1.168626    41Ap     1.231905    42Ap     1.279839  
      29App    1.280881    43Ap     1.285323    30App    1.329399  
      44Ap     1.329612    45Ap     1.364889    46Ap     1.370459  
      31App    1.372060    32App    1.393535    47Ap     1.407838  
      33App    1.409406    48Ap     1.420763    34App    1.421713  
      35App    1.428407    36App    1.492533    49Ap     1.510452  
      50Ap     1.547082    37App    1.548080    51Ap     1.580279  
      38App    1.583762    52Ap     1.673352    53Ap     1.744947  
      39App    1.747092    54Ap     1.780989    55Ap     1.833327  
      40App    1.834390    41App    1.971582    56Ap     2.024044  
      42App    2.026915    57Ap     2.039742    58Ap     2.058125  
      43App    2.063189    59Ap     2.746180    44App    2.746809  
      45App    2.811393    60Ap     2.816488    46App    2.902984  
      61Ap     2.903096    62Ap     2.925180    63Ap     2.931685  
      47App    2.931852    48App    2.960198    64Ap     2.968509  
      49App    2.970280    65Ap     3.042435    66Ap     3.080154  
      50App    3.082040    51App    3.085069    67Ap     3.183973  
      52App    3.185340    68Ap     3.188310    53App    3.289537  
      69Ap     3.290813    70Ap     3.329417    54App    3.331345  
      71Ap     3.383327    72Ap     3.492685    55App    3.493570  
      56App    3.513622    73Ap     3.527184    57App    3.575630  
      74Ap     3.580871    58App    3.583337    75Ap     3.671455  
      59App    3.671767    76Ap     3.692368    60App    3.725168  
      77Ap     3.725925    61App    3.780162    78Ap     3.781784  
      79Ap     3.818517    80Ap     3.920002    62App    3.922865  
      81Ap     4.044829    82Ap     4.116877    63App    4.119576  
      83Ap     4.154272    64App    4.157511    84Ap     4.188936  
      85Ap     4.206374    65App    4.209663    86Ap     4.210862  
      66App    4.216462    67App    4.323896    87Ap     4.323941  
      68App    4.361195    88Ap     4.433288    69App    4.433336  
      70App    4.446309    89Ap     4.524540    71App    4.525991  
      90Ap     4.587066    72App    4.589395    91Ap     4.624918  
      92Ap     4.720223    93Ap     4.780158    73App    4.782828  
      74App    4.838509    94Ap     4.967339    95Ap     5.007310  
      75App    5.009246    96Ap     5.236520    76App    5.245454  
      97Ap     5.245798    98Ap     5.363281    77App    5.364723  
      78App    5.479717  

    Final Occupation by Irrep:
             Ap   App 
    DOCC [    10,    6 ]
    SOCC [     1,    0 ]

  @DF-UKS Final Energy:  -157.81305108580059

   => Energetics <=

    Nuclear Repulsion Energy =            125.4002574799646368
    One-Electron Energy =                -458.7601500359343163
    Two-Electron Energy =                 195.8541017312170425
    DFT Exchange-Correlation Energy =     -20.3072602610479471
    Empirical Dispersion Energy =           0.0000000000000000
    VV10 Nonlocal Energy =                  0.0000000000000000
    Total Energy =                       -157.8130510858005948

  UHF NO Occupations:
  HONO-2 :    9 Ap 1.9996032
  HONO-1 :   10 Ap 1.9989813
  HONO-0 :   11 Ap 1.0000000
  LUNO+0 :   12 Ap 0.0010187
  LUNO+1 :   13 Ap 0.0003968
  LUNO+2 :    7App 0.0001979
  LUNO+3 :   14 Ap 0.0001972


Computation Completed


Properties will be evaluated at   0.000000,   0.000000,   0.000000 [a0]

Properties computed using the SCF density matrix

  Nuclear Dipole Moment: [e a0]
     X:     0.8215      Y:    -0.0102      Z:     0.0000

  Electronic Dipole Moment: [e a0]
     X:    -0.7404      Y:     0.0110      Z:     0.0000

  Dipole Moment: [e a0]
     X:     0.0811      Y:     0.0008      Z:     0.0000     Total:     0.0811

  Dipole Moment: [D]
     X:     0.2061      Y:     0.0019      Z:     0.0000     Total:     0.2062


*** tstop() called on n079 at Fri Nov  5 14:54:23 2021
Module time:
	user time   =     495.24 seconds =       8.25 minutes
	system time =       4.72 seconds =       0.08 minutes
	total time  =        126 seconds =       2.10 minutes
Total time:
	user time   =     495.24 seconds =       8.25 minutes
	system time =       4.72 seconds =       0.08 minutes
	total time  =        126 seconds =       2.10 minutes
Grab this energy -157.8130510858006
    Psi4 stopped on: Friday, 05 November 2021 02:54PM
    Psi4 wall time for execution: 0:02:05.72

*** Psi4 exiting successfully. Buy a developer a beer!
