
    -----------------------------------------------------------------------
          Psi4: An Open-Source Ab Initio Electronic Structure Package
                               Psi4 1.4a2.dev629 

                         Git: Rev {master} 2938fc2 dirty


    D. G. A. Smith, L. A. Burns, A. C. Simmonett, R. M. Parrish,
    M. C. Schieber, R. Galvelis, P. Kraus, H. Kruse, R. Di Remigio,
    A. Alenaizan, A. M. James, S. Lehtola, J. P. Misiewicz, M. Scheurer,
    R. A. Shaw, J. B. Schriber, Y. Xie, Z. L. Glick, D. A. Sirianni,
    J. S. O'Brien, J. M. Waldrop, A. Kumar, E. G. Hohenstein,
    B. P. Pritchard, B. R. Brooks, H. F. Schaefer III, A. Yu. Sokolov,
    K. Patkowski, A. E. DePrince III, U. Bozkaya, R. A. King,
    F. A. Evangelista, J. M. Turney, T. D. Crawford, C. D. Sherrill,
    J. Chem. Phys. 152(18) 184108 (2020). https://doi.org/10.1063/5.0006002

                            Additional Code Authors
    E. T. Seidl, C. L. Janssen, E. F. Valeev, M. L. Leininger,
    J. F. Gonthier, R. M. Richard, H. R. McAlexander, M. Saitow, X. Wang,
    P. Verma, and M. H. Lechner

             Previous Authors, Complete List of Code Contributors,
                       and Citations for Specific Modules
    https://github.com/psi4/psi4/blob/master/codemeta.json
    https://github.com/psi4/psi4/graphs/contributors
    http://psicode.org/psi4manual/master/introduction.html#citing-psifour

    -----------------------------------------------------------------------


    Psi4 started on: Friday, 05 November 2021 11:45AM

    Process ID: 9448
    Host:       n058
    PSIDATADIR: /opt/psi/4/master/share/psi4
    Memory:     500.0 MiB
    Threads:    4
    
  ==> Input File <==

--------------------------------------------------------------------------
import os
memory 14 GB 
 
molecule {
 C   -0.3201719376    0.0010193762    0.0000000000
 C    0.0620908972   -1.4022373812   -2.4256133960
 C    0.0630958115    2.8011856759   -0.0000000000
 C    0.0620908972   -1.4022373812    2.4256133960
 H    2.0866451965   -1.6434152373   -2.8474705079
 H   -0.7661992168   -0.3883804056   -4.0255328534
 H   -0.7666121570   -3.2916211279   -2.3495262675
 H    2.0863873810    3.2879321852    0.0000000000
 H   -0.7668842857    3.6805733766    1.6760015606
 H   -0.7668842857    3.6805733766   -1.6760015606
 H    2.0866451965   -1.6434152373    2.8474705079
 H   -0.7666121570   -3.2916211279    2.3495262675
 H   -0.7661992168   -0.3883804056    4.0255328534
units bohr
0 2
}

basis {

assign 6-31g_2dfp_

[ 6-31g_2dfp_ ]

spherical

!----------------------------------------------------------------------
! Basis Set Exchange
! Version v0.8.13
! https://www.basissetexchange.org
!----------------------------------------------------------------------
!   Basis set: 6-31G(2df,p)
! Description: 6-31G(2df,p)
!        Role: orbital
!     Version: 0  (Data from the original Basis Set Exchange)
!----------------------------------------------------------------------


****
H     0
S    3   1.00
     18.7311370              0.03349460
      2.8253937              0.23472695
      0.6401217              0.81375733
S    1   1.00
      0.1612778              1.00000000
P    1   1.00
      1.5000000              1.0000000
P    1   1.00
      0.3750000              1.0000000
****
B     0
S    6   1.00
   2068.8823000              0.0018663
    310.6495700              0.0142515
     70.6830330              0.0695516
     19.8610800              0.2325729
      6.2993048              0.4670787
      2.1270270              0.3634314
SP   3   1.00
      4.7279710             -0.1303938              0.0745976
      1.1903377             -0.1307889              0.3078467
      0.3594117              1.1309444              0.7434568
SP   1   1.00
      0.1267512              1.0000000              1.0000000
D    1   1.00
      0.8020000              1.0000000
D    1   1.00
      0.2005000              1.0000000
F    1   1.00
      0.5000000              1.0000000
****
C     0
S    6   1.00
   3047.5249000              0.0018347
    457.3695100              0.0140373
    103.9486900              0.0688426
     29.2101550              0.2321844
      9.2866630              0.4679413
      3.1639270              0.3623120
SP   3   1.00
      7.8682724             -0.1193324              0.0689991
      1.8812885             -0.1608542              0.3164240
      0.5442493              1.1434564              0.7443083
SP   1   1.00
      0.1687144              1.0000000              1.0000000
D    1   1.00
      1.2520000              1.0000000
D    1   1.00
      0.3130000              1.0000000
F    1   1.00
      0.8000000              1.0000000
****
N     0
S    6   1.00
   4173.5110000              0.0018348
    627.4579000              0.0139950
    142.9021000              0.0685870
     40.2343300              0.2322410
     12.8202100              0.4690700
      4.3904370              0.3604550
SP   3   1.00
     11.6263580             -0.1149610              0.0675800
      2.7162800             -0.1691180              0.3239070
      0.7722180              1.1458520              0.7408950
SP   1   1.00
      0.2120313              1.0000000              1.0000000
D    1   1.00
      1.8260000              1.0000000
D    1   1.00
      0.4565000              1.0000000
F    1   1.00
      1.0000000              1.0000000
****
O     0
S    6   1.00
   5484.6717000              0.0018311
    825.2349500              0.0139501
    188.0469600              0.0684451
     52.9645000              0.2327143
     16.8975700              0.4701930
      5.7996353              0.3585209
SP   3   1.00
     15.5396160             -0.1107775              0.0708743
      3.5999336             -0.1480263              0.3397528
      1.0137618              1.1307670              0.7271586
SP   1   1.00
      0.2700058              1.0000000              1.0000000
D    1   1.00
      2.5840000              1.0000000
D    1   1.00
      0.6460000              1.0000000
F    1   1.00
      1.4000000              1.0000000
****
F     0
S    6   1.00
   7001.7130900              0.0018196169
   1051.3660900              0.0139160796
    239.2856900              0.0684053245
     67.3974453              0.233185760
     21.5199573              0.471267439
      7.40310130             0.356618546
SP   3   1.00
     20.8479528             -0.108506975            0.0716287243
      4.80830834            -0.146451658            0.3459121030
      1.34406986             1.128688580            0.7224699570
SP   1   1.00
      0.358151393            1.0000000              1.0000000
D    1   1.00
      3.5000000              1.0000000
D    1   1.00
      0.8750000              1.0000000
F    1   1.00
      1.8500000              1.0000000
****
Al     0
S    6   1.00
  13983.1000000              0.00194267
   2098.7500000              0.0148599
    477.7050000              0.0728494
    134.3600000              0.2468300
     42.8709000              0.4872580
     14.5189000              0.3234960
SP   6   1.00
    239.6680000             -0.00292619             0.00460285
     57.4419000             -0.0374080              0.0331990
     18.2859000             -0.1144870              0.1362820
      6.5991400              0.1156350              0.3304760
      2.4904900              0.6125950              0.4491460
      0.9445400              0.3937990              0.2657040
SP   3   1.00
      1.2779000             -0.2276060             -0.0175130
      0.3975900              0.00144583             0.2445330
      0.1600950              1.0927900              0.8049340
SP   1   1.00
      0.0556577              1.0000000              1.0000000
D    1   1.00
      0.6500000              1.0000000
D    1   1.00
      0.1625000              1.0000000
F    1   1.00
      0.2500000              1.0000000
****
Si     0
S    6   1.00
  16115.9000000              0.00195948
   2425.5800000              0.01492880
    553.8670000              0.07284780
    156.3400000              0.24613000
     50.0683000              0.48591400
     17.0178000              0.32500200
SP   6   1.00
    292.7180000             -0.00278094             0.00443826
     69.8731000             -0.03571460             0.03266790
     22.3363000             -0.11498500             0.13472100
      8.1503900              0.09356340             0.32867800
      3.1345800              0.60301700             0.44964000
      1.2254300              0.41895900             0.26137200
SP   3   1.00
      1.7273800             -0.24463000            -0.01779510
      0.5729220              0.00431572             0.25353900
      0.2221920              1.09818000             0.80066900
SP   1   1.00
      0.0778369              1.00000000             1.00000000
D    1   1.00
      0.9000000              1.0000000
D    1   1.00
      0.2250000              1.0000000
F    1   1.00
      0.3200000              1.0000000
****
P     0
S    6   1.00
  19413.3000000              0.0018516
   2909.4200000              0.0142062
    661.3640000              0.0699995
    185.7590000              0.2400790
     59.1943000              0.4847620
     20.0310000              0.3352000
SP   6   1.00
    339.4780000             -0.00278217             0.00456462
     81.0101000             -0.0360499              0.03369360
     25.8780000             -0.1166310              0.13975500
      9.4522100              0.0968328              0.33936200
      3.6656600              0.6144180              0.45092100
      1.4674600              0.4037980              0.23858600
SP   3   1.00
      2.1562300             -0.2529230             -0.01776530
      0.7489970              0.0328517              0.27405800
      0.2831450              1.0812500              0.78542100
SP   1   1.00
      0.0998317              1.0000000              1.00000000
D    1   1.00
      1.1000000              1.0000000
D    1   1.00
      0.2750000              1.0000000
F    1   1.00
      0.4500000              1.0000000
****
S     0
S    6   1.00
  21917.1000000              0.0018690
   3301.4900000              0.0142300
    754.1460000              0.0696960
    212.7110000              0.2384870
     67.9896000              0.4833070
     23.0515000              0.3380740
SP   6   1.00
    423.7350000             -0.0023767              0.0040610
    100.7100000             -0.0316930              0.0306810
     32.1599000             -0.1133170              0.1304520
     11.8079000              0.0560900              0.3272050
      4.6311000              0.5922550              0.4528510
      1.8702500              0.4550060              0.2560420
SP   3   1.00
      2.6158400             -0.2503740             -0.0145110
      0.9221670              0.0669570              0.3102630
      0.3412870              1.0545100              0.7544830
SP   1   1.00
      0.1171670              1.0000000              1.0000000
D    1   1.00
      1.3000000              1.0000000
D    1   1.00
      0.3250000              1.0000000
F    1   1.00
      0.5500000              1.0000000
****
Cl     0
S    6   1.00
  25180.1000000              0.0018330
   3780.3500000              0.0140340
    860.4740000              0.0690970
    242.1450000              0.2374520
     77.3349000              0.4830340
     26.2470000              0.3398560
SP   6   1.00
    491.7650000             -0.0022974              0.0039894
    116.9840000             -0.0307140              0.0303180
     37.4153000             -0.1125280              0.1298800
     13.7834000              0.0450160              0.3279510
      5.4521500              0.5893530              0.4535270
      2.2258800              0.4652060              0.2521540
SP   3   1.00
      3.1864900             -0.2518300             -0.0142990
      1.1442700              0.0615890              0.3235720
      0.4203770              1.0601800              0.7435070
SP   1   1.00
      0.1426570              1.0000000              1.0000000
D    1   1.00
      1.5000000              1.0000000
D    1   1.00
      0.3750000              1.0000000
F    1   1.00
      0.7000000              1.0000000
****
}


set {
reference uhf                          
freeze_core true
e_convergence 10                       
d_convergence 10                      
dft_spherical_points 1202
dft_radial_points 99
}

e = energy('b3lyp')

print_out('Grab this energy {0}'.format(e))
--------------------------------------------------------------------------

  Memory set to  13.039 GiB by Python driver.

Scratch directory: /tmp/

*** tstart() called on n058
*** at Fri Nov  5 11:45:17 2021

   => Loading Basis Set <=

    Name: ANONYMOUSFC9CB376
    Role: ORBITAL
    Keyword: BASIS
    atoms 1-4  entry C          line    48 inputblock 6-31g_2dfp_ 
    atoms 5-13 entry H          line    15 inputblock 6-31g_2dfp_ 


         ---------------------------------------------------------
                                   SCF
               by Justin Turney, Rob Parrish, Andy Simmonett
                          and Daniel G. A. Smith
                              UKS Reference
                        4 Threads,  13351 MiB Core
         ---------------------------------------------------------

  ==> Geometry <==

    Molecular point group: cs
    Full point group: Cs

    Geometry (in Bohr), charge = 0, multiplicity = 2:

       Center              X                  Y                   Z               Mass       
    ------------   -----------------  -----------------  -----------------  -----------------
         C           -0.321548241863     0.001456968112     0.000000000000    12.000000000000
         C            0.060714592937    -1.401799789288    -2.425613396000    12.000000000000
         C            0.061719507237     2.801623267812     0.000000000000    12.000000000000
         C            0.060714592937    -1.401799789288     2.425613396000    12.000000000000
         H            2.085268892237    -1.642977645388    -2.847470507900     1.007825032230
         H           -0.767575521063    -0.387942813688    -4.025532853400     1.007825032230
         H           -0.767988461263    -3.291183535988    -2.349526267500     1.007825032230
         H            2.085011076737     3.288369777112     0.000000000000     1.007825032230
         H           -0.768260589963     3.681010968512     1.676001560600     1.007825032230
         H           -0.768260589963     3.681010968512    -1.676001560600     1.007825032230
         H            2.085268892237    -1.642977645388     2.847470507900     1.007825032230
         H           -0.767988461263    -3.291183535988     2.349526267500     1.007825032230
         H           -0.767575521063    -0.387942813688     4.025532853400     1.007825032230

  Running in cs symmetry.

  Rotational constants: A =      0.26745  B =      0.26729  C =      0.14536 [cm^-1]
  Rotational constants: A =   8017.90753  B =   8013.07420  C =   4357.81172 [MHz]
  Nuclear repulsion =  125.403357265894712

  Charge       = 0
  Multiplicity = 2
  Electrons    = 33
  Nalpha       = 17
  Nbeta        = 16

  ==> Algorithm <==

  SCF Algorithm Type is DF.
  DIIS enabled.
  MOM disabled.
  Fractional occupation disabled.
  Guess Type is SAD.
  Energy threshold   = 1.00e-10
  Density threshold  = 1.00e-10
  Integral threshold = 0.00e+00

  ==> Primary Basis <==

  Basis Set: ANONYMOUSFC9CB376
    Blend: 6-31G_2DFP_
    Number of shells: 68
    Number of basis function: 176
    Number of Cartesian functions: 196
    Spherical Harmonics?: true
    Max angular momentum: 3

  ==> DFT Potential <==

   => Composite Functional: B3LYP <= 

    B3LYP Hyb-GGA Exchange-Correlation Functional

    P. J. Stephens, F. J. Devlin, C. F. Chabalowski, and M. J. Frisch, J. Phys. Chem. 98, 11623 (1994)

    Deriv               =              1
    GGA                 =           TRUE
    Meta                =          FALSE

    Exchange Hybrid     =           TRUE
    MP2 Hybrid          =          FALSE

   => Exchange Functionals <=

    0.0800   Slater exchange
    0.7200         Becke 88

   => Exact (HF) Exchange <=

    0.2000               HF 

   => Correlation Functionals <=

    0.1900   Vosko, Wilk & Nusair (VWN5_RPA)
    0.8100   Lee, Yang & Parr

   => Molecular Quadrature <=

    Radial Scheme          =       TREUTLER
    Pruning Scheme         =           NONE
    Nuclear Scheme         =       TREUTLER

    BS radius alpha        =              1
    Pruning alpha          =              1
    Radial Points          =             99
    Spherical Points       =           1202
    Total Points           =        1442226
    Total Blocks           =           9538
    Max Points             =            256
    Max Functions          =            176
    Weights Tolerance      =       1.00E-15

   => Loading Basis Set <=

    Name: (ANONYMOUSFC9CB376 AUX)
    Role: JKFIT
    Keyword: DF_BASIS_SCF
    atoms 1-4  entry C          line   198 file /opt/psi/4/master/share/psi4/basis/def2-universal-jkfit.gbs 
    atoms 5-13 entry H          line    18 file /opt/psi/4/master/share/psi4/basis/def2-universal-jkfit.gbs 

  ==> Integral Setup <==

  DFHelper Memory: AOs need 0.114 GiB; user supplied 3.915 GiB. Using in-core AOs.

  ==> MemDFJK: Density-Fitted J/K Matrices <==

    J tasked:                   Yes
    K tasked:                   Yes
    wK tasked:                   No
    OpenMP threads:               4
    Memory [MiB]:              4008
    Algorithm:                 Core
    Schwarz Cutoff:           1E-12
    Mask sparsity (%):       1.2913
    Fitting Condition:        1E-10

   => Auxiliary Basis Set <=

  Basis Set: (ANONYMOUSFC9CB376 AUX)
    Blend: DEF2-UNIVERSAL-JKFIT
    Number of shells: 154
    Number of basis function: 462
    Number of Cartesian functions: 536
    Spherical Harmonics?: true
    Max angular momentum: 4

  Cached 100.0% of DFT collocation blocks in 5.864 [GiB].

  Minimum eigenvalue in the overlap matrix is 1.2222791449E-03.
  Reciprocal condition number of the overlap matrix is 2.1963675094E-04.
    Using symmetric orthogonalization.

  ==> Pre-Iterations <==

  SCF Guess: Superposition of Atomic Densities via on-the-fly atomic UHF (no occupation information).

   -------------------------
    Irrep   Nso     Nmo    
   -------------------------
     A'        98      98 
     A"        78      78 
   -------------------------
    Total     176     176
   -------------------------

  ==> Iterations <==

                           Total Energy        Delta E     RMS |[F,P]|

   @DF-UKS iter SAD:  -157.07720412185893   -1.57077e+02   0.00000e+00 
   @DF-UKS iter   1:  -157.41653722163966   -3.39333e-01   6.77649e-03 DIIS
   @DF-UKS iter   2:  -157.26061540160228    1.55922e-01   7.78612e-03 DIIS
   @DF-UKS iter   3:  -157.80977517156012   -5.49160e-01   6.18698e-04 DIIS
   @DF-UKS iter   4:  -157.81216665383261   -2.39148e-03   3.38931e-04 DIIS
   @DF-UKS iter   5:  -157.81306121269017   -8.94559e-04   3.16111e-05 DIIS
   @DF-UKS iter   6:  -157.81307144837481   -1.02357e-05   1.15753e-05 DIIS
   @DF-UKS iter   7:  -157.81307306863476   -1.62026e-06   3.92776e-06 DIIS
   @DF-UKS iter   8:  -157.81307328803643   -2.19402e-07   1.06043e-06 DIIS
   @DF-UKS iter   9:  -157.81307330813726   -2.01008e-08   2.01376e-07 DIIS
   @DF-UKS iter  10:  -157.81307330874492   -6.07656e-10   1.50536e-07 DIIS
   @DF-UKS iter  11:  -157.81307330893893   -1.94007e-10   2.65029e-08 DIIS
   @DF-UKS iter  12:  -157.81307330894916   -1.02318e-11   3.75538e-09 DIIS
   @DF-UKS iter  13:  -157.81307330894953   -3.69482e-13   1.14699e-09 DIIS
   @DF-UKS iter  14:  -157.81307330894950    2.84217e-14   2.67815e-10 DIIS
   @DF-UKS iter  15:  -157.81307330894973   -2.27374e-13   4.21100e-11 DIIS
  Energy and wave function converged.


  ==> Post-Iterations <==

   @Spin Contamination Metric:   4.058499331E-03
   @S^2 Expected:                7.500000000E-01
   @S^2 Observed:                7.540584993E-01
   @S   Expected:                5.000000000E-01
   @S   Observed:                5.000000000E-01

    Orbital Energies [Eh]
    ---------------------

    Alpha Occupied:                                                       

       1Ap   -10.180229     2Ap   -10.167029     1App  -10.166991  
       3Ap   -10.166954     4Ap    -0.797820     5Ap    -0.686279  
       2App   -0.686119     6Ap    -0.530754     7Ap    -0.441360  
       3App   -0.434535     8Ap    -0.434516     9Ap    -0.382885  
       4App   -0.382809     5App   -0.363328    10Ap    -0.338243  
       6App   -0.337656    11Ap    -0.168846  

    Alpha Virtual:                                                        

      12Ap     0.076056     7App    0.134109    13Ap     0.134186  
       8App    0.142486    14Ap     0.142609    15Ap     0.154944  
      16Ap     0.178834     9App    0.178932    17Ap     0.203593  
      10App    0.214670    11App    0.275998    18Ap     0.276250  
      12App    0.399141    19Ap     0.399353    20Ap     0.403382  
      21Ap     0.424100    13App    0.424108    22Ap     0.456597  
      23Ap     0.495303    14App    0.495374    15App    0.512265  
      24Ap     0.513976    16App    0.578690    25Ap     0.578765  
      17App    0.591919    26Ap     0.591958    27Ap     0.602882  
      28Ap     0.624618    18App    0.631629    19App    0.636119  
      29Ap     0.636121    20App    0.663494    30Ap     0.663673  
      31Ap     0.683817    21App    0.683841    32Ap     0.735123  
      33Ap     0.825579    22App    0.825582    23App    0.853869  
      34Ap     0.915090    24App    0.915295    25App    0.944230  
      35Ap     0.944630    26App    0.961129    36Ap     0.961271  
      37Ap     1.002573    38Ap     1.127849    27App    1.127895  
      39Ap     1.142584    40Ap     1.163405    28App    1.163451  
      41Ap     1.223742    29App    1.274598    42Ap     1.274952  
      43Ap     1.279504    30App    1.324183    44Ap     1.324302  
      45Ap     1.357027    46Ap     1.365467    31App    1.365946  
      32App    1.392358    33App    1.404446    47Ap     1.404911  
      34App    1.417448    48Ap     1.417993    35App    1.428101  
      36App    1.491029    49Ap     1.499584    37App    1.542252  
      50Ap     1.542600    51Ap     1.574057    38App    1.574695  
      52Ap     1.669282    39App    1.739530    53Ap     1.739719  
      54Ap     1.768545    55Ap     1.831009    40App    1.831139  
      41App    1.971165    56Ap     2.018377    57Ap     2.019110  
      42App    2.019777    58Ap     2.052419    43App    2.053614  
      44App    2.738768    59Ap     2.738865    60Ap     2.791145  
      45App    2.811151    46App    2.889464    61Ap     2.890796  
      62Ap     2.894902    47App    2.929184    63Ap     2.929512  
      48App    2.958830    64Ap     2.964107    49App    2.964710  
      65Ap     3.034051    50App    3.071764    66Ap     3.072046  
      51App    3.084289    67Ap     3.168657    52App    3.168924  
      68Ap     3.180407    53App    3.284743    69Ap     3.285182  
      70Ap     3.326181    54App    3.326281    71Ap     3.375917  
      55App    3.490298    72Ap     3.490398    56App    3.514475  
      73Ap     3.525170    74Ap     3.568716    57App    3.568903  
      58App    3.575603    59App    3.666201    75Ap     3.666560  
      76Ap     3.678658    60App    3.694385    77Ap     3.694441  
      78Ap     3.777666    61App    3.777706    79Ap     3.790435  
      62App    3.911766    80Ap     3.912469    81Ap     4.035632  
      82Ap     4.110778    63App    4.111224    64App    4.147713  
      83Ap     4.148080    84Ap     4.173380    85Ap     4.202971  
      65App    4.203363    86Ap     4.203482    66App    4.210942  
      67App    4.315385    87Ap     4.316947    68App    4.358853  
      88Ap     4.424506    69App    4.425581    70App    4.442593  
      71App    4.516533    89Ap     4.516895    72App    4.577892  
      90Ap     4.578470    91Ap     4.618356    92Ap     4.709904  
      93Ap     4.774688    73App    4.774994    74App    4.837142  
      94Ap     4.962794    95Ap     5.003377    75App    5.003929  
      96Ap     5.228116    76App    5.246553    97Ap     5.247046  
      77App    5.355041    98Ap     5.355082    78App    5.479862  

    Beta Occupied:                                                        

       1Ap   -10.167786     1App  -10.167745     2Ap   -10.167724  
       3Ap   -10.166404     4Ap    -0.781129     5Ap    -0.684075  
       2App   -0.683921     6Ap    -0.511721     3App   -0.430901  
       7Ap    -0.430871     8Ap    -0.422063     9Ap    -0.376990  
       4App   -0.376900     5App   -0.362310    10Ap    -0.333368  
       6App   -0.332783  

    Beta Virtual:                                                         

      11Ap    -0.025594    12Ap     0.077063     7App    0.134954  
      13Ap     0.135056     8App    0.144383    14Ap     0.144470  
      15Ap     0.163371    16Ap     0.182527     9App    0.182603  
      10App    0.214904    17Ap     0.218997    11App    0.282348  
      18Ap     0.282573    12App    0.400306    19Ap     0.400518  
      20Ap     0.419769    21Ap     0.426915    13App    0.426922  
      22Ap     0.468569    23Ap     0.497566    14App    0.497632  
      15App    0.513995    24Ap     0.556369    16App    0.584249  
      25Ap     0.584324    17App    0.598073    26Ap     0.598130  
      27Ap     0.610279    28Ap     0.628027    18App    0.631788  
      29Ap     0.639421    19App    0.639423    20App    0.667026  
      30Ap     0.667214    31Ap     0.686452    21App    0.686480  
      32Ap     0.757640    22App    0.830727    33Ap     0.830730  
      23App    0.855219    34Ap     0.923057    24App    0.923261  
      25App    0.946067    35Ap     0.953593    26App    0.966463  
      36Ap     0.966585    37Ap     1.007764    38Ap     1.131994  
      27App    1.132017    39Ap     1.155945    40Ap     1.168414  
      28App    1.168473    41Ap     1.232722    29App    1.280152  
      42Ap     1.280556    43Ap     1.285267    30App    1.329105  
      44Ap     1.329243    45Ap     1.366461    46Ap     1.370680  
      31App    1.371211    32App    1.393406    33App    1.407918  
      47Ap     1.408408    34App    1.422531    48Ap     1.423035  
      35App    1.428391    36App    1.492074    49Ap     1.510049  
      37App    1.546546    50Ap     1.546914    51Ap     1.582038  
      38App    1.582655    52Ap     1.674145    39App    1.745284  
      53Ap     1.745472    54Ap     1.779316    55Ap     1.834873  
      40App    1.834998    41App    1.972026    56Ap     2.025365  
      42App    2.026200    57Ap     2.039928    58Ap     2.059089  
      43App    2.060326    44App    2.747107    59Ap     2.747192  
      45App    2.811563    60Ap     2.816332    46App    2.902152  
      61Ap     2.903455    62Ap     2.924695    47App    2.931656  
      63Ap     2.932056    48App    2.959893    64Ap     2.968648  
      49App    2.969226    65Ap     3.041946    50App    3.081643  
      66Ap     3.081940    51App    3.086099    67Ap     3.184432  
      52App    3.184775    68Ap     3.188054    53App    3.289617  
      69Ap     3.289994    70Ap     3.329957    54App    3.330081  
      71Ap     3.383773    55App    3.493004    72Ap     3.493136  
      56App    3.512837    73Ap     3.528253    57App    3.575459  
      74Ap     3.582029    58App    3.582141    59App    3.670921  
      75Ap     3.671491    76Ap     3.691961    77Ap     3.725852  
      60App    3.726178    61App    3.782137    78Ap     3.782212  
      79Ap     3.818954    62App    3.921559    80Ap     3.922306  
      81Ap     4.046508    82Ap     4.117617    63App    4.118061  
      64App    4.154941    83Ap     4.155237    84Ap     4.187412  
      65App    4.209295    85Ap     4.209342    86Ap     4.211045  
      66App    4.215378    67App    4.322805    87Ap     4.324433  
      68App    4.362201    88Ap     4.432666    69App    4.433719  
      70App    4.445519    71App    4.524337    89Ap     4.524670  
      72App    4.588539    90Ap     4.589072    91Ap     4.625624  
      92Ap     4.720158    93Ap     4.781684    73App    4.781952  
      74App    4.840061    94Ap     4.967572    95Ap     5.007403  
      75App    5.007956    96Ap     5.233862    76App    5.248355  
      97Ap     5.248833    77App    5.361520    98Ap     5.361598  
      78App    5.482185  

    Final Occupation by Irrep:
             Ap   App 
    DOCC [    10,    6 ]
    SOCC [     1,    0 ]

  @DF-UKS Final Energy:  -157.81307330894973

   => Energetics <=

    Nuclear Repulsion Energy =            125.4033572658947122
    One-Electron Energy =                -458.7664807809269973
    Two-Electron Energy =                 195.8574480475921575
    DFT Exchange-Correlation Energy =     -20.3073978415096192
    Empirical Dispersion Energy =           0.0000000000000000
    VV10 Nonlocal Energy =                  0.0000000000000000
    Total Energy =                       -157.8130733089497255

  UHF NO Occupations:
  HONO-2 :    9 Ap 1.9996019
  HONO-1 :   10 Ap 1.9989796
  HONO-0 :   11 Ap 1.0000000
  LUNO+0 :   12 Ap 0.0010204
  LUNO+1 :   13 Ap 0.0003981
  LUNO+2 :    7App 0.0001979
  LUNO+3 :   14 Ap 0.0001970


Computation Completed


Properties will be evaluated at   0.000000,   0.000000,   0.000000 [a0]

Properties computed using the SCF density matrix

  Nuclear Dipole Moment: [e a0]
     X:     0.8175      Y:     0.0031      Z:    -0.0000

  Electronic Dipole Moment: [e a0]
     X:    -0.7395      Y:    -0.0030      Z:     0.0000

  Dipole Moment: [e a0]
     X:     0.0780      Y:     0.0000      Z:    -0.0000     Total:     0.0780

  Dipole Moment: [D]
     X:     0.1983      Y:     0.0001      Z:    -0.0000     Total:     0.1983


*** tstop() called on n058 at Fri Nov  5 11:47:36 2021
Module time:
	user time   =     541.50 seconds =       9.03 minutes
	system time =      12.09 seconds =       0.20 minutes
	total time  =        139 seconds =       2.32 minutes
Total time:
	user time   =     541.50 seconds =       9.03 minutes
	system time =      12.09 seconds =       0.20 minutes
	total time  =        139 seconds =       2.32 minutes
Grab this energy -157.81307330894973
    Psi4 stopped on: Friday, 05 November 2021 11:47AM
    Psi4 wall time for execution: 0:02:19.33

*** Psi4 exiting successfully. Buy a developer a beer!
