
    -----------------------------------------------------------------------
          Psi4: An Open-Source Ab Initio Electronic Structure Package
                               Psi4 1.4a2.dev629 

                         Git: Rev {master} 2938fc2 dirty


    D. G. A. Smith, L. A. Burns, A. C. Simmonett, R. M. Parrish,
    M. C. Schieber, R. Galvelis, P. Kraus, H. Kruse, R. Di Remigio,
    A. Alenaizan, A. M. James, S. Lehtola, J. P. Misiewicz, M. Scheurer,
    R. A. Shaw, J. B. Schriber, Y. Xie, Z. L. Glick, D. A. Sirianni,
    J. S. O'Brien, J. M. Waldrop, A. Kumar, E. G. Hohenstein,
    B. P. Pritchard, B. R. Brooks, H. F. Schaefer III, A. Yu. Sokolov,
    K. Patkowski, A. E. DePrince III, U. Bozkaya, R. A. King,
    F. A. Evangelista, J. M. Turney, T. D. Crawford, C. D. Sherrill,
    J. Chem. Phys. 152(18) 184108 (2020). https://doi.org/10.1063/5.0006002

                            Additional Code Authors
    E. T. Seidl, C. L. Janssen, E. F. Valeev, M. L. Leininger,
    J. F. Gonthier, R. M. Richard, H. R. McAlexander, M. Saitow, X. Wang,
    P. Verma, and M. H. Lechner

             Previous Authors, Complete List of Code Contributors,
                       and Citations for Specific Modules
    https://github.com/psi4/psi4/blob/master/codemeta.json
    https://github.com/psi4/psi4/graphs/contributors
    http://psicode.org/psi4manual/master/introduction.html#citing-psifour

    -----------------------------------------------------------------------


    Psi4 started on: Friday, 05 November 2021 02:38PM

    Process ID: 13465
    Host:       n049
    PSIDATADIR: /opt/psi/4/master/share/psi4
    Memory:     500.0 MiB
    Threads:    4
    
  ==> Input File <==

--------------------------------------------------------------------------
import os
memory 14 GB 
 
molecule {
 C   -0.3233394542   -0.0000017404   -0.0004938928
 C    0.0612249229   -1.4003942508   -2.4275171236
 C    0.0610212688    2.8017595921    0.0009258522
 C    0.0610569825   -1.4013602728    2.4252445725
 H    2.0833170883   -1.6420739141   -2.8491056414
 H   -0.7612081340   -0.3923143022   -4.0217196277
 H   -0.7660015233   -3.2907882727   -2.3500393785
 H    2.0867991848    3.2881034588    0.0026298080
 H   -0.7631938832    3.6802380215    1.6750663755
 H   -0.7681007024    3.6802656263   -1.6779338007
 H    2.0905594505   -1.6461255596    2.8457719905
 H   -0.7651343364   -3.2932109831    2.3479353987
 H   -0.7696087413   -0.3841217165    4.0292354673
units bohr
0 2
}

basis {

assign 6-31g_2dfp_

[ 6-31g_2dfp_ ]

spherical

!----------------------------------------------------------------------
! Basis Set Exchange
! Version v0.8.13
! https://www.basissetexchange.org
!----------------------------------------------------------------------
!   Basis set: 6-31G(2df,p)
! Description: 6-31G(2df,p)
!        Role: orbital
!     Version: 0  (Data from the original Basis Set Exchange)
!----------------------------------------------------------------------


****
H     0
S    3   1.00
     18.7311370              0.03349460
      2.8253937              0.23472695
      0.6401217              0.81375733
S    1   1.00
      0.1612778              1.00000000
P    1   1.00
      1.5000000              1.0000000
P    1   1.00
      0.3750000              1.0000000
****
B     0
S    6   1.00
   2068.8823000              0.0018663
    310.6495700              0.0142515
     70.6830330              0.0695516
     19.8610800              0.2325729
      6.2993048              0.4670787
      2.1270270              0.3634314
SP   3   1.00
      4.7279710             -0.1303938              0.0745976
      1.1903377             -0.1307889              0.3078467
      0.3594117              1.1309444              0.7434568
SP   1   1.00
      0.1267512              1.0000000              1.0000000
D    1   1.00
      0.8020000              1.0000000
D    1   1.00
      0.2005000              1.0000000
F    1   1.00
      0.5000000              1.0000000
****
C     0
S    6   1.00
   3047.5249000              0.0018347
    457.3695100              0.0140373
    103.9486900              0.0688426
     29.2101550              0.2321844
      9.2866630              0.4679413
      3.1639270              0.3623120
SP   3   1.00
      7.8682724             -0.1193324              0.0689991
      1.8812885             -0.1608542              0.3164240
      0.5442493              1.1434564              0.7443083
SP   1   1.00
      0.1687144              1.0000000              1.0000000
D    1   1.00
      1.2520000              1.0000000
D    1   1.00
      0.3130000              1.0000000
F    1   1.00
      0.8000000              1.0000000
****
N     0
S    6   1.00
   4173.5110000              0.0018348
    627.4579000              0.0139950
    142.9021000              0.0685870
     40.2343300              0.2322410
     12.8202100              0.4690700
      4.3904370              0.3604550
SP   3   1.00
     11.6263580             -0.1149610              0.0675800
      2.7162800             -0.1691180              0.3239070
      0.7722180              1.1458520              0.7408950
SP   1   1.00
      0.2120313              1.0000000              1.0000000
D    1   1.00
      1.8260000              1.0000000
D    1   1.00
      0.4565000              1.0000000
F    1   1.00
      1.0000000              1.0000000
****
O     0
S    6   1.00
   5484.6717000              0.0018311
    825.2349500              0.0139501
    188.0469600              0.0684451
     52.9645000              0.2327143
     16.8975700              0.4701930
      5.7996353              0.3585209
SP   3   1.00
     15.5396160             -0.1107775              0.0708743
      3.5999336             -0.1480263              0.3397528
      1.0137618              1.1307670              0.7271586
SP   1   1.00
      0.2700058              1.0000000              1.0000000
D    1   1.00
      2.5840000              1.0000000
D    1   1.00
      0.6460000              1.0000000
F    1   1.00
      1.4000000              1.0000000
****
F     0
S    6   1.00
   7001.7130900              0.0018196169
   1051.3660900              0.0139160796
    239.2856900              0.0684053245
     67.3974453              0.233185760
     21.5199573              0.471267439
      7.40310130             0.356618546
SP   3   1.00
     20.8479528             -0.108506975            0.0716287243
      4.80830834            -0.146451658            0.3459121030
      1.34406986             1.128688580            0.7224699570
SP   1   1.00
      0.358151393            1.0000000              1.0000000
D    1   1.00
      3.5000000              1.0000000
D    1   1.00
      0.8750000              1.0000000
F    1   1.00
      1.8500000              1.0000000
****
Al     0
S    6   1.00
  13983.1000000              0.00194267
   2098.7500000              0.0148599
    477.7050000              0.0728494
    134.3600000              0.2468300
     42.8709000              0.4872580
     14.5189000              0.3234960
SP   6   1.00
    239.6680000             -0.00292619             0.00460285
     57.4419000             -0.0374080              0.0331990
     18.2859000             -0.1144870              0.1362820
      6.5991400              0.1156350              0.3304760
      2.4904900              0.6125950              0.4491460
      0.9445400              0.3937990              0.2657040
SP   3   1.00
      1.2779000             -0.2276060             -0.0175130
      0.3975900              0.00144583             0.2445330
      0.1600950              1.0927900              0.8049340
SP   1   1.00
      0.0556577              1.0000000              1.0000000
D    1   1.00
      0.6500000              1.0000000
D    1   1.00
      0.1625000              1.0000000
F    1   1.00
      0.2500000              1.0000000
****
Si     0
S    6   1.00
  16115.9000000              0.00195948
   2425.5800000              0.01492880
    553.8670000              0.07284780
    156.3400000              0.24613000
     50.0683000              0.48591400
     17.0178000              0.32500200
SP   6   1.00
    292.7180000             -0.00278094             0.00443826
     69.8731000             -0.03571460             0.03266790
     22.3363000             -0.11498500             0.13472100
      8.1503900              0.09356340             0.32867800
      3.1345800              0.60301700             0.44964000
      1.2254300              0.41895900             0.26137200
SP   3   1.00
      1.7273800             -0.24463000            -0.01779510
      0.5729220              0.00431572             0.25353900
      0.2221920              1.09818000             0.80066900
SP   1   1.00
      0.0778369              1.00000000             1.00000000
D    1   1.00
      0.9000000              1.0000000
D    1   1.00
      0.2250000              1.0000000
F    1   1.00
      0.3200000              1.0000000
****
P     0
S    6   1.00
  19413.3000000              0.0018516
   2909.4200000              0.0142062
    661.3640000              0.0699995
    185.7590000              0.2400790
     59.1943000              0.4847620
     20.0310000              0.3352000
SP   6   1.00
    339.4780000             -0.00278217             0.00456462
     81.0101000             -0.0360499              0.03369360
     25.8780000             -0.1166310              0.13975500
      9.4522100              0.0968328              0.33936200
      3.6656600              0.6144180              0.45092100
      1.4674600              0.4037980              0.23858600
SP   3   1.00
      2.1562300             -0.2529230             -0.01776530
      0.7489970              0.0328517              0.27405800
      0.2831450              1.0812500              0.78542100
SP   1   1.00
      0.0998317              1.0000000              1.00000000
D    1   1.00
      1.1000000              1.0000000
D    1   1.00
      0.2750000              1.0000000
F    1   1.00
      0.4500000              1.0000000
****
S     0
S    6   1.00
  21917.1000000              0.0018690
   3301.4900000              0.0142300
    754.1460000              0.0696960
    212.7110000              0.2384870
     67.9896000              0.4833070
     23.0515000              0.3380740
SP   6   1.00
    423.7350000             -0.0023767              0.0040610
    100.7100000             -0.0316930              0.0306810
     32.1599000             -0.1133170              0.1304520
     11.8079000              0.0560900              0.3272050
      4.6311000              0.5922550              0.4528510
      1.8702500              0.4550060              0.2560420
SP   3   1.00
      2.6158400             -0.2503740             -0.0145110
      0.9221670              0.0669570              0.3102630
      0.3412870              1.0545100              0.7544830
SP   1   1.00
      0.1171670              1.0000000              1.0000000
D    1   1.00
      1.3000000              1.0000000
D    1   1.00
      0.3250000              1.0000000
F    1   1.00
      0.5500000              1.0000000
****
Cl     0
S    6   1.00
  25180.1000000              0.0018330
   3780.3500000              0.0140340
    860.4740000              0.0690970
    242.1450000              0.2374520
     77.3349000              0.4830340
     26.2470000              0.3398560
SP   6   1.00
    491.7650000             -0.0022974              0.0039894
    116.9840000             -0.0307140              0.0303180
     37.4153000             -0.1125280              0.1298800
     13.7834000              0.0450160              0.3279510
      5.4521500              0.5893530              0.4535270
      2.2258800              0.4652060              0.2521540
SP   3   1.00
      3.1864900             -0.2518300             -0.0142990
      1.1442700              0.0615890              0.3235720
      0.4203770              1.0601800              0.7435070
SP   1   1.00
      0.1426570              1.0000000              1.0000000
D    1   1.00
      1.5000000              1.0000000
D    1   1.00
      0.3750000              1.0000000
F    1   1.00
      0.7000000              1.0000000
****
}


set {
reference uhf                          
freeze_core true
e_convergence 10                       
d_convergence 10                      
dft_spherical_points 1202
dft_radial_points 99
}

e = energy('b3lyp')

print_out('Grab this energy {0}'.format(e))
--------------------------------------------------------------------------

  Memory set to  13.039 GiB by Python driver.

Scratch directory: /tmp/

*** tstart() called on n049
*** at Fri Nov  5 14:38:48 2021

   => Loading Basis Set <=

    Name: ANONYMOUS20ED013A
    Role: ORBITAL
    Keyword: BASIS
    atoms 1-4  entry C          line    48 inputblock 6-31g_2dfp_ 
    atoms 5-13 entry H          line    15 inputblock 6-31g_2dfp_ 


         ---------------------------------------------------------
                                   SCF
               by Justin Turney, Rob Parrish, Andy Simmonett
                          and Daniel G. A. Smith
                              UKS Reference
                        4 Threads,  13351 MiB Core
         ---------------------------------------------------------

  ==> Geometry <==

    Molecular point group: c1
    Full point group: C1

    Geometry (in Bohr), charge = 0, multiplicity = 2:

       Center              X                  Y                   Z               Mass       
    ------------   -----------------  -----------------  -----------------  -----------------
         C           -0.323340167774    -0.000001952056    -0.000139381581    12.000000000000
         C            0.061224209326    -1.400394462456    -2.427162612381    12.000000000000
         C            0.061020555226     2.801759380444     0.001280363419    12.000000000000
         C            0.061056268926    -1.401360484456     2.425599083719    12.000000000000
         H            2.083316374726    -1.642074125756    -2.848751130181     1.007825032230
         H           -0.761208847574    -0.392314513856    -4.021365116481     1.007825032230
         H           -0.766002236874    -3.290788484356    -2.349684867281     1.007825032230
         H            2.086798471226     3.288103247144     0.002984319219     1.007825032230
         H           -0.763194596774     3.680237809844     1.675420886719     1.007825032230
         H           -0.768101415974     3.680265414644    -1.677579289481     1.007825032230
         H            2.090558736926    -1.646125771256     2.846126501719     1.007825032230
         H           -0.765135049974    -3.293211194756     2.348289909919     1.007825032230
         H           -0.769609454874    -0.384121928156     4.029589978519     1.007825032230

  Running in c1 symmetry.

  Rotational constants: A =      0.26741  B =      0.26725  C =      0.14535 [cm^-1]
  Rotational constants: A =   8016.61519  B =   8012.01113  C =   4357.39867 [MHz]
  Nuclear repulsion =  125.394690666252345

  Charge       = 0
  Multiplicity = 2
  Electrons    = 33
  Nalpha       = 17
  Nbeta        = 16

  ==> Algorithm <==

  SCF Algorithm Type is DF.
  DIIS enabled.
  MOM disabled.
  Fractional occupation disabled.
  Guess Type is SAD.
  Energy threshold   = 1.00e-10
  Density threshold  = 1.00e-10
  Integral threshold = 0.00e+00

  ==> Primary Basis <==

  Basis Set: ANONYMOUS20ED013A
    Blend: 6-31G_2DFP_
    Number of shells: 68
    Number of basis function: 176
    Number of Cartesian functions: 196
    Spherical Harmonics?: true
    Max angular momentum: 3

  ==> DFT Potential <==

   => Composite Functional: B3LYP <= 

    B3LYP Hyb-GGA Exchange-Correlation Functional

    P. J. Stephens, F. J. Devlin, C. F. Chabalowski, and M. J. Frisch, J. Phys. Chem. 98, 11623 (1994)

    Deriv               =              1
    GGA                 =           TRUE
    Meta                =          FALSE

    Exchange Hybrid     =           TRUE
    MP2 Hybrid          =          FALSE

   => Exchange Functionals <=

    0.0800   Slater exchange
    0.7200         Becke 88

   => Exact (HF) Exchange <=

    0.2000               HF 

   => Correlation Functionals <=

    0.1900   Vosko, Wilk & Nusair (VWN5_RPA)
    0.8100   Lee, Yang & Parr

   => Molecular Quadrature <=

    Radial Scheme          =       TREUTLER
    Pruning Scheme         =           NONE
    Nuclear Scheme         =       TREUTLER

    BS radius alpha        =              1
    Pruning alpha          =              1
    Radial Points          =             99
    Spherical Points       =           1202
    Total Points           =        1442428
    Total Blocks           =           9598
    Max Points             =            256
    Max Functions          =            176
    Weights Tolerance      =       1.00E-15

   => Loading Basis Set <=

    Name: (ANONYMOUS20ED013A AUX)
    Role: JKFIT
    Keyword: DF_BASIS_SCF
    atoms 1-4  entry C          line   198 file /opt/psi/4/master/share/psi4/basis/def2-universal-jkfit.gbs 
    atoms 5-13 entry H          line    18 file /opt/psi/4/master/share/psi4/basis/def2-universal-jkfit.gbs 

  ==> Integral Setup <==

  DFHelper Memory: AOs need 0.114 GiB; user supplied 3.919 GiB. Using in-core AOs.

  ==> MemDFJK: Density-Fitted J/K Matrices <==

    J tasked:                   Yes
    K tasked:                   Yes
    wK tasked:                   No
    OpenMP threads:               4
    Memory [MiB]:              4012
    Algorithm:                 Core
    Schwarz Cutoff:           1E-12
    Mask sparsity (%):       1.2913
    Fitting Condition:        1E-10

   => Auxiliary Basis Set <=

  Basis Set: (ANONYMOUS20ED013A AUX)
    Blend: DEF2-UNIVERSAL-JKFIT
    Number of shells: 154
    Number of basis function: 462
    Number of Cartesian functions: 536
    Spherical Harmonics?: true
    Max angular momentum: 4

  Cached 100.0% of DFT collocation blocks in 5.860 [GiB].

  Minimum eigenvalue in the overlap matrix is 1.2847095555E-03.
  Reciprocal condition number of the overlap matrix is 2.1819674249E-04.
    Using symmetric orthogonalization.

  ==> Pre-Iterations <==

  SCF Guess: Superposition of Atomic Densities via on-the-fly atomic UHF (no occupation information).

   -------------------------
    Irrep   Nso     Nmo    
   -------------------------
     A        176     176 
   -------------------------
    Total     176     176
   -------------------------

  ==> Iterations <==

                           Total Energy        Delta E     RMS |[F,P]|

   @DF-UKS iter SAD:  -157.07647466069790   -1.57076e+02   0.00000e+00 
   @DF-UKS iter   1:  -157.41661889700563   -3.40144e-01   4.82180e-03 DIIS
   @DF-UKS iter   2:  -157.26085993298923    1.55759e-01   5.53957e-03 DIIS
   @DF-UKS iter   3:  -157.80974482041867   -5.48885e-01   4.40431e-04 DIIS
   @DF-UKS iter   4:  -157.81213776700207   -2.39295e-03   2.41349e-04 DIIS
   @DF-UKS iter   5:  -157.81303362423179   -8.95857e-04   2.24727e-05 DIIS
   @DF-UKS iter   6:  -157.81304385652868   -1.02323e-05   8.21820e-06 DIIS
   @DF-UKS iter   7:  -157.81304547215234   -1.61562e-06   2.79596e-06 DIIS
   @DF-UKS iter   8:  -157.81304569169097   -2.19539e-07   7.53205e-07 DIIS
   @DF-UKS iter   9:  -157.81304571186848   -2.01775e-08   1.22700e-07 DIIS
   @DF-UKS iter  10:  -157.81304571256945   -7.00965e-10   2.16804e-08 DIIS
   @DF-UKS iter  11:  -157.81304571259022   -2.07763e-11   6.05951e-09 DIIS
   @DF-UKS iter  12:  -157.81304571259074   -5.11591e-13   3.96535e-09 DIIS
   @DF-UKS iter  13:  -157.81304571259119   -4.54747e-13   1.17028e-09 DIIS
   @DF-UKS iter  14:  -157.81304571259136   -1.70530e-13   2.22033e-10 DIIS
   @DF-UKS iter  15:  -157.81304571259130    5.68434e-14   3.16312e-11 DIIS
  Energy and wave function converged.


  ==> Post-Iterations <==

   @Spin Contamination Metric:   4.061479777E-03
   @S^2 Expected:                7.500000000E-01
   @S^2 Observed:                7.540614798E-01
   @S   Expected:                5.000000000E-01
   @S   Observed:                5.000000000E-01

    Orbital Energies [Eh]
    ---------------------

    Alpha Occupied:                                                       

       1A    -10.180342     2A    -10.167595     3A    -10.167015  
       4A    -10.166433     5A     -0.797767     6A     -0.686511  
       7A     -0.685867     8A     -0.530777     9A     -0.441125  
      10A     -0.434759    11A     -0.434585    12A     -0.382822  
      13A     -0.382376    14A     -0.363611    15A     -0.338030  
      16A     -0.337966    17A     -0.168961  

    Alpha Virtual:                                                        

      18A      0.076070    19A      0.134121    20A      0.134154  
      21A      0.142537    22A      0.142745    23A      0.154874  
      24A      0.178459    25A      0.179106    26A      0.203545  
      27A      0.214807    28A      0.275940    29A      0.276031  
      30A      0.399149    31A      0.399307    32A      0.403344  
      33A      0.424001    34A      0.424192    35A      0.456590  
      36A      0.495320    37A      0.495460    38A      0.512160  
      39A      0.513979    40A      0.578692    41A      0.578937  
      42A      0.591323    43A      0.591923    44A      0.602589  
      45A      0.624721    46A      0.631746    47A      0.635901  
      48A      0.636664    49A      0.663231    50A      0.663598  
      51A      0.683556    52A      0.684185    53A      0.734994  
      54A      0.825003    55A      0.825800    56A      0.853916  
      57A      0.915017    58A      0.915039    59A      0.944103  
      60A      0.944638    61A      0.961045    62A      0.961543  
      63A      1.003458    64A      1.127784    65A      1.128440  
      66A      1.142217    67A      1.163180    68A      1.163355  
      69A      1.223321    70A      1.274310    71A      1.274671  
      72A      1.279349    73A      1.323984    74A      1.324695  
      75A      1.355973    76A      1.365790    77A      1.366316  
      78A      1.392469    79A      1.403661    80A      1.404431  
      81A      1.416798    82A      1.417430    83A      1.427915  
      84A      1.491455    85A      1.499108    86A      1.542771  
      87A      1.542883    88A      1.574174    89A      1.574737  
      90A      1.669809    91A      1.739313    92A      1.739474  
      93A      1.768322    94A      1.829840    95A      1.833037  
      96A      1.971672    97A      2.018104    98A      2.019015  
      99A      2.019301   100A      2.052608   101A      2.052738  
     102A      2.738037   103A      2.738931   104A      2.790923  
     105A      2.811432   106A      2.889655   107A      2.890206  
     108A      2.894978   109A      2.929387   110A      2.929599  
     111A      2.959004   112A      2.963866   113A      2.964917  
     114A      3.034007   115A      3.071062   116A      3.071511  
     117A      3.084399   118A      3.168651   119A      3.168911  
     120A      3.180599   121A      3.285240   122A      3.285378  
     123A      3.327130   124A      3.327217   125A      3.375608  
     126A      3.489335   127A      3.491000   128A      3.514006  
     129A      3.525353   130A      3.568327   131A      3.568410  
     132A      3.575186   133A      3.665608   134A      3.667073  
     135A      3.679668   136A      3.693677   137A      3.694609  
     138A      3.776230   139A      3.777402   140A      3.789119  
     141A      3.911776   142A      3.912665   143A      4.034430  
     144A      4.110505   145A      4.111981   146A      4.146125  
     147A      4.150121   148A      4.173190   149A      4.200796  
     150A      4.202878   151A      4.205052   152A      4.211324  
     153A      4.315258   154A      4.316648   155A      4.358940  
     156A      4.424194   157A      4.424637   158A      4.443561  
     159A      4.516596   160A      4.517059   161A      4.577846  
     162A      4.578740   163A      4.617533   164A      4.709487  
     165A      4.774502   166A      4.774708   167A      4.836871  
     168A      4.962880   169A      5.002406   170A      5.003551  
     171A      5.227817   172A      5.243055   173A      5.250401  
     174A      5.352669   175A      5.358701   176A      5.479466  

    Beta Occupied:                                                        

       1A    -10.168357     2A    -10.167775     3A    -10.167195  
       4A    -10.166516     5A     -0.781092     6A     -0.684313  
       7A     -0.683670     8A     -0.511749     9A     -0.431141  
      10A     -0.430945    11A     -0.421823    12A     -0.376915  
      13A     -0.376452    14A     -0.362595    15A     -0.333146  
      16A     -0.333097  

    Beta Virtual:                                                         

      17A     -0.025743    18A      0.077079    19A      0.134967  
      20A      0.135088    21A      0.144455    22A      0.144567  
      23A      0.163333    24A      0.182139    25A      0.182768  
      26A      0.215030    27A      0.218935    28A      0.282286  
      29A      0.282381    30A      0.400314    31A      0.400481  
      32A      0.419791    33A      0.426809    34A      0.427006  
      35A      0.468498    36A      0.497580    37A      0.497721  
      38A      0.513897    39A      0.556323    40A      0.584234  
      41A      0.584494    42A      0.597527    43A      0.598083  
      44A      0.610007    45A      0.628068    46A      0.631972  
      47A      0.639190    48A      0.639911    49A      0.666782  
      50A      0.667176    51A      0.686225    52A      0.686785  
      53A      0.757517    54A      0.830146    55A      0.830995  
      56A      0.855271    57A      0.922989    58A      0.923008  
      59A      0.945963    60A      0.953543    61A      0.966379  
      62A      0.966820    63A      1.008697    64A      1.131797  
      65A      1.132485    66A      1.155593    67A      1.168240  
      68A      1.168442    69A      1.232295    70A      1.279905  
      71A      1.280271    72A      1.285102    73A      1.328925  
      74A      1.329730    75A      1.365380    76A      1.371050  
      77A      1.371551    78A      1.393529    79A      1.407109  
      80A      1.407915    81A      1.421804    82A      1.422526  
      83A      1.428184    84A      1.492517    85A      1.509537  
      86A      1.547134    87A      1.547337    88A      1.582053  
      89A      1.582599    90A      1.674653    91A      1.745092  
      92A      1.745222    93A      1.779100    94A      1.833725  
      95A      1.836864    96A      1.972549    97A      2.025400  
      98A      2.025476    99A      2.039699   100A      2.059266  
     101A      2.059515   102A      2.746359   103A      2.747280  
     104A      2.811839   105A      2.816063   106A      2.902438  
     107A      2.902825   108A      2.924654   109A      2.931918  
     110A      2.932032   111A      2.960069   112A      2.968371  
     113A      2.969500   114A      3.041937   115A      3.080896  
     116A      3.081461   117A      3.086257   118A      3.184354  
     119A      3.184691   120A      3.188296   121A      3.290013  
     122A      3.290203   123A      3.330955   124A      3.331002  
     125A      3.383427   126A      3.492098   127A      3.493699  
     128A      3.512374   129A      3.528393   130A      3.574949  
     131A      3.581714   132A      3.581799   133A      3.670307  
     134A      3.671882   135A      3.692985   136A      3.725293  
     137A      3.726219   138A      3.780787   139A      3.781898  
     140A      3.817665   141A      3.921606   142A      3.922469  
     143A      4.045312   144A      4.117515   145A      4.118570  
     146A      4.153566   147A      4.157149   148A      4.187196  
     149A      4.207496   150A      4.209013   151A      4.212027  
     152A      4.215877   153A      4.322822   154A      4.323963  
     155A      4.362305   156A      4.432433   157A      4.432779  
     158A      4.446492   159A      4.524448   160A      4.524790  
     161A      4.588493   162A      4.589294   163A      4.624724  
     164A      4.719831   165A      4.781422   166A      4.781692  
     167A      4.839788   168A      4.967676   169A      5.006461  
     170A      5.007573   171A      5.233523   172A      5.244855  
     173A      5.252192   174A      5.359157   175A      5.365161  
     176A      5.481787  

    Final Occupation by Irrep:
              A 
    DOCC [    16 ]
    SOCC [     1 ]

  @DF-UKS Final Energy:  -157.81304571259130

   => Energetics <=

    Nuclear Repulsion Energy =            125.3946906662523446
    One-Electron Energy =                -458.7489775672057704
    Two-Electron Energy =                 195.8483920921228219
    DFT Exchange-Correlation Energy =     -20.3071509037607250
    Empirical Dispersion Energy =           0.0000000000000000
    VV10 Nonlocal Energy =                  0.0000000000000000
    Total Energy =                       -157.8130457125913040

  UHF NO Occupations:
  HONO-2 :   15  A 1.9996009
  HONO-1 :   16  A 1.9989805
  HONO-0 :   17  A 1.0000000
  LUNO+0 :   18  A 0.0010195
  LUNO+1 :   19  A 0.0003991
  LUNO+2 :   20  A 0.0001976
  LUNO+3 :   21  A 0.0001975


Computation Completed


Properties will be evaluated at   0.000000,   0.000000,   0.000000 [a0]

Properties computed using the SCF density matrix

  Nuclear Dipole Moment: [e a0]
     X:     0.8272      Y:    -0.0000      Z:     0.0025

  Electronic Dipole Moment: [e a0]
     X:    -0.7493      Y:     0.0000      Z:    -0.0049

  Dipole Moment: [e a0]
     X:     0.0779      Y:    -0.0000      Z:    -0.0024     Total:     0.0780

  Dipole Moment: [D]
     X:     0.1980      Y:    -0.0000      Z:    -0.0062     Total:     0.1981


*** tstop() called on n049 at Fri Nov  5 14:41:08 2021
Module time:
	user time   =     546.04 seconds =       9.10 minutes
	system time =      12.11 seconds =       0.20 minutes
	total time  =        140 seconds =       2.33 minutes
Total time:
	user time   =     546.04 seconds =       9.10 minutes
	system time =      12.11 seconds =       0.20 minutes
	total time  =        140 seconds =       2.33 minutes
Grab this energy -157.8130457125913
    Psi4 stopped on: Friday, 05 November 2021 02:41PM
    Psi4 wall time for execution: 0:02:20.40

*** Psi4 exiting successfully. Buy a developer a beer!
