
    -----------------------------------------------------------------------
          Psi4: An Open-Source Ab Initio Electronic Structure Package
                               Psi4 1.4a2.dev629 

                         Git: Rev {master} 2938fc2 dirty


    D. G. A. Smith, L. A. Burns, A. C. Simmonett, R. M. Parrish,
    M. C. Schieber, R. Galvelis, P. Kraus, H. Kruse, R. Di Remigio,
    A. Alenaizan, A. M. James, S. Lehtola, J. P. Misiewicz, M. Scheurer,
    R. A. Shaw, J. B. Schriber, Y. Xie, Z. L. Glick, D. A. Sirianni,
    J. S. O'Brien, J. M. Waldrop, A. Kumar, E. G. Hohenstein,
    B. P. Pritchard, B. R. Brooks, H. F. Schaefer III, A. Yu. Sokolov,
    K. Patkowski, A. E. DePrince III, U. Bozkaya, R. A. King,
    F. A. Evangelista, J. M. Turney, T. D. Crawford, C. D. Sherrill,
    J. Chem. Phys. 152(18) 184108 (2020). https://doi.org/10.1063/5.0006002

                            Additional Code Authors
    E. T. Seidl, C. L. Janssen, E. F. Valeev, M. L. Leininger,
    J. F. Gonthier, R. M. Richard, H. R. McAlexander, M. Saitow, X. Wang,
    P. Verma, and M. H. Lechner

             Previous Authors, Complete List of Code Contributors,
                       and Citations for Specific Modules
    https://github.com/psi4/psi4/blob/master/codemeta.json
    https://github.com/psi4/psi4/graphs/contributors
    http://psicode.org/psi4manual/master/introduction.html#citing-psifour

    -----------------------------------------------------------------------


    Psi4 started on: Friday, 05 November 2021 11:53AM

    Process ID: 4422
    Host:       n051
    PSIDATADIR: /opt/psi/4/master/share/psi4
    Memory:     500.0 MiB
    Threads:    4
    
  ==> Input File <==

--------------------------------------------------------------------------
import os
memory 14 GB 
 
molecule {
 C   -0.3233392186    0.0010186768   -0.0000024151
 C    0.0607620103   -1.4023685272   -2.4257470577
 C    0.0617688717    2.8013651834   -0.0000494717
 C    0.0607697148   -1.4022880228    2.4257931106
 H    2.0869725197   -1.6475800950   -2.8453731281
 H   -0.7611565079   -0.3860743158   -4.0263222969
 H   -0.7695978373   -3.2902308977   -2.3503117171
 H    2.0867122008    3.2881994798   -0.0046538225
 H   -0.7618478735    3.6801010653    1.6783956000
 H   -0.7698667517    3.6805623980   -1.6744066300
 H    2.0869720833   -1.6395172643    2.8500294555
 H   -0.7615770931   -3.2934593926    2.3479276267
 H   -0.7691799952   -0.3897526015    4.0247207464
units bohr
0 2
}

basis {

assign 6-31g_2dfp_

[ 6-31g_2dfp_ ]

spherical

!----------------------------------------------------------------------
! Basis Set Exchange
! Version v0.8.13
! https://www.basissetexchange.org
!----------------------------------------------------------------------
!   Basis set: 6-31G(2df,p)
! Description: 6-31G(2df,p)
!        Role: orbital
!     Version: 0  (Data from the original Basis Set Exchange)
!----------------------------------------------------------------------


****
H     0
S    3   1.00
     18.7311370              0.03349460
      2.8253937              0.23472695
      0.6401217              0.81375733
S    1   1.00
      0.1612778              1.00000000
P    1   1.00
      1.5000000              1.0000000
P    1   1.00
      0.3750000              1.0000000
****
B     0
S    6   1.00
   2068.8823000              0.0018663
    310.6495700              0.0142515
     70.6830330              0.0695516
     19.8610800              0.2325729
      6.2993048              0.4670787
      2.1270270              0.3634314
SP   3   1.00
      4.7279710             -0.1303938              0.0745976
      1.1903377             -0.1307889              0.3078467
      0.3594117              1.1309444              0.7434568
SP   1   1.00
      0.1267512              1.0000000              1.0000000
D    1   1.00
      0.8020000              1.0000000
D    1   1.00
      0.2005000              1.0000000
F    1   1.00
      0.5000000              1.0000000
****
C     0
S    6   1.00
   3047.5249000              0.0018347
    457.3695100              0.0140373
    103.9486900              0.0688426
     29.2101550              0.2321844
      9.2866630              0.4679413
      3.1639270              0.3623120
SP   3   1.00
      7.8682724             -0.1193324              0.0689991
      1.8812885             -0.1608542              0.3164240
      0.5442493              1.1434564              0.7443083
SP   1   1.00
      0.1687144              1.0000000              1.0000000
D    1   1.00
      1.2520000              1.0000000
D    1   1.00
      0.3130000              1.0000000
F    1   1.00
      0.8000000              1.0000000
****
N     0
S    6   1.00
   4173.5110000              0.0018348
    627.4579000              0.0139950
    142.9021000              0.0685870
     40.2343300              0.2322410
     12.8202100              0.4690700
      4.3904370              0.3604550
SP   3   1.00
     11.6263580             -0.1149610              0.0675800
      2.7162800             -0.1691180              0.3239070
      0.7722180              1.1458520              0.7408950
SP   1   1.00
      0.2120313              1.0000000              1.0000000
D    1   1.00
      1.8260000              1.0000000
D    1   1.00
      0.4565000              1.0000000
F    1   1.00
      1.0000000              1.0000000
****
O     0
S    6   1.00
   5484.6717000              0.0018311
    825.2349500              0.0139501
    188.0469600              0.0684451
     52.9645000              0.2327143
     16.8975700              0.4701930
      5.7996353              0.3585209
SP   3   1.00
     15.5396160             -0.1107775              0.0708743
      3.5999336             -0.1480263              0.3397528
      1.0137618              1.1307670              0.7271586
SP   1   1.00
      0.2700058              1.0000000              1.0000000
D    1   1.00
      2.5840000              1.0000000
D    1   1.00
      0.6460000              1.0000000
F    1   1.00
      1.4000000              1.0000000
****
F     0
S    6   1.00
   7001.7130900              0.0018196169
   1051.3660900              0.0139160796
    239.2856900              0.0684053245
     67.3974453              0.233185760
     21.5199573              0.471267439
      7.40310130             0.356618546
SP   3   1.00
     20.8479528             -0.108506975            0.0716287243
      4.80830834            -0.146451658            0.3459121030
      1.34406986             1.128688580            0.7224699570
SP   1   1.00
      0.358151393            1.0000000              1.0000000
D    1   1.00
      3.5000000              1.0000000
D    1   1.00
      0.8750000              1.0000000
F    1   1.00
      1.8500000              1.0000000
****
Al     0
S    6   1.00
  13983.1000000              0.00194267
   2098.7500000              0.0148599
    477.7050000              0.0728494
    134.3600000              0.2468300
     42.8709000              0.4872580
     14.5189000              0.3234960
SP   6   1.00
    239.6680000             -0.00292619             0.00460285
     57.4419000             -0.0374080              0.0331990
     18.2859000             -0.1144870              0.1362820
      6.5991400              0.1156350              0.3304760
      2.4904900              0.6125950              0.4491460
      0.9445400              0.3937990              0.2657040
SP   3   1.00
      1.2779000             -0.2276060             -0.0175130
      0.3975900              0.00144583             0.2445330
      0.1600950              1.0927900              0.8049340
SP   1   1.00
      0.0556577              1.0000000              1.0000000
D    1   1.00
      0.6500000              1.0000000
D    1   1.00
      0.1625000              1.0000000
F    1   1.00
      0.2500000              1.0000000
****
Si     0
S    6   1.00
  16115.9000000              0.00195948
   2425.5800000              0.01492880
    553.8670000              0.07284780
    156.3400000              0.24613000
     50.0683000              0.48591400
     17.0178000              0.32500200
SP   6   1.00
    292.7180000             -0.00278094             0.00443826
     69.8731000             -0.03571460             0.03266790
     22.3363000             -0.11498500             0.13472100
      8.1503900              0.09356340             0.32867800
      3.1345800              0.60301700             0.44964000
      1.2254300              0.41895900             0.26137200
SP   3   1.00
      1.7273800             -0.24463000            -0.01779510
      0.5729220              0.00431572             0.25353900
      0.2221920              1.09818000             0.80066900
SP   1   1.00
      0.0778369              1.00000000             1.00000000
D    1   1.00
      0.9000000              1.0000000
D    1   1.00
      0.2250000              1.0000000
F    1   1.00
      0.3200000              1.0000000
****
P     0
S    6   1.00
  19413.3000000              0.0018516
   2909.4200000              0.0142062
    661.3640000              0.0699995
    185.7590000              0.2400790
     59.1943000              0.4847620
     20.0310000              0.3352000
SP   6   1.00
    339.4780000             -0.00278217             0.00456462
     81.0101000             -0.0360499              0.03369360
     25.8780000             -0.1166310              0.13975500
      9.4522100              0.0968328              0.33936200
      3.6656600              0.6144180              0.45092100
      1.4674600              0.4037980              0.23858600
SP   3   1.00
      2.1562300             -0.2529230             -0.01776530
      0.7489970              0.0328517              0.27405800
      0.2831450              1.0812500              0.78542100
SP   1   1.00
      0.0998317              1.0000000              1.00000000
D    1   1.00
      1.1000000              1.0000000
D    1   1.00
      0.2750000              1.0000000
F    1   1.00
      0.4500000              1.0000000
****
S     0
S    6   1.00
  21917.1000000              0.0018690
   3301.4900000              0.0142300
    754.1460000              0.0696960
    212.7110000              0.2384870
     67.9896000              0.4833070
     23.0515000              0.3380740
SP   6   1.00
    423.7350000             -0.0023767              0.0040610
    100.7100000             -0.0316930              0.0306810
     32.1599000             -0.1133170              0.1304520
     11.8079000              0.0560900              0.3272050
      4.6311000              0.5922550              0.4528510
      1.8702500              0.4550060              0.2560420
SP   3   1.00
      2.6158400             -0.2503740             -0.0145110
      0.9221670              0.0669570              0.3102630
      0.3412870              1.0545100              0.7544830
SP   1   1.00
      0.1171670              1.0000000              1.0000000
D    1   1.00
      1.3000000              1.0000000
D    1   1.00
      0.3250000              1.0000000
F    1   1.00
      0.5500000              1.0000000
****
Cl     0
S    6   1.00
  25180.1000000              0.0018330
   3780.3500000              0.0140340
    860.4740000              0.0690970
    242.1450000              0.2374520
     77.3349000              0.4830340
     26.2470000              0.3398560
SP   6   1.00
    491.7650000             -0.0022974              0.0039894
    116.9840000             -0.0307140              0.0303180
     37.4153000             -0.1125280              0.1298800
     13.7834000              0.0450160              0.3279510
      5.4521500              0.5893530              0.4535270
      2.2258800              0.4652060              0.2521540
SP   3   1.00
      3.1864900             -0.2518300             -0.0142990
      1.1442700              0.0615890              0.3235720
      0.4203770              1.0601800              0.7435070
SP   1   1.00
      0.1426570              1.0000000              1.0000000
D    1   1.00
      1.5000000              1.0000000
D    1   1.00
      0.3750000              1.0000000
F    1   1.00
      0.7000000              1.0000000
****
}


set {
reference uhf                          
freeze_core true
e_convergence 10                       
d_convergence 10                      
dft_spherical_points 1202
dft_radial_points 99
}

e = energy('b3lyp')

print_out('Grab this energy {0}'.format(e))
--------------------------------------------------------------------------

  Memory set to  13.039 GiB by Python driver.

Scratch directory: /tmp/

*** tstart() called on n051
*** at Fri Nov  5 11:53:47 2021

   => Loading Basis Set <=

    Name: ANONYMOUS45648F37
    Role: ORBITAL
    Keyword: BASIS
    atoms 1-4  entry C          line    48 inputblock 6-31g_2dfp_ 
    atoms 5-13 entry H          line    15 inputblock 6-31g_2dfp_ 


         ---------------------------------------------------------
                                   SCF
               by Justin Turney, Rob Parrish, Andy Simmonett
                          and Daniel G. A. Smith
                              UKS Reference
                        4 Threads,  13351 MiB Core
         ---------------------------------------------------------

  ==> Geometry <==

    Molecular point group: c1
    Full point group: C1

    Geometry (in Bohr), charge = 0, multiplicity = 2:

       Center              X                  Y                   Z               Mass       
    ------------   -----------------  -----------------  -----------------  -----------------
         C           -0.323339481132     0.001456842587    -0.000001291451    12.000000000000
         C            0.060761747768    -1.401930361413    -2.425745934051    12.000000000000
         C            0.061768609168     2.801803349187    -0.000048348051    12.000000000000
         C            0.060769452268    -1.401849857013     2.425794234249    12.000000000000
         H            2.086972257168    -1.647141929213    -2.845372004451     1.007825032230
         H           -0.761156770432    -0.385636150013    -4.026321173251     1.007825032230
         H           -0.769598099832    -3.289792731913    -2.350310593451     1.007825032230
         H            2.086711938268     3.288637645587    -0.004652698851     1.007825032230
         H           -0.761848136032     3.680539231087     1.678396723649     1.007825032230
         H           -0.769867014232     3.681000563787    -1.674405506351     1.007825032230
         H            2.086971820768    -1.639079098513     2.850030579149     1.007825032230
         H           -0.761577355632    -3.293021226813     2.347928750349     1.007825032230
         H           -0.769180257732    -0.389314435713     4.024721870049     1.007825032230

  Running in c1 symmetry.

  Rotational constants: A =      0.26741  B =      0.26725  C =      0.14535 [cm^-1]
  Rotational constants: A =   8016.73329  B =   8011.90348  C =   4357.39984 [MHz]
  Nuclear repulsion =  125.394590447805911

  Charge       = 0
  Multiplicity = 2
  Electrons    = 33
  Nalpha       = 17
  Nbeta        = 16

  ==> Algorithm <==

  SCF Algorithm Type is DF.
  DIIS enabled.
  MOM disabled.
  Fractional occupation disabled.
  Guess Type is SAD.
  Energy threshold   = 1.00e-10
  Density threshold  = 1.00e-10
  Integral threshold = 0.00e+00

  ==> Primary Basis <==

  Basis Set: ANONYMOUS45648F37
    Blend: 6-31G_2DFP_
    Number of shells: 68
    Number of basis function: 176
    Number of Cartesian functions: 196
    Spherical Harmonics?: true
    Max angular momentum: 3

  ==> DFT Potential <==

   => Composite Functional: B3LYP <= 

    B3LYP Hyb-GGA Exchange-Correlation Functional

    P. J. Stephens, F. J. Devlin, C. F. Chabalowski, and M. J. Frisch, J. Phys. Chem. 98, 11623 (1994)

    Deriv               =              1
    GGA                 =           TRUE
    Meta                =          FALSE

    Exchange Hybrid     =           TRUE
    MP2 Hybrid          =          FALSE

   => Exchange Functionals <=

    0.0800   Slater exchange
    0.7200         Becke 88

   => Exact (HF) Exchange <=

    0.2000               HF 

   => Correlation Functionals <=

    0.1900   Vosko, Wilk & Nusair (VWN5_RPA)
    0.8100   Lee, Yang & Parr

   => Molecular Quadrature <=

    Radial Scheme          =       TREUTLER
    Pruning Scheme         =           NONE
    Nuclear Scheme         =       TREUTLER

    BS radius alpha        =              1
    Pruning alpha          =              1
    Radial Points          =             99
    Spherical Points       =           1202
    Total Points           =        1442233
    Total Blocks           =           9553
    Max Points             =            256
    Max Functions          =            176
    Weights Tolerance      =       1.00E-15

   => Loading Basis Set <=

    Name: (ANONYMOUS45648F37 AUX)
    Role: JKFIT
    Keyword: DF_BASIS_SCF
    atoms 1-4  entry C          line   198 file /opt/psi/4/master/share/psi4/basis/def2-universal-jkfit.gbs 
    atoms 5-13 entry H          line    18 file /opt/psi/4/master/share/psi4/basis/def2-universal-jkfit.gbs 

  ==> Integral Setup <==

  DFHelper Memory: AOs need 0.114 GiB; user supplied 3.914 GiB. Using in-core AOs.

  ==> MemDFJK: Density-Fitted J/K Matrices <==

    J tasked:                   Yes
    K tasked:                   Yes
    wK tasked:                   No
    OpenMP threads:               4
    Memory [MiB]:              4008
    Algorithm:                 Core
    Schwarz Cutoff:           1E-12
    Mask sparsity (%):       1.2913
    Fitting Condition:        1E-10

   => Auxiliary Basis Set <=

  Basis Set: (ANONYMOUS45648F37 AUX)
    Blend: DEF2-UNIVERSAL-JKFIT
    Number of shells: 154
    Number of basis function: 462
    Number of Cartesian functions: 536
    Spherical Harmonics?: true
    Max angular momentum: 4

  Cached 100.0% of DFT collocation blocks in 5.865 [GiB].

  Minimum eigenvalue in the overlap matrix is 1.2847034164E-03.
  Reciprocal condition number of the overlap matrix is 2.1819740621E-04.
    Using symmetric orthogonalization.

  ==> Pre-Iterations <==

  SCF Guess: Superposition of Atomic Densities via on-the-fly atomic UHF (no occupation information).

   -------------------------
    Irrep   Nso     Nmo    
   -------------------------
     A        176     176 
   -------------------------
    Total     176     176
   -------------------------

  ==> Iterations <==

                           Total Energy        Delta E     RMS |[F,P]|

   @DF-UKS iter SAD:  -157.07648951019840   -1.57076e+02   0.00000e+00 
   @DF-UKS iter   1:  -157.41665436731660   -3.40165e-01   4.82174e-03 DIIS
   @DF-UKS iter   2:  -157.26089820474493    1.55756e-01   5.53952e-03 DIIS
   @DF-UKS iter   3:  -157.80977122492254   -5.48873e-01   4.40404e-04 DIIS
   @DF-UKS iter   4:  -157.81216383158318   -2.39261e-03   2.41340e-04 DIIS
   @DF-UKS iter   5:  -157.81305961571988   -8.95784e-04   2.24722e-05 DIIS
   @DF-UKS iter   6:  -157.81306984730136   -1.02316e-05   8.21880e-06 DIIS
   @DF-UKS iter   7:  -157.81307146291152   -1.61561e-06   2.79718e-06 DIIS
   @DF-UKS iter   8:  -157.81307168247869   -2.19567e-07   7.56066e-07 DIIS
   @DF-UKS iter   9:  -157.81307170263563   -2.01569e-08   1.43551e-07 DIIS
   @DF-UKS iter  10:  -157.81307170324405   -6.08424e-10   1.07422e-07 DIIS
   @DF-UKS iter  11:  -157.81307170343905   -1.95001e-10   1.88433e-08 DIIS
   @DF-UKS iter  12:  -157.81307170344937   -1.03171e-11   2.67664e-09 DIIS
   @DF-UKS iter  13:  -157.81307170344971   -3.41061e-13   8.16840e-10 DIIS
   @DF-UKS iter  14:  -157.81307170344951    1.98952e-13   1.91505e-10 DIIS
   @DF-UKS iter  15:  -157.81307170344959   -8.52651e-14   3.00965e-11 DIIS
  Energy and wave function converged.


  ==> Post-Iterations <==

   @Spin Contamination Metric:   4.061407218E-03
   @S^2 Expected:                7.500000000E-01
   @S^2 Observed:                7.540614072E-01
   @S   Expected:                5.000000000E-01
   @S   Observed:                5.000000000E-01

    Orbital Energies [Eh]
    ---------------------

    Alpha Occupied:                                                       

       1A    -10.180342     2A    -10.167052     3A    -10.167015  
       4A    -10.166978     5A     -0.797766     6A     -0.686266  
       7A     -0.686107     8A     -0.530776     9A     -0.441125  
      10A     -0.434680    11A     -0.434661    12A     -0.382637  
      13A     -0.382562    14A     -0.363609    15A     -0.338293  
      16A     -0.337705    17A     -0.168961  

    Alpha Virtual:                                                        

      18A      0.076072    19A      0.134119    20A      0.134193  
      21A      0.142565    22A      0.142692    23A      0.154879  
      24A      0.178727    25A      0.178827    26A      0.203546  
      27A      0.214802    28A      0.275859    29A      0.276113  
      30A      0.399122    31A      0.399336    32A      0.403343  
      33A      0.424094    34A      0.424102    35A      0.456593  
      36A      0.495354    37A      0.495425    38A      0.512147  
      39A      0.513993    40A      0.578780    41A      0.578855  
      42A      0.591615    43A      0.591653    44A      0.602569  
      45A      0.624759    46A      0.631772    47A      0.636249  
      48A      0.636252    49A      0.663322    50A      0.663501  
      51A      0.683841    52A      0.683864    53A      0.734994  
      54A      0.825406    55A      0.825410    56A      0.853914  
      57A      0.914922    58A      0.915127    59A      0.944012  
      60A      0.944717    61A      0.961226    62A      0.961368  
      63A      1.003464    64A      1.128089    65A      1.128135  
      66A      1.142215    67A      1.163248    68A      1.163294  
      69A      1.223324    70A      1.274308    71A      1.274663  
      72A      1.279353    73A      1.324300    74A      1.324418  
      75A      1.355977    76A      1.365818    77A      1.366285  
      78A      1.392452    79A      1.403823    80A      1.404295  
      81A      1.416850    82A      1.417379    83A      1.427913  
      84A      1.491466    85A      1.499104    86A      1.542655  
      87A      1.543001    88A      1.574126    89A      1.574766  
      90A      1.669816    91A      1.739317    92A      1.739510  
      93A      1.768335    94A      1.831330    95A      1.831465  
      96A      1.971721    97A      2.018101    98A      2.018816  
      99A      2.019475   100A      2.052037   101A      2.053237  
     102A      2.738438   103A      2.738534   104A      2.790916  
     105A      2.811428   106A      2.889286   107A      2.890622  
     108A      2.894941   109A      2.929333   110A      2.929661  
     111A      2.958992   112A      2.964076   113A      2.964680  
     114A      3.034009   115A      3.071145   116A      3.071423  
     117A      3.084350   118A      3.168638   119A      3.168903  
     120A      3.180604   121A      3.285095   122A      3.285532  
     123A      3.327109   124A      3.327210   125A      3.375623  
     126A      3.490112   127A      3.490211   128A      3.514000  
     129A      3.525335   130A      3.568301   131A      3.568478  
     132A      3.575153   133A      3.666190   134A      3.666557  
     135A      3.679686   136A      3.694101   137A      3.694144  
     138A      3.776787   139A      3.776821   140A      3.789116  
     141A      3.911868   142A      3.912570   143A      4.034462  
     144A      4.111153   145A      4.111598   146A      4.147946  
     147A      4.148309   148A      4.173249   149A      4.202587  
     150A      4.203046   151A      4.203160   152A      4.210846  
     153A      4.315181   154A      4.316744   155A      4.358969  
     156A      4.423891   157A      4.424983   158A      4.443458  
     159A      4.516649   160A      4.517026   161A      4.577984  
     162A      4.578566   163A      4.617528   164A      4.709450  
     165A      4.774433   166A      4.774744   167A      4.836908  
     168A      4.962862   169A      5.002674   170A      5.003221  
     171A      5.228034   172A      5.246570   173A      5.247063  
     174A      5.355485   175A      5.355517   176A      5.479349  

    Beta Occupied:                                                        

       1A    -10.167809     2A    -10.167767     3A    -10.167748  
       4A    -10.166519     5A     -0.781091     6A     -0.684066  
       7A     -0.683912     8A     -0.511747     9A     -0.431058  
      10A     -0.431027    11A     -0.421821    12A     -0.376730  
      13A     -0.376640    14A     -0.362593    15A     -0.333415  
      16A     -0.332829  

    Beta Virtual:                                                         

      17A     -0.025742    18A      0.077081    19A      0.134997  
      20A      0.135096    21A      0.144454    22A      0.144544  
      23A      0.163338    24A      0.182410    25A      0.182486  
      26A      0.215031    27A      0.218930    28A      0.282221  
      29A      0.282447    30A      0.400291    31A      0.400505  
      32A      0.419789    33A      0.426906    34A      0.426914  
      35A      0.468501    36A      0.497617    37A      0.497683  
      38A      0.513895    39A      0.556326    40A      0.584330  
      41A      0.584405    42A      0.597785    43A      0.597842  
      44A      0.609992    45A      0.628135    46A      0.631931  
      47A      0.639534    48A      0.639536    49A      0.666882  
      50A      0.667069    51A      0.686474    52A      0.686501  
      53A      0.757518    54A      0.830575    55A      0.830577  
      56A      0.855268    57A      0.922894    58A      0.923098  
      59A      0.945944    60A      0.953551    61A      0.966542  
      62A      0.966664    63A      1.008704    64A      1.132129  
      65A      1.132151    66A      1.155586    67A      1.168318  
      68A      1.168378    69A      1.232296    70A      1.279879  
      71A      1.280285    72A      1.285109    73A      1.329279  
      74A      1.329418    75A      1.365388    76A      1.371035  
      77A      1.371553    78A      1.393517    79A      1.407276  
      80A      1.407770    81A      1.421918    82A      1.422408  
      83A      1.428185    84A      1.492528    85A      1.509534  
      86A      1.547051    87A      1.547419    88A      1.582008  
      89A      1.582629    90A      1.674664    91A      1.745079  
      92A      1.745272    93A      1.779113    94A      1.835188  
      95A      1.835318    96A      1.972581    97A      2.025030  
      98A      2.025861    99A      2.039679   100A      2.058732  
     101A      2.059972   102A      2.746780   103A      2.746864  
     104A      2.811793   105A      2.816100   106A      2.901987  
     107A      2.903296   108A      2.924649   109A      2.931779  
     110A      2.932177   111A      2.960055   112A      2.968632  
     113A      2.969211   114A      3.041943   115A      3.081048  
     116A      3.081340   117A      3.086166   118A      3.184342  
     119A      3.184678   120A      3.188310   121A      3.289924  
     122A      3.290299   123A      3.330902   124A      3.331027  
     125A      3.383441   126A      3.492826   127A      3.492957  
     128A      3.512369   129A      3.528376   130A      3.575003  
     131A      3.581686   132A      3.581785   133A      3.670843  
     134A      3.671408   135A      3.692972   136A      3.725587  
     137A      3.725922   138A      3.781288   139A      3.781372  
     140A      3.817662   141A      3.921664   142A      3.922408  
     143A      4.045349   144A      4.117969   145A      4.118411  
     146A      4.155190   147A      4.155481   148A      4.187310  
     149A      4.208974   150A      4.209025   151A      4.210639  
     152A      4.215319   153A      4.322590   154A      4.324217  
     155A      4.362330   156A      4.432110   157A      4.433183  
     158A      4.446352   159A      4.524454   160A      4.524802  
     161A      4.588608   162A      4.589145   163A      4.624720  
     164A      4.719795   165A      4.781405   166A      4.781678  
     167A      4.839825   168A      4.967656   169A      5.006713  
     170A      5.007261   171A      5.233749   172A      5.248362  
     173A      5.248841   174A      5.361946   175A      5.362017  
     176A      5.481671  

    Final Occupation by Irrep:
              A 
    DOCC [    16 ]
    SOCC [     1 ]

  @DF-UKS Final Energy:  -157.81307170344959

   => Energetics <=

    Nuclear Repulsion Energy =            125.3945904478059106
    One-Electron Energy =                -458.7488538560234019
    Two-Electron Energy =                 195.8483335075494267
    DFT Exchange-Correlation Energy =     -20.3071418027815369
    Empirical Dispersion Energy =           0.0000000000000000
    VV10 Nonlocal Energy =                  0.0000000000000000
    Total Energy =                       -157.8130717034495945

  UHF NO Occupations:
  HONO-2 :   15  A 1.9996009
  HONO-1 :   16  A 1.9989805
  HONO-0 :   17  A 1.0000000
  LUNO+0 :   18  A 0.0010195
  LUNO+1 :   19  A 0.0003991
  LUNO+2 :   20  A 0.0001980
  LUNO+3 :   21  A 0.0001971


Computation Completed


Properties will be evaluated at   0.000000,   0.000000,   0.000000 [a0]

Properties computed using the SCF density matrix

  Nuclear Dipole Moment: [e a0]
     X:     0.8272      Y:     0.0031      Z:     0.0000

  Electronic Dipole Moment: [e a0]
     X:    -0.7493      Y:    -0.0030      Z:    -0.0000

  Dipole Moment: [e a0]
     X:     0.0779      Y:     0.0001      Z:     0.0000     Total:     0.0779

  Dipole Moment: [D]
     X:     0.1980      Y:     0.0001      Z:     0.0000     Total:     0.1980


*** tstop() called on n051 at Fri Nov  5 11:56:17 2021
Module time:
	user time   =     583.75 seconds =       9.73 minutes
	system time =      13.11 seconds =       0.22 minutes
	total time  =        150 seconds =       2.50 minutes
Total time:
	user time   =     583.75 seconds =       9.73 minutes
	system time =      13.11 seconds =       0.22 minutes
	total time  =        150 seconds =       2.50 minutes
Grab this energy -157.8130717034496
    Psi4 stopped on: Friday, 05 November 2021 11:56AM
    Psi4 wall time for execution: 0:02:30.14

*** Psi4 exiting successfully. Buy a developer a beer!
