
    -----------------------------------------------------------------------
          Psi4: An Open-Source Ab Initio Electronic Structure Package
                               Psi4 1.4a2.dev629 

                         Git: Rev {master} 2938fc2 dirty


    D. G. A. Smith, L. A. Burns, A. C. Simmonett, R. M. Parrish,
    M. C. Schieber, R. Galvelis, P. Kraus, H. Kruse, R. Di Remigio,
    A. Alenaizan, A. M. James, S. Lehtola, J. P. Misiewicz, M. Scheurer,
    R. A. Shaw, J. B. Schriber, Y. Xie, Z. L. Glick, D. A. Sirianni,
    J. S. O'Brien, J. M. Waldrop, A. Kumar, E. G. Hohenstein,
    B. P. Pritchard, B. R. Brooks, H. F. Schaefer III, A. Yu. Sokolov,
    K. Patkowski, A. E. DePrince III, U. Bozkaya, R. A. King,
    F. A. Evangelista, J. M. Turney, T. D. Crawford, C. D. Sherrill,
    J. Chem. Phys. 152(18) 184108 (2020). https://doi.org/10.1063/5.0006002

                            Additional Code Authors
    E. T. Seidl, C. L. Janssen, E. F. Valeev, M. L. Leininger,
    J. F. Gonthier, R. M. Richard, H. R. McAlexander, M. Saitow, X. Wang,
    P. Verma, and M. H. Lechner

             Previous Authors, Complete List of Code Contributors,
                       and Citations for Specific Modules
    https://github.com/psi4/psi4/blob/master/codemeta.json
    https://github.com/psi4/psi4/graphs/contributors
    http://psicode.org/psi4manual/master/introduction.html#citing-psifour

    -----------------------------------------------------------------------


    Psi4 started on: Friday, 05 November 2021 12:11PM

    Process ID: 13662
    Host:       n083
    PSIDATADIR: /opt/psi/4/master/share/psi4
    Memory:     500.0 MiB
    Threads:    4
    
  ==> Input File <==

--------------------------------------------------------------------------
import os
memory 14 GB 
 
molecule {
 C   -0.3233404168    0.0002545184   -0.0002556594
 C    0.0603896224   -1.4017877818   -2.4258575233
 C    0.0589707954    2.8017667664    0.0007691633
 C    0.0639425602   -1.4011145451    2.4262302293
 H    2.0870115739   -1.6438162933   -2.8475984357
 H   -0.7649842600   -0.3879303773   -4.0255831548
 H   -0.7655199222   -3.2919034632   -2.3491178894
 H    2.0870017004    3.2880948242   -0.0002372511
 H   -0.7651420396    3.6803099840    1.6765445301
 H   -0.7648693621    3.6802201340   -1.6768727371
 H    2.0866637418   -1.6440277102    2.8474898519
 H   -0.7664973641   -3.2916919973    2.3491560481
 H   -0.7662345060   -0.3883983724    4.0253328280
units bohr
0 2
}

basis {

assign 6-31g_2dfp_

[ 6-31g_2dfp_ ]

spherical

!----------------------------------------------------------------------
! Basis Set Exchange
! Version v0.8.13
! https://www.basissetexchange.org
!----------------------------------------------------------------------
!   Basis set: 6-31G(2df,p)
! Description: 6-31G(2df,p)
!        Role: orbital
!     Version: 0  (Data from the original Basis Set Exchange)
!----------------------------------------------------------------------


****
H     0
S    3   1.00
     18.7311370              0.03349460
      2.8253937              0.23472695
      0.6401217              0.81375733
S    1   1.00
      0.1612778              1.00000000
P    1   1.00
      1.5000000              1.0000000
P    1   1.00
      0.3750000              1.0000000
****
B     0
S    6   1.00
   2068.8823000              0.0018663
    310.6495700              0.0142515
     70.6830330              0.0695516
     19.8610800              0.2325729
      6.2993048              0.4670787
      2.1270270              0.3634314
SP   3   1.00
      4.7279710             -0.1303938              0.0745976
      1.1903377             -0.1307889              0.3078467
      0.3594117              1.1309444              0.7434568
SP   1   1.00
      0.1267512              1.0000000              1.0000000
D    1   1.00
      0.8020000              1.0000000
D    1   1.00
      0.2005000              1.0000000
F    1   1.00
      0.5000000              1.0000000
****
C     0
S    6   1.00
   3047.5249000              0.0018347
    457.3695100              0.0140373
    103.9486900              0.0688426
     29.2101550              0.2321844
      9.2866630              0.4679413
      3.1639270              0.3623120
SP   3   1.00
      7.8682724             -0.1193324              0.0689991
      1.8812885             -0.1608542              0.3164240
      0.5442493              1.1434564              0.7443083
SP   1   1.00
      0.1687144              1.0000000              1.0000000
D    1   1.00
      1.2520000              1.0000000
D    1   1.00
      0.3130000              1.0000000
F    1   1.00
      0.8000000              1.0000000
****
N     0
S    6   1.00
   4173.5110000              0.0018348
    627.4579000              0.0139950
    142.9021000              0.0685870
     40.2343300              0.2322410
     12.8202100              0.4690700
      4.3904370              0.3604550
SP   3   1.00
     11.6263580             -0.1149610              0.0675800
      2.7162800             -0.1691180              0.3239070
      0.7722180              1.1458520              0.7408950
SP   1   1.00
      0.2120313              1.0000000              1.0000000
D    1   1.00
      1.8260000              1.0000000
D    1   1.00
      0.4565000              1.0000000
F    1   1.00
      1.0000000              1.0000000
****
O     0
S    6   1.00
   5484.6717000              0.0018311
    825.2349500              0.0139501
    188.0469600              0.0684451
     52.9645000              0.2327143
     16.8975700              0.4701930
      5.7996353              0.3585209
SP   3   1.00
     15.5396160             -0.1107775              0.0708743
      3.5999336             -0.1480263              0.3397528
      1.0137618              1.1307670              0.7271586
SP   1   1.00
      0.2700058              1.0000000              1.0000000
D    1   1.00
      2.5840000              1.0000000
D    1   1.00
      0.6460000              1.0000000
F    1   1.00
      1.4000000              1.0000000
****
F     0
S    6   1.00
   7001.7130900              0.0018196169
   1051.3660900              0.0139160796
    239.2856900              0.0684053245
     67.3974453              0.233185760
     21.5199573              0.471267439
      7.40310130             0.356618546
SP   3   1.00
     20.8479528             -0.108506975            0.0716287243
      4.80830834            -0.146451658            0.3459121030
      1.34406986             1.128688580            0.7224699570
SP   1   1.00
      0.358151393            1.0000000              1.0000000
D    1   1.00
      3.5000000              1.0000000
D    1   1.00
      0.8750000              1.0000000
F    1   1.00
      1.8500000              1.0000000
****
Al     0
S    6   1.00
  13983.1000000              0.00194267
   2098.7500000              0.0148599
    477.7050000              0.0728494
    134.3600000              0.2468300
     42.8709000              0.4872580
     14.5189000              0.3234960
SP   6   1.00
    239.6680000             -0.00292619             0.00460285
     57.4419000             -0.0374080              0.0331990
     18.2859000             -0.1144870              0.1362820
      6.5991400              0.1156350              0.3304760
      2.4904900              0.6125950              0.4491460
      0.9445400              0.3937990              0.2657040
SP   3   1.00
      1.2779000             -0.2276060             -0.0175130
      0.3975900              0.00144583             0.2445330
      0.1600950              1.0927900              0.8049340
SP   1   1.00
      0.0556577              1.0000000              1.0000000
D    1   1.00
      0.6500000              1.0000000
D    1   1.00
      0.1625000              1.0000000
F    1   1.00
      0.2500000              1.0000000
****
Si     0
S    6   1.00
  16115.9000000              0.00195948
   2425.5800000              0.01492880
    553.8670000              0.07284780
    156.3400000              0.24613000
     50.0683000              0.48591400
     17.0178000              0.32500200
SP   6   1.00
    292.7180000             -0.00278094             0.00443826
     69.8731000             -0.03571460             0.03266790
     22.3363000             -0.11498500             0.13472100
      8.1503900              0.09356340             0.32867800
      3.1345800              0.60301700             0.44964000
      1.2254300              0.41895900             0.26137200
SP   3   1.00
      1.7273800             -0.24463000            -0.01779510
      0.5729220              0.00431572             0.25353900
      0.2221920              1.09818000             0.80066900
SP   1   1.00
      0.0778369              1.00000000             1.00000000
D    1   1.00
      0.9000000              1.0000000
D    1   1.00
      0.2250000              1.0000000
F    1   1.00
      0.3200000              1.0000000
****
P     0
S    6   1.00
  19413.3000000              0.0018516
   2909.4200000              0.0142062
    661.3640000              0.0699995
    185.7590000              0.2400790
     59.1943000              0.4847620
     20.0310000              0.3352000
SP   6   1.00
    339.4780000             -0.00278217             0.00456462
     81.0101000             -0.0360499              0.03369360
     25.8780000             -0.1166310              0.13975500
      9.4522100              0.0968328              0.33936200
      3.6656600              0.6144180              0.45092100
      1.4674600              0.4037980              0.23858600
SP   3   1.00
      2.1562300             -0.2529230             -0.01776530
      0.7489970              0.0328517              0.27405800
      0.2831450              1.0812500              0.78542100
SP   1   1.00
      0.0998317              1.0000000              1.00000000
D    1   1.00
      1.1000000              1.0000000
D    1   1.00
      0.2750000              1.0000000
F    1   1.00
      0.4500000              1.0000000
****
S     0
S    6   1.00
  21917.1000000              0.0018690
   3301.4900000              0.0142300
    754.1460000              0.0696960
    212.7110000              0.2384870
     67.9896000              0.4833070
     23.0515000              0.3380740
SP   6   1.00
    423.7350000             -0.0023767              0.0040610
    100.7100000             -0.0316930              0.0306810
     32.1599000             -0.1133170              0.1304520
     11.8079000              0.0560900              0.3272050
      4.6311000              0.5922550              0.4528510
      1.8702500              0.4550060              0.2560420
SP   3   1.00
      2.6158400             -0.2503740             -0.0145110
      0.9221670              0.0669570              0.3102630
      0.3412870              1.0545100              0.7544830
SP   1   1.00
      0.1171670              1.0000000              1.0000000
D    1   1.00
      1.3000000              1.0000000
D    1   1.00
      0.3250000              1.0000000
F    1   1.00
      0.5500000              1.0000000
****
Cl     0
S    6   1.00
  25180.1000000              0.0018330
   3780.3500000              0.0140340
    860.4740000              0.0690970
    242.1450000              0.2374520
     77.3349000              0.4830340
     26.2470000              0.3398560
SP   6   1.00
    491.7650000             -0.0022974              0.0039894
    116.9840000             -0.0307140              0.0303180
     37.4153000             -0.1125280              0.1298800
     13.7834000              0.0450160              0.3279510
      5.4521500              0.5893530              0.4535270
      2.2258800              0.4652060              0.2521540
SP   3   1.00
      3.1864900             -0.2518300             -0.0142990
      1.1442700              0.0615890              0.3235720
      0.4203770              1.0601800              0.7435070
SP   1   1.00
      0.1426570              1.0000000              1.0000000
D    1   1.00
      1.5000000              1.0000000
D    1   1.00
      0.3750000              1.0000000
F    1   1.00
      0.7000000              1.0000000
****
}


set {
reference uhf                          
freeze_core true
e_convergence 10                       
d_convergence 10                      
dft_spherical_points 1202
dft_radial_points 99
}

e = energy('b3lyp')

print_out('Grab this energy {0}'.format(e))
--------------------------------------------------------------------------

  Memory set to  13.039 GiB by Python driver.

Scratch directory: /tmp/

*** tstart() called on n083
*** at Fri Nov  5 12:11:17 2021

   => Loading Basis Set <=

    Name: ANONYMOUS48FB40E5
    Role: ORBITAL
    Keyword: BASIS
    atoms 1-4  entry C          line    48 inputblock 6-31g_2dfp_ 
    atoms 5-13 entry H          line    15 inputblock 6-31g_2dfp_ 


         ---------------------------------------------------------
                                   SCF
               by Justin Turney, Rob Parrish, Andy Simmonett
                          and Daniel G. A. Smith
                              UKS Reference
                        4 Threads,  13351 MiB Core
         ---------------------------------------------------------

  ==> Geometry <==

    Molecular point group: c1
    Full point group: C1

    Geometry (in Bohr), charge = 0, multiplicity = 2:

       Center              X                  Y                   Z               Mass       
    ------------   -----------------  -----------------  -----------------  -----------------
         C           -0.323340907186     0.000424642816    -0.000426349808    12.000000000000
         C            0.060389132014    -1.401617657384    -2.426028213708    12.000000000000
         C            0.058970305014     2.801936890816     0.000598472892    12.000000000000
         C            0.063942069814    -1.400944420684     2.426059538892    12.000000000000
         H            2.087011083514    -1.643646168884    -2.847769126108     1.007825032230
         H           -0.764984750386    -0.387760252884    -4.025753845208     1.007825032230
         H           -0.765520412586    -3.291733338784    -2.349288579808     1.007825032230
         H            2.087001210014     3.288264948616    -0.000407941508     1.007825032230
         H           -0.765142529986     3.680480108416     1.676373839692     1.007825032230
         H           -0.764869852486     3.680390258416    -1.677043427508     1.007825032230
         H            2.086663251414    -1.643857585784     2.847319161492     1.007825032230
         H           -0.766497854486    -3.291521872884     2.348985357692     1.007825032230
         H           -0.766234996386    -0.388228247984     4.025162137592     1.007825032230

  Running in c1 symmetry.

  Rotational constants: A =      0.26739  B =      0.26727  C =      0.14535 [cm^-1]
  Rotational constants: A =   8016.12775  B =   8012.50802  C =   4357.40151 [MHz]
  Nuclear repulsion =  125.394603766714411

  Charge       = 0
  Multiplicity = 2
  Electrons    = 33
  Nalpha       = 17
  Nbeta        = 16

  ==> Algorithm <==

  SCF Algorithm Type is DF.
  DIIS enabled.
  MOM disabled.
  Fractional occupation disabled.
  Guess Type is SAD.
  Energy threshold   = 1.00e-10
  Density threshold  = 1.00e-10
  Integral threshold = 0.00e+00

  ==> Primary Basis <==

  Basis Set: ANONYMOUS48FB40E5
    Blend: 6-31G_2DFP_
    Number of shells: 68
    Number of basis function: 176
    Number of Cartesian functions: 196
    Spherical Harmonics?: true
    Max angular momentum: 3

  ==> DFT Potential <==

   => Composite Functional: B3LYP <= 

    B3LYP Hyb-GGA Exchange-Correlation Functional

    P. J. Stephens, F. J. Devlin, C. F. Chabalowski, and M. J. Frisch, J. Phys. Chem. 98, 11623 (1994)

    Deriv               =              1
    GGA                 =           TRUE
    Meta                =          FALSE

    Exchange Hybrid     =           TRUE
    MP2 Hybrid          =          FALSE

   => Exchange Functionals <=

    0.0800   Slater exchange
    0.7200         Becke 88

   => Exact (HF) Exchange <=

    0.2000               HF 

   => Correlation Functionals <=

    0.1900   Vosko, Wilk & Nusair (VWN5_RPA)
    0.8100   Lee, Yang & Parr

   => Molecular Quadrature <=

    Radial Scheme          =       TREUTLER
    Pruning Scheme         =           NONE
    Nuclear Scheme         =       TREUTLER

    BS radius alpha        =              1
    Pruning alpha          =              1
    Radial Points          =             99
    Spherical Points       =           1202
    Total Points           =        1442446
    Total Blocks           =           9568
    Max Points             =            256
    Max Functions          =            176
    Weights Tolerance      =       1.00E-15

   => Loading Basis Set <=

    Name: (ANONYMOUS48FB40E5 AUX)
    Role: JKFIT
    Keyword: DF_BASIS_SCF
    atoms 1-4  entry C          line   198 file /opt/psi/4/master/share/psi4/basis/def2-universal-jkfit.gbs 
    atoms 5-13 entry H          line    18 file /opt/psi/4/master/share/psi4/basis/def2-universal-jkfit.gbs 

  ==> Integral Setup <==

  DFHelper Memory: AOs need 0.114 GiB; user supplied 3.918 GiB. Using in-core AOs.

  ==> MemDFJK: Density-Fitted J/K Matrices <==

    J tasked:                   Yes
    K tasked:                   Yes
    wK tasked:                   No
    OpenMP threads:               4
    Memory [MiB]:              4012
    Algorithm:                 Core
    Schwarz Cutoff:           1E-12
    Mask sparsity (%):       1.2913
    Fitting Condition:        1E-10

   => Auxiliary Basis Set <=

  Basis Set: (ANONYMOUS48FB40E5 AUX)
    Blend: DEF2-UNIVERSAL-JKFIT
    Number of shells: 154
    Number of basis function: 462
    Number of Cartesian functions: 536
    Spherical Harmonics?: true
    Max angular momentum: 4

  Cached 100.0% of DFT collocation blocks in 5.861 [GiB].

  Minimum eigenvalue in the overlap matrix is 1.2847043278E-03.
  Reciprocal condition number of the overlap matrix is 2.1819750627E-04.
    Using symmetric orthogonalization.

  ==> Pre-Iterations <==

  SCF Guess: Superposition of Atomic Densities via on-the-fly atomic UHF (no occupation information).

   -------------------------
    Irrep   Nso     Nmo    
   -------------------------
     A        176     176 
   -------------------------
    Total     176     176
   -------------------------

  ==> Iterations <==

                           Total Energy        Delta E     RMS |[F,P]|

   @DF-UKS iter SAD:  -157.07648816479812   -1.57076e+02   0.00000e+00 
   @DF-UKS iter   1:  -157.41665142618186   -3.40163e-01   4.82175e-03 DIIS
   @DF-UKS iter   2:  -157.26089450976070    1.55757e-01   5.53952e-03 DIIS
   @DF-UKS iter   3:  -157.80976921416394   -5.48875e-01   4.40407e-04 DIIS
   @DF-UKS iter   4:  -157.81216184659468   -2.39263e-03   2.41342e-04 DIIS
   @DF-UKS iter   5:  -157.81305764901029   -8.95802e-04   2.24716e-05 DIIS
   @DF-UKS iter   6:  -157.81306788049847   -1.02315e-05   8.21809e-06 DIIS
   @DF-UKS iter   7:  -157.81306949600190   -1.61550e-06   2.79637e-06 DIIS
   @DF-UKS iter   8:  -157.81306971554579   -2.19544e-07   7.54178e-07 DIIS
   @DF-UKS iter   9:  -157.81306973571387   -2.01681e-08   1.30420e-07 DIIS
   @DF-UKS iter  10:  -157.81306973637027   -6.56399e-10   7.16926e-08 DIIS
   @DF-UKS iter  11:  -157.81306973645547   -8.52083e-11   2.38006e-08 DIIS
   @DF-UKS iter  12:  -157.81306973646815   -1.26761e-11   2.67154e-09 DIIS
   @DF-UKS iter  13:  -157.81306973646821   -5.68434e-14   6.93037e-10 DIIS
   @DF-UKS iter  14:  -157.81306973646838   -1.70530e-13   1.84981e-10 DIIS
   @DF-UKS iter  15:  -157.81306973646832    5.68434e-14   3.25021e-11 DIIS
  Energy and wave function converged.


  ==> Post-Iterations <==

   @Spin Contamination Metric:   4.061476111E-03
   @S^2 Expected:                7.500000000E-01
   @S^2 Observed:                7.540614761E-01
   @S   Expected:                5.000000000E-01
   @S   Observed:                5.000000000E-01

    Orbital Energies [Eh]
    ---------------------

    Alpha Occupied:                                                       

       1A    -10.180342     2A    -10.167056     3A    -10.167026  
       4A    -10.166962     5A     -0.797766     6A     -0.686233  
       7A     -0.686140     8A     -0.530776     9A     -0.441128  
      10A     -0.434811    11A     -0.434528    12A     -0.382811  
      13A     -0.382387    14A     -0.363612    15A     -0.338117  
      16A     -0.337879    17A     -0.168961  

    Alpha Virtual:                                                        

      18A      0.076072    19A      0.134108    20A      0.134203  
      21A      0.142540    22A      0.142715    23A      0.154880  
      24A      0.178618    25A      0.178940    26A      0.203547  
      27A      0.214802    28A      0.275907    29A      0.276063  
      30A      0.399002    31A      0.399450    32A      0.403351  
      33A      0.424029    34A      0.424165    35A      0.456593  
      36A      0.495349    37A      0.495429    38A      0.512161  
      39A      0.513979    40A      0.578693    41A      0.578943  
      42A      0.591465    43A      0.591799    44A      0.602573  
      45A      0.624760    46A      0.631774    47A      0.636099  
      48A      0.636398    49A      0.663173    50A      0.663655  
      51A      0.683642    52A      0.684062    53A      0.734995  
      54A      0.825387    55A      0.825427    56A      0.853916  
      57A      0.914999    58A      0.915053    59A      0.944126  
      60A      0.944614    61A      0.961187    62A      0.961394  
      63A      1.003452    64A      1.127957    65A      1.128262  
      66A      1.142218    67A      1.163131    68A      1.163409  
      69A      1.223322    70A      1.274291    71A      1.274688  
      72A      1.279362    73A      1.323997    74A      1.324715  
      75A      1.355978    76A      1.365624    77A      1.366487  
      78A      1.392449    79A      1.403889    80A      1.404223  
      81A      1.416696    82A      1.417533    83A      1.427912  
      84A      1.491492    85A      1.499081    86A      1.542764  
      87A      1.542883    88A      1.574232    89A      1.574668  
      90A      1.669829    91A      1.738841    92A      1.739988  
      93A      1.768333    94A      1.831117    95A      1.831671  
      96A      1.971731    97A      2.018064    98A      2.018347  
      99A      2.019981   100A      2.052112   101A      2.053166  
     102A      2.738427   103A      2.738539   104A      2.790926  
     105A      2.811427   106A      2.889569   107A      2.890340  
     108A      2.894944   109A      2.929455   110A      2.929543  
     111A      2.958997   112A      2.964221   113A      2.964526  
     114A      3.034009   115A      3.071108   116A      3.071446  
     117A      3.084364   118A      3.168609   119A      3.168953  
     120A      3.180587   121A      3.285267   122A      3.285364  
     123A      3.326941   124A      3.327381   125A      3.375620  
     126A      3.489718   127A      3.490608   128A      3.514019  
     129A      3.525324   130A      3.568239   131A      3.568535  
     132A      3.575141   133A      3.665972   134A      3.666819  
     135A      3.679648   136A      3.694099   137A      3.694147  
     138A      3.776733   139A      3.776876   140A      3.789118  
     141A      3.912109   142A      3.912334   143A      4.034455  
     144A      4.111248   145A      4.111500   146A      4.148052  
     147A      4.148202   148A      4.173241   149A      4.202390  
     150A      4.202865   151A      4.203525   152A      4.210848  
     153A      4.315358   154A      4.316541   155A      4.358998  
     156A      4.424279   157A      4.424626   158A      4.443409  
     159A      4.515366   160A      4.518330   161A      4.577979  
     162A      4.578582   163A      4.617533   164A      4.709442  
     165A      4.773857   166A      4.775322   167A      4.836918  
     168A      4.962861   169A      5.002305   170A      5.003569  
     171A      5.228058   172A      5.246779   173A      5.246841  
     174A      5.355139   175A      5.355878   176A      5.479350  

    Beta Occupied:                                                        

       1A    -10.167812     2A    -10.167786     3A    -10.167726  
       4A    -10.166519     5A     -0.781091     6A     -0.684036  
       7A     -0.683942     8A     -0.511747     9A     -0.431194  
      10A     -0.430893    11A     -0.421821    12A     -0.376908  
      13A     -0.376460    14A     -0.362596    15A     -0.333242  
      16A     -0.333000  

    Beta Virtual:                                                         

      17A     -0.025742    18A      0.077081    19A      0.135010  
      20A      0.135081    21A      0.144416    22A      0.144580  
      23A      0.163338    24A      0.182286    25A      0.182614  
      26A      0.215031    27A      0.218930    28A      0.282258  
      29A      0.282408    30A      0.400174    31A      0.400622  
      32A      0.419791    33A      0.426836    34A      0.426980  
      35A      0.468500    36A      0.497615    37A      0.497685  
      38A      0.513896    39A      0.556324    40A      0.584250  
      41A      0.584486    42A      0.597638    43A      0.597987  
      44A      0.609997    45A      0.628134    46A      0.631930  
      47A      0.639382    48A      0.639685    49A      0.666759  
      50A      0.667197    51A      0.686274    52A      0.686700  
      53A      0.757518    54A      0.830559    55A      0.830592  
      56A      0.855269    57A      0.922972    58A      0.923023  
      59A      0.945962    60A      0.953543    61A      0.966483  
      62A      0.966709    63A      1.008692    64A      1.131932  
      65A      1.132343    66A      1.155598    67A      1.168271  
      68A      1.168415    69A      1.232294    70A      1.279881  
      71A      1.280293    72A      1.285113    73A      1.328971  
      74A      1.329720    75A      1.365393    76A      1.370867  
      77A      1.371731    78A      1.393508    79A      1.407334  
      80A      1.407709    81A      1.421768    82A      1.422562  
      83A      1.428181    84A      1.492540    85A      1.509524  
      86A      1.547193    87A      1.547270    88A      1.582178  
      89A      1.582465    90A      1.674675    91A      1.744612  
      92A      1.745741    93A      1.779111    94A      1.834972  
      95A      1.835526    96A      1.972591    97A      2.024542  
      98A      2.026340    99A      2.039691   100A      2.058862  
     101A      2.059843   102A      2.746770   103A      2.746868  
     104A      2.811838   105A      2.816062   106A      2.902272  
     107A      2.903016   108A      2.924653   109A      2.931937  
     110A      2.932018   111A      2.960059   112A      2.968771  
     113A      2.969064   114A      3.041944   115A      3.081024  
     116A      3.081328   117A      3.086201   118A      3.184392  
     119A      3.184658   120A      3.188283   121A      3.290078  
     122A      3.290149   123A      3.330726   124A      3.331205  
     125A      3.383438   126A      3.492450   127A      3.493337  
     128A      3.512383   129A      3.528370   130A      3.574996  
     131A      3.581674   132A      3.581786   133A      3.670799  
     134A      3.671481   135A      3.692945   136A      3.725556  
     137A      3.725960   138A      3.781275   139A      3.781385  
     140A      3.817663   141A      3.921903   142A      3.922172  
     143A      4.045342   144A      4.118138   145A      4.118241  
     146A      4.155196   147A      4.155473   148A      4.187304  
     149A      4.208733   150A      4.209162   151A      4.210730  
     152A      4.215320   153A      4.322764   154A      4.324012  
     155A      4.362365   156A      4.432511   157A      4.432823  
     158A      4.446293   159A      4.523162   160A      4.526114  
     161A      4.588602   162A      4.589163   163A      4.624725  
     164A      4.719786   165A      4.780836   166A      4.782250  
     167A      4.839836   168A      4.967657   169A      5.006369  
     170A      5.007583   171A      5.233773   172A      5.248563  
     173A      5.248626   174A      5.361622   175A      5.362357  
     176A      5.481671  

    Final Occupation by Irrep:
              A 
    DOCC [    16 ]
    SOCC [     1 ]

  @DF-UKS Final Energy:  -157.81306973646832

   => Energetics <=

    Nuclear Repulsion Energy =            125.3946037667144111
    One-Electron Energy =                -458.7488731253624792
    Two-Electron Energy =                 195.8483420878837649
    DFT Exchange-Correlation Energy =     -20.3071424657039969
    Empirical Dispersion Energy =           0.0000000000000000
    VV10 Nonlocal Energy =                  0.0000000000000000
    Total Energy =                       -157.8130697364683215

  UHF NO Occupations:
  HONO-2 :   15  A 1.9996009
  HONO-1 :   16  A 1.9989805
  HONO-0 :   17  A 1.0000000
  LUNO+0 :   18  A 0.0010195
  LUNO+1 :   19  A 0.0003991
  LUNO+2 :   20  A 0.0001977
  LUNO+3 :   21  A 0.0001974


Computation Completed


Properties will be evaluated at   0.000000,   0.000000,   0.000000 [a0]

Properties computed using the SCF density matrix

  Nuclear Dipole Moment: [e a0]
     X:     0.8272      Y:     0.0012      Z:    -0.0012

  Electronic Dipole Moment: [e a0]
     X:    -0.7493      Y:    -0.0011      Z:     0.0011

  Dipole Moment: [e a0]
     X:     0.0779      Y:     0.0001      Z:    -0.0001     Total:     0.0779

  Dipole Moment: [D]
     X:     0.1980      Y:     0.0003      Z:    -0.0003     Total:     0.1980


*** tstop() called on n083 at Fri Nov  5 12:13:54 2021
Module time:
	user time   =     619.16 seconds =      10.32 minutes
	system time =       5.68 seconds =       0.09 minutes
	total time  =        157 seconds =       2.62 minutes
Total time:
	user time   =     619.16 seconds =      10.32 minutes
	system time =       5.68 seconds =       0.09 minutes
	total time  =        157 seconds =       2.62 minutes
Grab this energy -157.81306973646832
    Psi4 stopped on: Friday, 05 November 2021 12:13PM
    Psi4 wall time for execution: 0:02:37.21

*** Psi4 exiting successfully. Buy a developer a beer!
