
    -----------------------------------------------------------------------
          Psi4: An Open-Source Ab Initio Electronic Structure Package
                               Psi4 1.4a2.dev629 

                         Git: Rev {master} 2938fc2 dirty


    D. G. A. Smith, L. A. Burns, A. C. Simmonett, R. M. Parrish,
    M. C. Schieber, R. Galvelis, P. Kraus, H. Kruse, R. Di Remigio,
    A. Alenaizan, A. M. James, S. Lehtola, J. P. Misiewicz, M. Scheurer,
    R. A. Shaw, J. B. Schriber, Y. Xie, Z. L. Glick, D. A. Sirianni,
    J. S. O'Brien, J. M. Waldrop, A. Kumar, E. G. Hohenstein,
    B. P. Pritchard, B. R. Brooks, H. F. Schaefer III, A. Yu. Sokolov,
    K. Patkowski, A. E. DePrince III, U. Bozkaya, R. A. King,
    F. A. Evangelista, J. M. Turney, T. D. Crawford, C. D. Sherrill,
    J. Chem. Phys. 152(18) 184108 (2020). https://doi.org/10.1063/5.0006002

                            Additional Code Authors
    E. T. Seidl, C. L. Janssen, E. F. Valeev, M. L. Leininger,
    J. F. Gonthier, R. M. Richard, H. R. McAlexander, M. Saitow, X. Wang,
    P. Verma, and M. H. Lechner

             Previous Authors, Complete List of Code Contributors,
                       and Citations for Specific Modules
    https://github.com/psi4/psi4/blob/master/codemeta.json
    https://github.com/psi4/psi4/graphs/contributors
    http://psicode.org/psi4manual/master/introduction.html#citing-psifour

    -----------------------------------------------------------------------


    Psi4 started on: Friday, 05 November 2021 02:12PM

    Process ID: 27996
    Host:       n065
    PSIDATADIR: /opt/psi/4/master/share/psi4
    Memory:     500.0 MiB
    Threads:    4
    
  ==> Input File <==

--------------------------------------------------------------------------
import os
memory 14 GB 
 
molecule {
 C   -0.3243659827   -0.0004998048   -0.0000000000
 C    0.0593904244   -1.4012673062   -2.4263898695
 C    0.0613368090    2.8018155738   -0.0000000000
 C    0.0593904244   -1.4012673062    2.4263898695
 H    2.0923108273   -1.6443196757   -2.8475081080
 H   -0.7683516125   -0.3914705083   -4.0238056195
 H   -0.7664403790   -3.2880684508   -2.3505268691
 H    2.0859873083    3.2890102921   -0.0000000000
 H   -0.7646922658    3.6799507536    1.6772766641
 H   -0.7646922658    3.6799507536   -1.6772766641
 H    2.0923108273   -1.6443196757    2.8475081080
 H   -0.7664403790   -3.2880684508    2.3505268691
 H   -0.7683516125   -0.3914705083    4.0238056195
units bohr
0 2
}

basis {

assign 6-31g_2dfp_

[ 6-31g_2dfp_ ]

spherical

!----------------------------------------------------------------------
! Basis Set Exchange
! Version v0.8.13
! https://www.basissetexchange.org
!----------------------------------------------------------------------
!   Basis set: 6-31G(2df,p)
! Description: 6-31G(2df,p)
!        Role: orbital
!     Version: 0  (Data from the original Basis Set Exchange)
!----------------------------------------------------------------------


****
H     0
S    3   1.00
     18.7311370              0.03349460
      2.8253937              0.23472695
      0.6401217              0.81375733
S    1   1.00
      0.1612778              1.00000000
P    1   1.00
      1.5000000              1.0000000
P    1   1.00
      0.3750000              1.0000000
****
B     0
S    6   1.00
   2068.8823000              0.0018663
    310.6495700              0.0142515
     70.6830330              0.0695516
     19.8610800              0.2325729
      6.2993048              0.4670787
      2.1270270              0.3634314
SP   3   1.00
      4.7279710             -0.1303938              0.0745976
      1.1903377             -0.1307889              0.3078467
      0.3594117              1.1309444              0.7434568
SP   1   1.00
      0.1267512              1.0000000              1.0000000
D    1   1.00
      0.8020000              1.0000000
D    1   1.00
      0.2005000              1.0000000
F    1   1.00
      0.5000000              1.0000000
****
C     0
S    6   1.00
   3047.5249000              0.0018347
    457.3695100              0.0140373
    103.9486900              0.0688426
     29.2101550              0.2321844
      9.2866630              0.4679413
      3.1639270              0.3623120
SP   3   1.00
      7.8682724             -0.1193324              0.0689991
      1.8812885             -0.1608542              0.3164240
      0.5442493              1.1434564              0.7443083
SP   1   1.00
      0.1687144              1.0000000              1.0000000
D    1   1.00
      1.2520000              1.0000000
D    1   1.00
      0.3130000              1.0000000
F    1   1.00
      0.8000000              1.0000000
****
N     0
S    6   1.00
   4173.5110000              0.0018348
    627.4579000              0.0139950
    142.9021000              0.0685870
     40.2343300              0.2322410
     12.8202100              0.4690700
      4.3904370              0.3604550
SP   3   1.00
     11.6263580             -0.1149610              0.0675800
      2.7162800             -0.1691180              0.3239070
      0.7722180              1.1458520              0.7408950
SP   1   1.00
      0.2120313              1.0000000              1.0000000
D    1   1.00
      1.8260000              1.0000000
D    1   1.00
      0.4565000              1.0000000
F    1   1.00
      1.0000000              1.0000000
****
O     0
S    6   1.00
   5484.6717000              0.0018311
    825.2349500              0.0139501
    188.0469600              0.0684451
     52.9645000              0.2327143
     16.8975700              0.4701930
      5.7996353              0.3585209
SP   3   1.00
     15.5396160             -0.1107775              0.0708743
      3.5999336             -0.1480263              0.3397528
      1.0137618              1.1307670              0.7271586
SP   1   1.00
      0.2700058              1.0000000              1.0000000
D    1   1.00
      2.5840000              1.0000000
D    1   1.00
      0.6460000              1.0000000
F    1   1.00
      1.4000000              1.0000000
****
F     0
S    6   1.00
   7001.7130900              0.0018196169
   1051.3660900              0.0139160796
    239.2856900              0.0684053245
     67.3974453              0.233185760
     21.5199573              0.471267439
      7.40310130             0.356618546
SP   3   1.00
     20.8479528             -0.108506975            0.0716287243
      4.80830834            -0.146451658            0.3459121030
      1.34406986             1.128688580            0.7224699570
SP   1   1.00
      0.358151393            1.0000000              1.0000000
D    1   1.00
      3.5000000              1.0000000
D    1   1.00
      0.8750000              1.0000000
F    1   1.00
      1.8500000              1.0000000
****
Al     0
S    6   1.00
  13983.1000000              0.00194267
   2098.7500000              0.0148599
    477.7050000              0.0728494
    134.3600000              0.2468300
     42.8709000              0.4872580
     14.5189000              0.3234960
SP   6   1.00
    239.6680000             -0.00292619             0.00460285
     57.4419000             -0.0374080              0.0331990
     18.2859000             -0.1144870              0.1362820
      6.5991400              0.1156350              0.3304760
      2.4904900              0.6125950              0.4491460
      0.9445400              0.3937990              0.2657040
SP   3   1.00
      1.2779000             -0.2276060             -0.0175130
      0.3975900              0.00144583             0.2445330
      0.1600950              1.0927900              0.8049340
SP   1   1.00
      0.0556577              1.0000000              1.0000000
D    1   1.00
      0.6500000              1.0000000
D    1   1.00
      0.1625000              1.0000000
F    1   1.00
      0.2500000              1.0000000
****
Si     0
S    6   1.00
  16115.9000000              0.00195948
   2425.5800000              0.01492880
    553.8670000              0.07284780
    156.3400000              0.24613000
     50.0683000              0.48591400
     17.0178000              0.32500200
SP   6   1.00
    292.7180000             -0.00278094             0.00443826
     69.8731000             -0.03571460             0.03266790
     22.3363000             -0.11498500             0.13472100
      8.1503900              0.09356340             0.32867800
      3.1345800              0.60301700             0.44964000
      1.2254300              0.41895900             0.26137200
SP   3   1.00
      1.7273800             -0.24463000            -0.01779510
      0.5729220              0.00431572             0.25353900
      0.2221920              1.09818000             0.80066900
SP   1   1.00
      0.0778369              1.00000000             1.00000000
D    1   1.00
      0.9000000              1.0000000
D    1   1.00
      0.2250000              1.0000000
F    1   1.00
      0.3200000              1.0000000
****
P     0
S    6   1.00
  19413.3000000              0.0018516
   2909.4200000              0.0142062
    661.3640000              0.0699995
    185.7590000              0.2400790
     59.1943000              0.4847620
     20.0310000              0.3352000
SP   6   1.00
    339.4780000             -0.00278217             0.00456462
     81.0101000             -0.0360499              0.03369360
     25.8780000             -0.1166310              0.13975500
      9.4522100              0.0968328              0.33936200
      3.6656600              0.6144180              0.45092100
      1.4674600              0.4037980              0.23858600
SP   3   1.00
      2.1562300             -0.2529230             -0.01776530
      0.7489970              0.0328517              0.27405800
      0.2831450              1.0812500              0.78542100
SP   1   1.00
      0.0998317              1.0000000              1.00000000
D    1   1.00
      1.1000000              1.0000000
D    1   1.00
      0.2750000              1.0000000
F    1   1.00
      0.4500000              1.0000000
****
S     0
S    6   1.00
  21917.1000000              0.0018690
   3301.4900000              0.0142300
    754.1460000              0.0696960
    212.7110000              0.2384870
     67.9896000              0.4833070
     23.0515000              0.3380740
SP   6   1.00
    423.7350000             -0.0023767              0.0040610
    100.7100000             -0.0316930              0.0306810
     32.1599000             -0.1133170              0.1304520
     11.8079000              0.0560900              0.3272050
      4.6311000              0.5922550              0.4528510
      1.8702500              0.4550060              0.2560420
SP   3   1.00
      2.6158400             -0.2503740             -0.0145110
      0.9221670              0.0669570              0.3102630
      0.3412870              1.0545100              0.7544830
SP   1   1.00
      0.1171670              1.0000000              1.0000000
D    1   1.00
      1.3000000              1.0000000
D    1   1.00
      0.3250000              1.0000000
F    1   1.00
      0.5500000              1.0000000
****
Cl     0
S    6   1.00
  25180.1000000              0.0018330
   3780.3500000              0.0140340
    860.4740000              0.0690970
    242.1450000              0.2374520
     77.3349000              0.4830340
     26.2470000              0.3398560
SP   6   1.00
    491.7650000             -0.0022974              0.0039894
    116.9840000             -0.0307140              0.0303180
     37.4153000             -0.1125280              0.1298800
     13.7834000              0.0450160              0.3279510
      5.4521500              0.5893530              0.4535270
      2.2258800              0.4652060              0.2521540
SP   3   1.00
      3.1864900             -0.2518300             -0.0142990
      1.1442700              0.0615890              0.3235720
      0.4203770              1.0601800              0.7435070
SP   1   1.00
      0.1426570              1.0000000              1.0000000
D    1   1.00
      1.5000000              1.0000000
D    1   1.00
      0.3750000              1.0000000
F    1   1.00
      0.7000000              1.0000000
****
}


set {
reference uhf                          
freeze_core true
e_convergence 10                       
d_convergence 10                      
dft_spherical_points 1202
dft_radial_points 99
}

e = energy('b3lyp')

print_out('Grab this energy {0}'.format(e))
--------------------------------------------------------------------------

  Memory set to  13.039 GiB by Python driver.

Scratch directory: /tmp/

*** tstart() called on n065
*** at Fri Nov  5 14:12:17 2021

   => Loading Basis Set <=

    Name: ANONYMOUSC6766A37
    Role: ORBITAL
    Keyword: BASIS
    atoms 1-4  entry C          line    48 inputblock 6-31g_2dfp_ 
    atoms 5-13 entry H          line    15 inputblock 6-31g_2dfp_ 


         ---------------------------------------------------------
                                   SCF
               by Justin Turney, Rob Parrish, Andy Simmonett
                          and Daniel G. A. Smith
                              UKS Reference
                        4 Threads,  13351 MiB Core
         ---------------------------------------------------------

  ==> Geometry <==

    Molecular point group: cs
    Full point group: Cs

    Geometry (in Bohr), charge = 0, multiplicity = 2:

       Center              X                  Y                   Z               Mass       
    ------------   -----------------  -----------------  -----------------  -----------------
         C           -0.323555426096    -0.000264617419     0.000000000000    12.000000000000
         C            0.060200981004    -1.401032118819    -2.426389869500    12.000000000000
         C            0.062147365604     2.802050761181     0.000000000000    12.000000000000
         C            0.060200981004    -1.401032118819     2.426389869500    12.000000000000
         H            2.093121383904    -1.644084488319    -2.847508108000     1.007825032230
         H           -0.767541055896    -0.391235320919    -4.023805619500     1.007825032230
         H           -0.765629822396    -3.287833263419    -2.350526869100     1.007825032230
         H            2.086797864904     3.289245479481     0.000000000000     1.007825032230
         H           -0.763881709196     3.680185940981     1.677276664100     1.007825032230
         H           -0.763881709196     3.680185940981    -1.677276664100     1.007825032230
         H            2.093121383904    -1.644084488319     2.847508108000     1.007825032230
         H           -0.765629822396    -3.287833263419     2.350526869100     1.007825032230
         H           -0.767541055896    -0.391235320919     4.023805619500     1.007825032230

  Running in cs symmetry.

  Rotational constants: A =      0.26728  B =      0.26727  C =      0.14535 [cm^-1]
  Rotational constants: A =   8012.85602  B =   8012.62773  C =   4357.60483 [MHz]
  Nuclear repulsion =  125.389312445414603

  Charge       = 0
  Multiplicity = 2
  Electrons    = 33
  Nalpha       = 17
  Nbeta        = 16

  ==> Algorithm <==

  SCF Algorithm Type is DF.
  DIIS enabled.
  MOM disabled.
  Fractional occupation disabled.
  Guess Type is SAD.
  Energy threshold   = 1.00e-10
  Density threshold  = 1.00e-10
  Integral threshold = 0.00e+00

  ==> Primary Basis <==

  Basis Set: ANONYMOUSC6766A37
    Blend: 6-31G_2DFP_
    Number of shells: 68
    Number of basis function: 176
    Number of Cartesian functions: 196
    Spherical Harmonics?: true
    Max angular momentum: 3

  ==> DFT Potential <==

   => Composite Functional: B3LYP <= 

    B3LYP Hyb-GGA Exchange-Correlation Functional

    P. J. Stephens, F. J. Devlin, C. F. Chabalowski, and M. J. Frisch, J. Phys. Chem. 98, 11623 (1994)

    Deriv               =              1
    GGA                 =           TRUE
    Meta                =          FALSE

    Exchange Hybrid     =           TRUE
    MP2 Hybrid          =          FALSE

   => Exchange Functionals <=

    0.0800   Slater exchange
    0.7200         Becke 88

   => Exact (HF) Exchange <=

    0.2000               HF 

   => Correlation Functionals <=

    0.1900   Vosko, Wilk & Nusair (VWN5_RPA)
    0.8100   Lee, Yang & Parr

   => Molecular Quadrature <=

    Radial Scheme          =       TREUTLER
    Pruning Scheme         =           NONE
    Nuclear Scheme         =       TREUTLER

    BS radius alpha        =              1
    Pruning alpha          =              1
    Radial Points          =             99
    Spherical Points       =           1202
    Total Points           =        1442216
    Total Blocks           =           9524
    Max Points             =            256
    Max Functions          =            176
    Weights Tolerance      =       1.00E-15

   => Loading Basis Set <=

    Name: (ANONYMOUSC6766A37 AUX)
    Role: JKFIT
    Keyword: DF_BASIS_SCF
    atoms 1-4  entry C          line   198 file /opt/psi/4/master/share/psi4/basis/def2-universal-jkfit.gbs 
    atoms 5-13 entry H          line    18 file /opt/psi/4/master/share/psi4/basis/def2-universal-jkfit.gbs 

  ==> Integral Setup <==

  DFHelper Memory: AOs need 0.114 GiB; user supplied 3.914 GiB. Using in-core AOs.

  ==> MemDFJK: Density-Fitted J/K Matrices <==

    J tasked:                   Yes
    K tasked:                   Yes
    wK tasked:                   No
    OpenMP threads:               4
    Memory [MiB]:              4008
    Algorithm:                 Core
    Schwarz Cutoff:           1E-12
    Mask sparsity (%):       1.2913
    Fitting Condition:        1E-10

   => Auxiliary Basis Set <=

  Basis Set: (ANONYMOUSC6766A37 AUX)
    Blend: DEF2-UNIVERSAL-JKFIT
    Number of shells: 154
    Number of basis function: 462
    Number of Cartesian functions: 536
    Spherical Harmonics?: true
    Max angular momentum: 4

  Cached 100.0% of DFT collocation blocks in 5.865 [GiB].

  Minimum eigenvalue in the overlap matrix is 1.2235047995E-03.
  Reciprocal condition number of the overlap matrix is 2.1989146627E-04.
    Using symmetric orthogonalization.

  ==> Pre-Iterations <==

  SCF Guess: Superposition of Atomic Densities via on-the-fly atomic UHF (no occupation information).

   -------------------------
    Irrep   Nso     Nmo    
   -------------------------
     A'        98      98 
     A"        78      78 
   -------------------------
    Total     176     176
   -------------------------

  ==> Iterations <==

                           Total Energy        Delta E     RMS |[F,P]|

   @DF-UKS iter SAD:  -157.07607070339353   -1.57076e+02   0.00000e+00 
   @DF-UKS iter   1:  -157.41663510108577   -3.40564e-01   6.77509e-03 DIIS
   @DF-UKS iter   2:  -157.26091852204888    1.55717e-01   7.78335e-03 DIIS
   @DF-UKS iter   3:  -157.80973792077660   -5.48819e-01   6.19911e-04 DIIS
   @DF-UKS iter   4:  -157.81214004299008   -2.40212e-03   3.39489e-04 DIIS
   @DF-UKS iter   5:  -157.81303792189917   -8.97879e-04   3.15301e-05 DIIS
   @DF-UKS iter   6:  -157.81304815183424   -1.02299e-05   1.15242e-05 DIIS
   @DF-UKS iter   7:  -157.81304976445335   -1.61262e-06   3.94067e-06 DIIS
   @DF-UKS iter   8:  -157.81304998508315   -2.20630e-07   1.06265e-06 DIIS
   @DF-UKS iter   9:  -157.81305000537782   -2.02947e-08   1.75945e-07 DIIS
   @DF-UKS iter  10:  -157.81305000606741   -6.89596e-10   6.14617e-08 DIIS
   @DF-UKS iter  11:  -157.81305000609720   -2.97860e-11   3.98185e-08 DIIS
   @DF-UKS iter  12:  -157.81305000611221   -1.50067e-11   3.88838e-09 DIIS
   @DF-UKS iter  13:  -157.81305000611246   -2.55795e-13   6.38615e-10 DIIS
   @DF-UKS iter  14:  -157.81305000611260   -1.42109e-13   1.15340e-10 DIIS
   @DF-UKS iter  15:  -157.81305000611258    2.84217e-14   4.76595e-11 DIIS
  Energy and wave function converged.


  ==> Post-Iterations <==

   @Spin Contamination Metric:   4.073327508E-03
   @S^2 Expected:                7.500000000E-01
   @S^2 Observed:                7.540733275E-01
   @S   Expected:                5.000000000E-01
   @S   Observed:                5.000000000E-01

    Orbital Energies [Eh]
    ---------------------

    Alpha Occupied:                                                       

       1Ap   -10.180401     1App  -10.167046     2Ap   -10.167028  
       3Ap   -10.166980     4Ap    -0.797729     2App   -0.686184  
       5Ap    -0.686183     6Ap    -0.530771     7Ap    -0.441028  
       8Ap    -0.434734     3App   -0.434697     9Ap    -0.382485  
       4App   -0.382435     5App   -0.363789     6App   -0.338085  
      10Ap    -0.338021    11Ap    -0.168999  

    Alpha Virtual:                                                        

      12Ap     0.076156     7App    0.133980    13Ap     0.134311  
       8App    0.142636    14Ap     0.142766    15Ap     0.154713  
       9App    0.178523    16Ap     0.178688    17Ap     0.203506  
      10App    0.215076    18Ap     0.275885    11App    0.276037  
      19Ap     0.399073    12App    0.399144    20Ap     0.403255  
      13App    0.424200    21Ap     0.424371    22Ap     0.456517  
      23Ap     0.495422    14App    0.495714    15App    0.512043  
      24Ap     0.513828    16App    0.578467    25Ap     0.578819  
      17App    0.591228    26Ap     0.591502    27Ap     0.601829  
      28Ap     0.625274    18App    0.632143    19App    0.636533  
      29Ap     0.636724    20App    0.662563    30Ap     0.663301  
      31Ap     0.683931    21App    0.684280    32Ap     0.735057  
      33Ap     0.825353    22App    0.825385    23App    0.853642  
      24App    0.914586    34Ap     0.915019    25App    0.944413  
      35Ap     0.944750    26App    0.961060    36Ap     0.961338  
      37Ap     1.003265    27App    1.128315    38Ap     1.128404  
      39Ap     1.141493    28App    1.163419    40Ap     1.163659  
      41Ap     1.223740    29App    1.274103    42Ap     1.274383  
      43Ap     1.279207    30App    1.324096    44Ap     1.324185  
      45Ap     1.356478    31App    1.365929    46Ap     1.366009  
      32App    1.392399    33App    1.402560    47Ap     1.403505  
      48Ap     1.417563    34App    1.418632    35App    1.427697  
      36App    1.491479    49Ap     1.498151    37App    1.542010  
      50Ap     1.542935    51Ap     1.574651    38App    1.574969  
      52Ap     1.671082    39App    1.738434    53Ap     1.738677  
      54Ap     1.766497    55Ap     1.831992    40App    1.833597  
      41App    1.972730    56Ap     2.018090    42App    2.018572  
      57Ap     2.019605    43App    2.050501    58Ap     2.052339  
      44App    2.738396    59Ap     2.739213    60Ap     2.790534  
      45App    2.811880    61Ap     2.889542    46App    2.889592  
      62Ap     2.894624    47App    2.929697    63Ap     2.929711  
      48App    2.958867    49App    2.963642    64Ap     2.964276  
      65Ap     3.033328    50App    3.071217    66Ap     3.071283  
      51App    3.085772    67Ap     3.168421    52App    3.168890  
      68Ap     3.180555    69Ap     3.284896    53App    3.285545  
      70Ap     3.327583    54App    3.327997    71Ap     3.375792  
      72Ap     3.489781    55App    3.490086    56App    3.512802  
      73Ap     3.526530    74Ap     3.567889    57App    3.568082  
      58App    3.574332    59App    3.665298    75Ap     3.666724  
      76Ap     3.680252    77Ap     3.694187    60App    3.694464  
      78Ap     3.777187    61App    3.777256    79Ap     3.788341  
      80Ap     3.912678    62App    3.912903    81Ap     4.034860  
      63App    4.110856    82Ap     4.111756    83Ap     4.146893  
      64App    4.148068    84Ap     4.171456    85Ap     4.202067  
      86Ap     4.203825    65App    4.204551    66App    4.209756  
      67App    4.314732    87Ap     4.316393    68App    4.360218  
      88Ap     4.423420    69App    4.424059    70App    4.443678  
      71App    4.515513    89Ap     4.516876    90Ap     4.578839  
      72App    4.579083    91Ap     4.617420    92Ap     4.708938  
      73App    4.774283    93Ap     4.775174    74App    4.838254  
      94Ap     4.963176    75App    5.000886    95Ap     5.002391  
      96Ap     5.225297    76App    5.247715    97Ap     5.251892  
      77App    5.352375    98Ap     5.354795    78App    5.481337  

    Beta Occupied:                                                        

       1App  -10.167801     1Ap   -10.167788     2Ap   -10.167748  
       3Ap   -10.166584     4Ap    -0.781061     2App   -0.684004  
       5Ap    -0.683993     6Ap    -0.511791     7Ap    -0.431128  
       3App   -0.431098     8Ap    -0.421662     9Ap    -0.376567  
       4App   -0.376474     5App   -0.362783     6App   -0.333197  
      10Ap    -0.333148  

    Beta Virtual:                                                         

      11Ap    -0.025873    12Ap     0.077182     7App    0.134953  
      13Ap     0.135264     8App    0.144505    14Ap     0.144585  
      15Ap     0.163190     9App    0.182146    16Ap     0.182350  
      10App    0.215298    17Ap     0.218887    18Ap     0.282235  
      11App    0.282392    19Ap     0.400245    12App    0.400314  
      20Ap     0.419798    13App    0.427011    21Ap     0.427182  
      22Ap     0.468325    23Ap     0.497685    14App    0.497991  
      15App    0.513786    24Ap     0.556134    16App    0.584059  
      25Ap     0.584381    17App    0.597377    26Ap     0.597698  
      27Ap     0.609372    28Ap     0.628526    18App    0.632307  
      19App    0.639769    29Ap     0.639973    20App    0.666190  
      30Ap     0.666864    31Ap     0.686571    21App    0.686885  
      32Ap     0.757577    33Ap     0.830540    22App    0.830577  
      23App    0.855005    24App    0.922588    34Ap     0.922994  
      25App    0.946242    35Ap     0.953729    26App    0.966303  
      36Ap     0.966638    37Ap     1.008465    38Ap     1.132408  
      27App    1.132438    39Ap     1.154950    28App    1.168431  
      40Ap     1.168748    41Ap     1.232696    29App    1.279667  
      42Ap     1.279966    43Ap     1.284907    30App    1.329135  
      44Ap     1.329219    45Ap     1.365870    46Ap     1.371276  
      31App    1.371293    32App    1.393474    33App    1.405919  
      47Ap     1.406964    48Ap     1.422560    34App    1.423669  
      35App    1.427972    36App    1.492501    49Ap     1.508603  
      37App    1.546462    50Ap     1.547359    51Ap     1.582522  
      38App    1.582810    52Ap     1.675980    39App    1.744189  
      53Ap     1.744441    54Ap     1.777258    55Ap     1.835842  
      40App    1.837461    41App    1.973577    42App    2.024789  
      56Ap     2.025765    57Ap     2.039585    43App    2.057387  
      58Ap     2.059141    44App    2.746749    59Ap     2.747549  
      45App    2.812295    60Ap     2.815632    61Ap     2.902176  
      46App    2.902305    62Ap     2.924109    47App    2.932147  
      63Ap     2.932223    48App    2.959926    49App    2.968138  
      64Ap     2.968803    65Ap     3.041476    50App    3.081007  
      66Ap     3.081273    51App    3.087602    67Ap     3.184070  
      52App    3.184766    68Ap     3.188228    69Ap     3.289714  
      53App    3.290386    70Ap     3.331330    54App    3.331789  
      71Ap     3.383584    72Ap     3.492511    55App    3.492738  
      56App    3.511166    73Ap     3.529561    57App    3.574162  
      74Ap     3.581357    58App    3.581659    59App    3.669913  
      75Ap     3.671429    76Ap     3.693523    77Ap     3.725804  
      60App    3.726090    61App    3.781658    78Ap     3.781717  
      79Ap     3.816908    80Ap     3.922528    62App    3.922798  
      81Ap     4.045809    63App    4.117694    82Ap     4.118554  
      83Ap     4.154154    64App    4.155215    84Ap     4.185532  
      85Ap     4.208811    65App    4.210655    86Ap     4.210995  
      66App    4.214366    67App    4.322101    87Ap     4.323772  
      68App    4.363536    88Ap     4.431631    69App    4.432274  
      70App    4.446508    71App    4.523334    89Ap     4.524704  
      90Ap     4.589384    72App    4.589656    91Ap     4.624522  
      92Ap     4.719399    73App    4.781186    93Ap     4.782079  
      74App    4.841159    94Ap     4.967984    75App    5.004971  
      95Ap     5.006437    96Ap     5.230976    76App    5.249497  
      97Ap     5.253652    77App    5.358817    98Ap     5.361258  
      78App    5.483645  

    Final Occupation by Irrep:
             Ap   App 
    DOCC [    10,    6 ]
    SOCC [     1,    0 ]

  @DF-UKS Final Energy:  -157.81305000611258

   => Energetics <=

    Nuclear Repulsion Energy =            125.3893124454146033
    One-Electron Energy =                -458.7382025145547004
    Two-Electron Energy =                 195.8428796194495192
    DFT Exchange-Correlation Energy =     -20.3070395564219730
    Empirical Dispersion Energy =           0.0000000000000000
    VV10 Nonlocal Energy =                  0.0000000000000000
    Total Energy =                       -157.8130500061125758

  UHF NO Occupations:
  HONO-2 :    9 Ap 1.9995985
  HONO-1 :   10 Ap 1.9989796
  HONO-0 :   11 Ap 1.0000000
  LUNO+0 :   12 Ap 0.0010204
  LUNO+1 :   13 Ap 0.0004015
  LUNO+2 :    7App 0.0001976
  LUNO+3 :   14 Ap 0.0001975


Computation Completed


Properties will be evaluated at   0.000000,   0.000000,   0.000000 [a0]

Properties computed using the SCF density matrix

  Nuclear Dipole Moment: [e a0]
     X:     0.8329      Y:     0.0016      Z:    -0.0000

  Electronic Dipole Moment: [e a0]
     X:    -0.7582      Y:    -0.0023      Z:     0.0000

  Dipole Moment: [e a0]
     X:     0.0747      Y:    -0.0006      Z:    -0.0000     Total:     0.0747

  Dipole Moment: [D]
     X:     0.1899      Y:    -0.0016      Z:    -0.0000     Total:     0.1899


*** tstop() called on n065 at Fri Nov  5 14:14:37 2021
Module time:
	user time   =     544.47 seconds =       9.07 minutes
	system time =      11.90 seconds =       0.20 minutes
	total time  =        140 seconds =       2.33 minutes
Total time:
	user time   =     544.47 seconds =       9.07 minutes
	system time =      11.90 seconds =       0.20 minutes
	total time  =        140 seconds =       2.33 minutes
Grab this energy -157.81305000611258
    Psi4 stopped on: Friday, 05 November 2021 02:14PM
    Psi4 wall time for execution: 0:02:19.92

*** Psi4 exiting successfully. Buy a developer a beer!
