
    -----------------------------------------------------------------------
          Psi4: An Open-Source Ab Initio Electronic Structure Package
                               Psi4 1.4a2.dev629 

                         Git: Rev {master} 2938fc2 dirty


    D. G. A. Smith, L. A. Burns, A. C. Simmonett, R. M. Parrish,
    M. C. Schieber, R. Galvelis, P. Kraus, H. Kruse, R. Di Remigio,
    A. Alenaizan, A. M. James, S. Lehtola, J. P. Misiewicz, M. Scheurer,
    R. A. Shaw, J. B. Schriber, Y. Xie, Z. L. Glick, D. A. Sirianni,
    J. S. O'Brien, J. M. Waldrop, A. Kumar, E. G. Hohenstein,
    B. P. Pritchard, B. R. Brooks, H. F. Schaefer III, A. Yu. Sokolov,
    K. Patkowski, A. E. DePrince III, U. Bozkaya, R. A. King,
    F. A. Evangelista, J. M. Turney, T. D. Crawford, C. D. Sherrill,
    J. Chem. Phys. 152(18) 184108 (2020). https://doi.org/10.1063/5.0006002

                            Additional Code Authors
    E. T. Seidl, C. L. Janssen, E. F. Valeev, M. L. Leininger,
    J. F. Gonthier, R. M. Richard, H. R. McAlexander, M. Saitow, X. Wang,
    P. Verma, and M. H. Lechner

             Previous Authors, Complete List of Code Contributors,
                       and Citations for Specific Modules
    https://github.com/psi4/psi4/blob/master/codemeta.json
    https://github.com/psi4/psi4/graphs/contributors
    http://psicode.org/psi4manual/master/introduction.html#citing-psifour

    -----------------------------------------------------------------------


    Psi4 started on: Friday, 05 November 2021 03:44PM

    Process ID: 19476
    Host:       n082
    PSIDATADIR: /opt/psi/4/master/share/psi4
    Memory:     500.0 MiB
    Threads:    4
    
  ==> Input File <==

--------------------------------------------------------------------------
import os
memory 14 GB 
 
molecule {
 C   -0.3233315558    0.0074227822    0.0000000000
 C    0.0618393868   -1.4029439252   -2.4213215931
 C    0.0596256285    2.8084177580   -0.0000000000
 C    0.0618393868   -1.4029439252    2.4213215931
 H    2.0885987719   -1.6524547308   -2.8368095663
 H   -0.7580095558   -0.3963034884   -4.0283689062
 H   -0.7704898164   -3.2905621668   -2.3364004046
 H    2.0834515706    3.2980803556   -0.0000000000
 H   -0.7681155466    3.6852917064    1.6769365031
 H   -0.7681155466    3.6852917064   -1.6769365031
 H    2.0885987719   -1.6524547308    2.8368095663
 H   -0.7704898164   -3.2905621668    2.3364004046
 H   -0.7580095558   -0.3963034884    4.0283689062
units bohr
0 2
}

basis {

assign 6-31g_2dfp_

[ 6-31g_2dfp_ ]

spherical

!----------------------------------------------------------------------
! Basis Set Exchange
! Version v0.8.13
! https://www.basissetexchange.org
!----------------------------------------------------------------------
!   Basis set: 6-31G(2df,p)
! Description: 6-31G(2df,p)
!        Role: orbital
!     Version: 0  (Data from the original Basis Set Exchange)
!----------------------------------------------------------------------


****
H     0
S    3   1.00
     18.7311370              0.03349460
      2.8253937              0.23472695
      0.6401217              0.81375733
S    1   1.00
      0.1612778              1.00000000
P    1   1.00
      1.5000000              1.0000000
P    1   1.00
      0.3750000              1.0000000
****
B     0
S    6   1.00
   2068.8823000              0.0018663
    310.6495700              0.0142515
     70.6830330              0.0695516
     19.8610800              0.2325729
      6.2993048              0.4670787
      2.1270270              0.3634314
SP   3   1.00
      4.7279710             -0.1303938              0.0745976
      1.1903377             -0.1307889              0.3078467
      0.3594117              1.1309444              0.7434568
SP   1   1.00
      0.1267512              1.0000000              1.0000000
D    1   1.00
      0.8020000              1.0000000
D    1   1.00
      0.2005000              1.0000000
F    1   1.00
      0.5000000              1.0000000
****
C     0
S    6   1.00
   3047.5249000              0.0018347
    457.3695100              0.0140373
    103.9486900              0.0688426
     29.2101550              0.2321844
      9.2866630              0.4679413
      3.1639270              0.3623120
SP   3   1.00
      7.8682724             -0.1193324              0.0689991
      1.8812885             -0.1608542              0.3164240
      0.5442493              1.1434564              0.7443083
SP   1   1.00
      0.1687144              1.0000000              1.0000000
D    1   1.00
      1.2520000              1.0000000
D    1   1.00
      0.3130000              1.0000000
F    1   1.00
      0.8000000              1.0000000
****
N     0
S    6   1.00
   4173.5110000              0.0018348
    627.4579000              0.0139950
    142.9021000              0.0685870
     40.2343300              0.2322410
     12.8202100              0.4690700
      4.3904370              0.3604550
SP   3   1.00
     11.6263580             -0.1149610              0.0675800
      2.7162800             -0.1691180              0.3239070
      0.7722180              1.1458520              0.7408950
SP   1   1.00
      0.2120313              1.0000000              1.0000000
D    1   1.00
      1.8260000              1.0000000
D    1   1.00
      0.4565000              1.0000000
F    1   1.00
      1.0000000              1.0000000
****
O     0
S    6   1.00
   5484.6717000              0.0018311
    825.2349500              0.0139501
    188.0469600              0.0684451
     52.9645000              0.2327143
     16.8975700              0.4701930
      5.7996353              0.3585209
SP   3   1.00
     15.5396160             -0.1107775              0.0708743
      3.5999336             -0.1480263              0.3397528
      1.0137618              1.1307670              0.7271586
SP   1   1.00
      0.2700058              1.0000000              1.0000000
D    1   1.00
      2.5840000              1.0000000
D    1   1.00
      0.6460000              1.0000000
F    1   1.00
      1.4000000              1.0000000
****
F     0
S    6   1.00
   7001.7130900              0.0018196169
   1051.3660900              0.0139160796
    239.2856900              0.0684053245
     67.3974453              0.233185760
     21.5199573              0.471267439
      7.40310130             0.356618546
SP   3   1.00
     20.8479528             -0.108506975            0.0716287243
      4.80830834            -0.146451658            0.3459121030
      1.34406986             1.128688580            0.7224699570
SP   1   1.00
      0.358151393            1.0000000              1.0000000
D    1   1.00
      3.5000000              1.0000000
D    1   1.00
      0.8750000              1.0000000
F    1   1.00
      1.8500000              1.0000000
****
Al     0
S    6   1.00
  13983.1000000              0.00194267
   2098.7500000              0.0148599
    477.7050000              0.0728494
    134.3600000              0.2468300
     42.8709000              0.4872580
     14.5189000              0.3234960
SP   6   1.00
    239.6680000             -0.00292619             0.00460285
     57.4419000             -0.0374080              0.0331990
     18.2859000             -0.1144870              0.1362820
      6.5991400              0.1156350              0.3304760
      2.4904900              0.6125950              0.4491460
      0.9445400              0.3937990              0.2657040
SP   3   1.00
      1.2779000             -0.2276060             -0.0175130
      0.3975900              0.00144583             0.2445330
      0.1600950              1.0927900              0.8049340
SP   1   1.00
      0.0556577              1.0000000              1.0000000
D    1   1.00
      0.6500000              1.0000000
D    1   1.00
      0.1625000              1.0000000
F    1   1.00
      0.2500000              1.0000000
****
Si     0
S    6   1.00
  16115.9000000              0.00195948
   2425.5800000              0.01492880
    553.8670000              0.07284780
    156.3400000              0.24613000
     50.0683000              0.48591400
     17.0178000              0.32500200
SP   6   1.00
    292.7180000             -0.00278094             0.00443826
     69.8731000             -0.03571460             0.03266790
     22.3363000             -0.11498500             0.13472100
      8.1503900              0.09356340             0.32867800
      3.1345800              0.60301700             0.44964000
      1.2254300              0.41895900             0.26137200
SP   3   1.00
      1.7273800             -0.24463000            -0.01779510
      0.5729220              0.00431572             0.25353900
      0.2221920              1.09818000             0.80066900
SP   1   1.00
      0.0778369              1.00000000             1.00000000
D    1   1.00
      0.9000000              1.0000000
D    1   1.00
      0.2250000              1.0000000
F    1   1.00
      0.3200000              1.0000000
****
P     0
S    6   1.00
  19413.3000000              0.0018516
   2909.4200000              0.0142062
    661.3640000              0.0699995
    185.7590000              0.2400790
     59.1943000              0.4847620
     20.0310000              0.3352000
SP   6   1.00
    339.4780000             -0.00278217             0.00456462
     81.0101000             -0.0360499              0.03369360
     25.8780000             -0.1166310              0.13975500
      9.4522100              0.0968328              0.33936200
      3.6656600              0.6144180              0.45092100
      1.4674600              0.4037980              0.23858600
SP   3   1.00
      2.1562300             -0.2529230             -0.01776530
      0.7489970              0.0328517              0.27405800
      0.2831450              1.0812500              0.78542100
SP   1   1.00
      0.0998317              1.0000000              1.00000000
D    1   1.00
      1.1000000              1.0000000
D    1   1.00
      0.2750000              1.0000000
F    1   1.00
      0.4500000              1.0000000
****
S     0
S    6   1.00
  21917.1000000              0.0018690
   3301.4900000              0.0142300
    754.1460000              0.0696960
    212.7110000              0.2384870
     67.9896000              0.4833070
     23.0515000              0.3380740
SP   6   1.00
    423.7350000             -0.0023767              0.0040610
    100.7100000             -0.0316930              0.0306810
     32.1599000             -0.1133170              0.1304520
     11.8079000              0.0560900              0.3272050
      4.6311000              0.5922550              0.4528510
      1.8702500              0.4550060              0.2560420
SP   3   1.00
      2.6158400             -0.2503740             -0.0145110
      0.9221670              0.0669570              0.3102630
      0.3412870              1.0545100              0.7544830
SP   1   1.00
      0.1171670              1.0000000              1.0000000
D    1   1.00
      1.3000000              1.0000000
D    1   1.00
      0.3250000              1.0000000
F    1   1.00
      0.5500000              1.0000000
****
Cl     0
S    6   1.00
  25180.1000000              0.0018330
   3780.3500000              0.0140340
    860.4740000              0.0690970
    242.1450000              0.2374520
     77.3349000              0.4830340
     26.2470000              0.3398560
SP   6   1.00
    491.7650000             -0.0022974              0.0039894
    116.9840000             -0.0307140              0.0303180
     37.4153000             -0.1125280              0.1298800
     13.7834000              0.0450160              0.3279510
      5.4521500              0.5893530              0.4535270
      2.2258800              0.4652060              0.2521540
SP   3   1.00
      3.1864900             -0.2518300             -0.0142990
      1.1442700              0.0615890              0.3235720
      0.4203770              1.0601800              0.7435070
SP   1   1.00
      0.1426570              1.0000000              1.0000000
D    1   1.00
      1.5000000              1.0000000
D    1   1.00
      0.3750000              1.0000000
F    1   1.00
      0.7000000              1.0000000
****
}


set {
reference uhf                          
freeze_core true
e_convergence 10                       
d_convergence 10                      
dft_spherical_points 1202
dft_radial_points 99
}

e = energy('b3lyp')

print_out('Grab this energy {0}'.format(e))
--------------------------------------------------------------------------

  Memory set to  13.039 GiB by Python driver.

Scratch directory: /tmp/

*** tstart() called on n082
*** at Fri Nov  5 15:44:47 2021

   => Loading Basis Set <=

    Name: ANONYMOUS6098D966
    Role: ORBITAL
    Keyword: BASIS
    atoms 1-4  entry C          line    48 inputblock 6-31g_2dfp_ 
    atoms 5-13 entry H          line    15 inputblock 6-31g_2dfp_ 


         ---------------------------------------------------------
                                   SCF
               by Justin Turney, Rob Parrish, Andy Simmonett
                          and Daniel G. A. Smith
                              UKS Reference
                        4 Threads,  13351 MiB Core
         ---------------------------------------------------------

  ==> Geometry <==

    Molecular point group: cs
    Full point group: Cs

    Geometry (in Bohr), charge = 0, multiplicity = 2:

       Center              X                  Y                   Z               Mass       
    ------------   -----------------  -----------------  -----------------  -----------------
         C           -0.323334027167     0.005506251824     0.000000000000    12.000000000000
         C            0.061836915433    -1.404860455576    -2.421321593100    12.000000000000
         C            0.059623157133     2.806501227624     0.000000000000    12.000000000000
         C            0.061836915433    -1.404860455576     2.421321593100    12.000000000000
         H            2.088596300533    -1.654371261176    -2.836809566300     1.007825032230
         H           -0.758012027167    -0.398220018776    -4.028368906200     1.007825032230
         H           -0.770492287767    -3.292478697176    -2.336400404600     1.007825032230
         H            2.083449099233     3.296163825224     0.000000000000     1.007825032230
         H           -0.768118017967     3.683375176024     1.676936503100     1.007825032230
         H           -0.768118017967     3.683375176024    -1.676936503100     1.007825032230
         H            2.088596300533    -1.654371261176     2.836809566300     1.007825032230
         H           -0.770492287767    -3.292478697176     2.336400404600     1.007825032230
         H           -0.758012027167    -0.398220018776     4.028368906200     1.007825032230

  Running in cs symmetry.

  Rotational constants: A =      0.26826  B =      0.26641  C =      0.14535 [cm^-1]
  Rotational constants: A =   8042.19171  B =   7986.68387  C =   4357.41344 [MHz]
  Nuclear repulsion =  125.394840591297964

  Charge       = 0
  Multiplicity = 2
  Electrons    = 33
  Nalpha       = 17
  Nbeta        = 16

  ==> Algorithm <==

  SCF Algorithm Type is DF.
  DIIS enabled.
  MOM disabled.
  Fractional occupation disabled.
  Guess Type is SAD.
  Energy threshold   = 1.00e-10
  Density threshold  = 1.00e-10
  Integral threshold = 0.00e+00

  ==> Primary Basis <==

  Basis Set: ANONYMOUS6098D966
    Blend: 6-31G_2DFP_
    Number of shells: 68
    Number of basis function: 176
    Number of Cartesian functions: 196
    Spherical Harmonics?: true
    Max angular momentum: 3

  ==> DFT Potential <==

   => Composite Functional: B3LYP <= 

    B3LYP Hyb-GGA Exchange-Correlation Functional

    P. J. Stephens, F. J. Devlin, C. F. Chabalowski, and M. J. Frisch, J. Phys. Chem. 98, 11623 (1994)

    Deriv               =              1
    GGA                 =           TRUE
    Meta                =          FALSE

    Exchange Hybrid     =           TRUE
    MP2 Hybrid          =          FALSE

   => Exchange Functionals <=

    0.0800   Slater exchange
    0.7200         Becke 88

   => Exact (HF) Exchange <=

    0.2000               HF 

   => Correlation Functionals <=

    0.1900   Vosko, Wilk & Nusair (VWN5_RPA)
    0.8100   Lee, Yang & Parr

   => Molecular Quadrature <=

    Radial Scheme          =       TREUTLER
    Pruning Scheme         =           NONE
    Nuclear Scheme         =       TREUTLER

    BS radius alpha        =              1
    Pruning alpha          =              1
    Radial Points          =             99
    Spherical Points       =           1202
    Total Points           =        1442229
    Total Blocks           =           9500
    Max Points             =            256
    Max Functions          =            176
    Weights Tolerance      =       1.00E-15

   => Loading Basis Set <=

    Name: (ANONYMOUS6098D966 AUX)
    Role: JKFIT
    Keyword: DF_BASIS_SCF
    atoms 1-4  entry C          line   198 file /opt/psi/4/master/share/psi4/basis/def2-universal-jkfit.gbs 
    atoms 5-13 entry H          line    18 file /opt/psi/4/master/share/psi4/basis/def2-universal-jkfit.gbs 

  ==> Integral Setup <==

  DFHelper Memory: AOs need 0.114 GiB; user supplied 3.915 GiB. Using in-core AOs.

  ==> MemDFJK: Density-Fitted J/K Matrices <==

    J tasked:                   Yes
    K tasked:                   Yes
    wK tasked:                   No
    OpenMP threads:               4
    Memory [MiB]:              4009
    Algorithm:                 Core
    Schwarz Cutoff:           1E-12
    Mask sparsity (%):       1.2913
    Fitting Condition:        1E-10

   => Auxiliary Basis Set <=

  Basis Set: (ANONYMOUS6098D966 AUX)
    Blend: DEF2-UNIVERSAL-JKFIT
    Number of shells: 154
    Number of basis function: 462
    Number of Cartesian functions: 536
    Spherical Harmonics?: true
    Max angular momentum: 4

  Cached 100.0% of DFT collocation blocks in 5.864 [GiB].

  Minimum eigenvalue in the overlap matrix is 1.2226076758E-03.
  Reciprocal condition number of the overlap matrix is 2.1980425751E-04.
    Using symmetric orthogonalization.

  ==> Pre-Iterations <==

  SCF Guess: Superposition of Atomic Densities via on-the-fly atomic UHF (no occupation information).

   -------------------------
    Irrep   Nso     Nmo    
   -------------------------
     A'        98      98 
     A"        78      78 
   -------------------------
    Total     176     176
   -------------------------

  ==> Iterations <==

                           Total Energy        Delta E     RMS |[F,P]|

   @DF-UKS iter SAD:  -157.07650566707170   -1.57077e+02   0.00000e+00 
   @DF-UKS iter   1:  -157.41664967859782   -3.40144e-01   6.77537e-03 DIIS
   @DF-UKS iter   2:  -157.26088925336475    1.55760e-01   7.78400e-03 DIIS
   @DF-UKS iter   3:  -157.80976601501433   -5.48877e-01   6.18847e-04 DIIS
   @DF-UKS iter   4:  -157.81215866949438   -2.39265e-03   3.39122e-04 DIIS
   @DF-UKS iter   5:  -157.81305444450908   -8.95775e-04   3.15774e-05 DIIS
   @DF-UKS iter   6:  -157.81306467607635   -1.02316e-05   1.15489e-05 DIIS
   @DF-UKS iter   7:  -157.81306629168975   -1.61561e-06   3.93082e-06 DIIS
   @DF-UKS iter   8:  -157.81306651126414   -2.19574e-07   1.06318e-06 DIIS
   @DF-UKS iter   9:  -157.81306653141812   -2.01540e-08   2.06742e-07 DIIS
   @DF-UKS iter  10:  -157.81306653201926   -6.01148e-10   1.60042e-07 DIIS
   @DF-UKS iter  11:  -157.81306653223919   -2.19927e-10   2.55968e-08 DIIS
   @DF-UKS iter  12:  -157.81306653224928   -1.00897e-11   3.86927e-09 DIIS
   @DF-UKS iter  13:  -157.81306653224948   -1.98952e-13   1.36297e-09 DIIS
   @DF-UKS iter  14:  -157.81306653224939    8.52651e-14   2.65739e-10 DIIS
   @DF-UKS iter  15:  -157.81306653224945   -5.68434e-14   4.12140e-11 DIIS
  Energy and wave function converged.


  ==> Post-Iterations <==

   @Spin Contamination Metric:   4.061432433E-03
   @S^2 Expected:                7.500000000E-01
   @S^2 Observed:                7.540614324E-01
   @S   Expected:                5.000000000E-01
   @S   Observed:                5.000000000E-01

    Orbital Energies [Eh]
    ---------------------

    Alpha Occupied:                                                       

       1Ap   -10.180342     2Ap   -10.167114     1App  -10.166983  
       3Ap   -10.166949     4Ap    -0.797768     5Ap    -0.686551  
       2App   -0.685821     6Ap    -0.530777     7Ap    -0.441127  
       8Ap    -0.434863     3App   -0.434478     9Ap    -0.382790  
       4App   -0.382407     5App   -0.363608    10Ap    -0.338422  
       6App   -0.337575    11Ap    -0.168962  

    Alpha Virtual:                                                        

      12Ap     0.076073    13Ap     0.133978     7App    0.134334  
      14Ap     0.142478     8App    0.142779    15Ap     0.154880  
      16Ap     0.178551     9App    0.179005    17Ap     0.203547  
      10App    0.214809    11App    0.275817    18Ap     0.276151  
      19Ap     0.399076    12App    0.399366    20Ap     0.403364  
      21Ap     0.424001    13App    0.424201    22Ap     0.456593  
      23Ap     0.494937    14App    0.495832    15App    0.512178  
      24Ap     0.513982    25Ap     0.578722    16App    0.578860  
      17App    0.591455    26Ap     0.591854    27Ap     0.602575  
      28Ap     0.624767    18App    0.631779    19App    0.635934  
      29Ap     0.636557    30Ap     0.663401    20App    0.663424  
      31Ap     0.683587    21App    0.684118    32Ap     0.734994  
      33Ap     0.824605    22App    0.826195    23App    0.853916  
      34Ap     0.914915    24App    0.915145    25App    0.944029  
      35Ap     0.944501    26App    0.961110    36Ap     0.961722  
      37Ap     1.003478    38Ap     1.126875    27App    1.129337  
      39Ap     1.142195    40Ap     1.162690    28App    1.163883  
      41Ap     1.223319    42Ap     1.274191    29App    1.274844  
      43Ap     1.279338    30App    1.324137    44Ap     1.324559  
      45Ap     1.356006    46Ap     1.365627    31App    1.366434  
      32App    1.392435    47Ap     1.403574    33App    1.404572  
      48Ap     1.416890    34App    1.417327    35App    1.427904  
      36App    1.491432    49Ap     1.499073    50Ap     1.542595  
      37App    1.543099    51Ap     1.572378    38App    1.576636  
      52Ap     1.669814    53Ap     1.738612    39App    1.740210  
      54Ap     1.768333    55Ap     1.831299    40App    1.831494  
      41App    1.971743    56Ap     2.017453    57Ap     2.018488  
      42App    2.020454    58Ap     2.051067    43App    2.054268  
      59Ap     2.738275    44App    2.738700    60Ap     2.790923  
      45App    2.811432    46App    2.889441    61Ap     2.890435  
      62Ap     2.894968    63Ap     2.929139    47App    2.929839  
      48App    2.958986    64Ap     2.963208    49App    2.965582  
      65Ap     3.034018    66Ap     3.070583    50App    3.071928  
      51App    3.084380    67Ap     3.168057    52App    3.169575  
      68Ap     3.180568    53App    3.284555    69Ap     3.286047  
      70Ap     3.326671    54App    3.327682    71Ap     3.375656  
      72Ap     3.489891    55App    3.490329    56App    3.514052  
      73Ap     3.525308    74Ap     3.568129    57App    3.568545  
      58App    3.575297    75Ap     3.666059    59App    3.666726  
      76Ap     3.679662    60App    3.693319    77Ap     3.694925  
      78Ap     3.776021    61App    3.777341    79Ap     3.789404  
      80Ap     3.911302    62App    3.913171    81Ap     4.034459  
      82Ap     4.111038    63App    4.111721    83Ap     4.147016  
      64App    4.149220    84Ap     4.173217    85Ap     4.201846  
      86Ap     4.202701    65App    4.204031    66App    4.211107  
      67App    4.315430    87Ap     4.316481    68App    4.358965  
      88Ap     4.423804    69App    4.425030    70App    4.443510  
      89Ap     4.516773    71App    4.516958    90Ap     4.577838  
      72App    4.578698    91Ap     4.617511    92Ap     4.709451  
      93Ap     4.772723    73App    4.776494    74App    4.836913  
      94Ap     4.962866    95Ap     5.002601    75App    5.003302  
      96Ap     5.228019    76App    5.246779    97Ap     5.246859  
      77App    5.355250    98Ap     5.355753    78App    5.479335  

    Beta Occupied:                                                        

       1Ap   -10.167871     1App  -10.167736     2Ap   -10.167718  
       3Ap   -10.166520     4Ap    -0.781093     5Ap    -0.684346  
       2App   -0.683632     6Ap    -0.511748     7Ap    -0.431238  
       3App   -0.430848     8Ap    -0.421823     9Ap    -0.376873  
       4App   -0.376495     5App   -0.362592    10Ap    -0.333549  
       6App   -0.332694  

    Beta Virtual:                                                         

      11Ap    -0.025743    12Ap     0.077082    13Ap     0.134861  
       7App    0.135230    14Ap     0.144344     8App    0.144653  
      15Ap     0.163339    16Ap     0.182221     9App    0.182678  
      10App    0.215039    17Ap     0.218929    11App    0.282188  
      18Ap     0.282477    19Ap     0.400283    12App    0.400517  
      20Ap     0.419786    21Ap     0.426813    13App    0.427014  
      22Ap     0.468502    23Ap     0.497202    14App    0.498089  
      15App    0.513913    24Ap     0.556325    25Ap     0.584316  
      16App    0.584371    17App    0.597664    26Ap     0.597994  
      27Ap     0.610001    28Ap     0.628143    18App    0.631934  
      19App    0.639182    29Ap     0.639881    30Ap     0.666927  
      20App    0.667025    31Ap     0.686183    21App    0.686793  
      32Ap     0.757516    33Ap     0.829736    22App    0.831401  
      23App    0.855269    34Ap     0.922875    24App    0.923125  
      25App    0.945892    35Ap     0.953408    26App    0.966311  
      36Ap     0.967137    37Ap     1.008714    38Ap     1.130870  
      27App    1.133411    39Ap     1.155542    40Ap     1.167814  
      28App    1.168924    41Ap     1.232287    42Ap     1.279795  
      29App    1.280439    43Ap     1.285090    30App    1.329124  
      44Ap     1.329552    45Ap     1.365421    46Ap     1.370729  
      31App    1.371814    32App    1.393497    47Ap     1.407101  
      33App    1.407977    48Ap     1.421931    34App    1.422384  
      35App    1.428174    36App    1.492483    49Ap     1.509517  
      50Ap     1.546861    37App    1.547642    51Ap     1.580449  
      38App    1.584313    52Ap     1.674661    53Ap     1.744392  
      39App    1.745953    54Ap     1.779111    55Ap     1.835143  
      40App    1.835360    41App    1.972605    56Ap     2.024023  
      42App    2.026877    57Ap     2.039678    58Ap     2.057837  
      43App    2.060921    59Ap     2.746594    44App    2.747054  
      45App    2.811845    60Ap     2.816058    46App    2.902219  
      61Ap     2.903054    62Ap     2.924643    63Ap     2.931725  
      47App    2.932228    48App    2.960054    64Ap     2.967802  
      49App    2.970072    65Ap     3.041950    66Ap     3.080345  
      50App    3.081820    51App    3.086378    67Ap     3.183980  
      52App    3.185127    68Ap     3.188258    53App    3.289418  
      69Ap     3.290789    70Ap     3.330461    54App    3.331503  
      71Ap     3.383472    72Ap     3.492650    55App    3.493021  
      56App    3.512425    73Ap     3.528356    57App    3.574849  
      74Ap     3.581436    58App    3.582223    75Ap     3.670918  
      59App    3.671365    76Ap     3.692952    60App    3.725158  
      77Ap     3.726351    78Ap     3.780795    61App    3.781801  
      79Ap     3.817763    80Ap     3.921077    62App    3.923032  
      81Ap     4.045349    82Ap     4.117857    63App    4.118531  
      83Ap     4.154214    64App    4.156441    84Ap     4.187275  
      85Ap     4.207798    65App    4.209918    86Ap     4.210642  
      66App    4.215647    67App    4.322819    87Ap     4.323971  
      68App    4.362327    88Ap     4.432067    69App    4.433182  
      70App    4.446411    89Ap     4.524650    71App    4.524657  
      90Ap     4.588360    72App    4.589375    91Ap     4.624705  
      92Ap     4.719799    93Ap     4.779680    73App    4.783442  
      74App    4.839831    94Ap     4.967660    95Ap     5.006660  
      75App    5.007322    96Ap     5.233729    76App    5.248570  
      97Ap     5.248641    77App    5.361727    98Ap     5.362237  
      78App    5.481657  

    Final Occupation by Irrep:
             Ap   App 
    DOCC [    10,    6 ]
    SOCC [     1,    0 ]

  @DF-UKS Final Energy:  -157.81306653224945

   => Energetics <=

    Nuclear Repulsion Energy =            125.3948405912979638
    One-Electron Energy =                -458.7493376773076648
    Two-Electron Energy =                 195.8485742081613239
    DFT Exchange-Correlation Energy =     -20.3071436544010773
    Empirical Dispersion Energy =           0.0000000000000000
    VV10 Nonlocal Energy =                  0.0000000000000000
    Total Energy =                       -157.8130665322494508

  UHF NO Occupations:
  HONO-2 :    9 Ap 1.9996009
  HONO-1 :   10 Ap 1.9989805
  HONO-0 :   11 Ap 1.0000000
  LUNO+0 :   12 Ap 0.0010195
  LUNO+1 :   13 Ap 0.0003991
  LUNO+2 :    7App 0.0001985
  LUNO+3 :   14 Ap 0.0001966


Computation Completed


Properties will be evaluated at   0.000000,   0.000000,   0.000000 [a0]

Properties computed using the SCF density matrix

  Nuclear Dipole Moment: [e a0]
     X:     0.8272      Y:    -0.0135      Z:    -0.0000

  Electronic Dipole Moment: [e a0]
     X:    -0.7493      Y:     0.0142      Z:     0.0000

  Dipole Moment: [e a0]
     X:     0.0779      Y:     0.0007      Z:    -0.0000     Total:     0.0779

  Dipole Moment: [D]
     X:     0.1980      Y:     0.0018      Z:    -0.0000     Total:     0.1980


*** tstop() called on n082 at Fri Nov  5 15:47:25 2021
Module time:
	user time   =     624.15 seconds =      10.40 minutes
	system time =       5.60 seconds =       0.09 minutes
	total time  =        158 seconds =       2.63 minutes
Total time:
	user time   =     624.15 seconds =      10.40 minutes
	system time =       5.60 seconds =       0.09 minutes
	total time  =        158 seconds =       2.63 minutes
Grab this energy -157.81306653224945
    Psi4 stopped on: Friday, 05 November 2021 03:47PM
    Psi4 wall time for execution: 0:02:38.17

*** Psi4 exiting successfully. Buy a developer a beer!
