
    -----------------------------------------------------------------------
          Psi4: An Open-Source Ab Initio Electronic Structure Package
                               Psi4 1.4a2.dev629 

                         Git: Rev {master} 2938fc2 dirty


    D. G. A. Smith, L. A. Burns, A. C. Simmonett, R. M. Parrish,
    M. C. Schieber, R. Galvelis, P. Kraus, H. Kruse, R. Di Remigio,
    A. Alenaizan, A. M. James, S. Lehtola, J. P. Misiewicz, M. Scheurer,
    R. A. Shaw, J. B. Schriber, Y. Xie, Z. L. Glick, D. A. Sirianni,
    J. S. O'Brien, J. M. Waldrop, A. Kumar, E. G. Hohenstein,
    B. P. Pritchard, B. R. Brooks, H. F. Schaefer III, A. Yu. Sokolov,
    K. Patkowski, A. E. DePrince III, U. Bozkaya, R. A. King,
    F. A. Evangelista, J. M. Turney, T. D. Crawford, C. D. Sherrill,
    J. Chem. Phys. 152(18) 184108 (2020). https://doi.org/10.1063/5.0006002

                            Additional Code Authors
    E. T. Seidl, C. L. Janssen, E. F. Valeev, M. L. Leininger,
    J. F. Gonthier, R. M. Richard, H. R. McAlexander, M. Saitow, X. Wang,
    P. Verma, and M. H. Lechner

             Previous Authors, Complete List of Code Contributors,
                       and Citations for Specific Modules
    https://github.com/psi4/psi4/blob/master/codemeta.json
    https://github.com/psi4/psi4/graphs/contributors
    http://psicode.org/psi4manual/master/introduction.html#citing-psifour

    -----------------------------------------------------------------------


    Psi4 started on: Tuesday, 09 November 2021 05:08PM

    Process ID: 13352
    Host:       n036
    PSIDATADIR: /opt/psi/4/master/share/psi4
    Memory:     500.0 MiB
    Threads:    4
    
  ==> Input File <==

--------------------------------------------------------------------------
import os
memory 14 GB 
 
molecule {
 C   -2.3872180340   -1.3712196956    0.1959043788
 C   -0.0036708973   -0.0238154676   -0.6799783087
 C    2.3895314108   -1.3741596220    0.1986917305
 H   -4.0668334564   -0.3662604459   -0.4552715743
 H   -2.4422611348   -1.4792401607    2.2559680664
 H   -2.4438801027   -3.2984602448   -0.5459963254
 H   -0.0079660942    0.0744274640   -2.7351240754
 O   -0.0017120799    2.5579665477    0.1063738997
 H    0.0004819854    2.5604770400    1.9233008521
 H    4.0666623484   -0.3690217376   -0.4572575302
 H    2.4496556240   -3.3053732818   -0.5374555250
 H    2.4472085207   -1.4784409758    2.2617793914
units bohr
}

basis {

assign 6-31g_2dfp_

[ 6-31g_2dfp_ ]

spherical

!----------------------------------------------------------------------
! Basis Set Exchange
! Version v0.8.13
! https://www.basissetexchange.org
!----------------------------------------------------------------------
!   Basis set: 6-31G(2df,p)
! Description: 6-31G(2df,p)
!        Role: orbital
!     Version: 0  (Data from the original Basis Set Exchange)
!----------------------------------------------------------------------


****
H     0
S    3   1.00
     18.7311370              0.03349460
      2.8253937              0.23472695
      0.6401217              0.81375733
S    1   1.00
      0.1612778              1.00000000
P    1   1.00
      1.5000000              1.0000000
P    1   1.00
      0.3750000              1.0000000
****
B     0
S    6   1.00
   2068.8823000              0.0018663
    310.6495700              0.0142515
     70.6830330              0.0695516
     19.8610800              0.2325729
      6.2993048              0.4670787
      2.1270270              0.3634314
SP   3   1.00
      4.7279710             -0.1303938              0.0745976
      1.1903377             -0.1307889              0.3078467
      0.3594117              1.1309444              0.7434568
SP   1   1.00
      0.1267512              1.0000000              1.0000000
D    1   1.00
      0.8020000              1.0000000
D    1   1.00
      0.2005000              1.0000000
F    1   1.00
      0.5000000              1.0000000
****
C     0
S    6   1.00
   3047.5249000              0.0018347
    457.3695100              0.0140373
    103.9486900              0.0688426
     29.2101550              0.2321844
      9.2866630              0.4679413
      3.1639270              0.3623120
SP   3   1.00
      7.8682724             -0.1193324              0.0689991
      1.8812885             -0.1608542              0.3164240
      0.5442493              1.1434564              0.7443083
SP   1   1.00
      0.1687144              1.0000000              1.0000000
D    1   1.00
      1.2520000              1.0000000
D    1   1.00
      0.3130000              1.0000000
F    1   1.00
      0.8000000              1.0000000
****
N     0
S    6   1.00
   4173.5110000              0.0018348
    627.4579000              0.0139950
    142.9021000              0.0685870
     40.2343300              0.2322410
     12.8202100              0.4690700
      4.3904370              0.3604550
SP   3   1.00
     11.6263580             -0.1149610              0.0675800
      2.7162800             -0.1691180              0.3239070
      0.7722180              1.1458520              0.7408950
SP   1   1.00
      0.2120313              1.0000000              1.0000000
D    1   1.00
      1.8260000              1.0000000
D    1   1.00
      0.4565000              1.0000000
F    1   1.00
      1.0000000              1.0000000
****
O     0
S    6   1.00
   5484.6717000              0.0018311
    825.2349500              0.0139501
    188.0469600              0.0684451
     52.9645000              0.2327143
     16.8975700              0.4701930
      5.7996353              0.3585209
SP   3   1.00
     15.5396160             -0.1107775              0.0708743
      3.5999336             -0.1480263              0.3397528
      1.0137618              1.1307670              0.7271586
SP   1   1.00
      0.2700058              1.0000000              1.0000000
D    1   1.00
      2.5840000              1.0000000
D    1   1.00
      0.6460000              1.0000000
F    1   1.00
      1.4000000              1.0000000
****
F     0
S    6   1.00
   7001.7130900              0.0018196169
   1051.3660900              0.0139160796
    239.2856900              0.0684053245
     67.3974453              0.233185760
     21.5199573              0.471267439
      7.40310130             0.356618546
SP   3   1.00
     20.8479528             -0.108506975            0.0716287243
      4.80830834            -0.146451658            0.3459121030
      1.34406986             1.128688580            0.7224699570
SP   1   1.00
      0.358151393            1.0000000              1.0000000
D    1   1.00
      3.5000000              1.0000000
D    1   1.00
      0.8750000              1.0000000
F    1   1.00
      1.8500000              1.0000000
****
Al     0
S    6   1.00
  13983.1000000              0.00194267
   2098.7500000              0.0148599
    477.7050000              0.0728494
    134.3600000              0.2468300
     42.8709000              0.4872580
     14.5189000              0.3234960
SP   6   1.00
    239.6680000             -0.00292619             0.00460285
     57.4419000             -0.0374080              0.0331990
     18.2859000             -0.1144870              0.1362820
      6.5991400              0.1156350              0.3304760
      2.4904900              0.6125950              0.4491460
      0.9445400              0.3937990              0.2657040
SP   3   1.00
      1.2779000             -0.2276060             -0.0175130
      0.3975900              0.00144583             0.2445330
      0.1600950              1.0927900              0.8049340
SP   1   1.00
      0.0556577              1.0000000              1.0000000
D    1   1.00
      0.6500000              1.0000000
D    1   1.00
      0.1625000              1.0000000
F    1   1.00
      0.2500000              1.0000000
****
Si     0
S    6   1.00
  16115.9000000              0.00195948
   2425.5800000              0.01492880
    553.8670000              0.07284780
    156.3400000              0.24613000
     50.0683000              0.48591400
     17.0178000              0.32500200
SP   6   1.00
    292.7180000             -0.00278094             0.00443826
     69.8731000             -0.03571460             0.03266790
     22.3363000             -0.11498500             0.13472100
      8.1503900              0.09356340             0.32867800
      3.1345800              0.60301700             0.44964000
      1.2254300              0.41895900             0.26137200
SP   3   1.00
      1.7273800             -0.24463000            -0.01779510
      0.5729220              0.00431572             0.25353900
      0.2221920              1.09818000             0.80066900
SP   1   1.00
      0.0778369              1.00000000             1.00000000
D    1   1.00
      0.9000000              1.0000000
D    1   1.00
      0.2250000              1.0000000
F    1   1.00
      0.3200000              1.0000000
****
P     0
S    6   1.00
  19413.3000000              0.0018516
   2909.4200000              0.0142062
    661.3640000              0.0699995
    185.7590000              0.2400790
     59.1943000              0.4847620
     20.0310000              0.3352000
SP   6   1.00
    339.4780000             -0.00278217             0.00456462
     81.0101000             -0.0360499              0.03369360
     25.8780000             -0.1166310              0.13975500
      9.4522100              0.0968328              0.33936200
      3.6656600              0.6144180              0.45092100
      1.4674600              0.4037980              0.23858600
SP   3   1.00
      2.1562300             -0.2529230             -0.01776530
      0.7489970              0.0328517              0.27405800
      0.2831450              1.0812500              0.78542100
SP   1   1.00
      0.0998317              1.0000000              1.00000000
D    1   1.00
      1.1000000              1.0000000
D    1   1.00
      0.2750000              1.0000000
F    1   1.00
      0.4500000              1.0000000
****
S     0
S    6   1.00
  21917.1000000              0.0018690
   3301.4900000              0.0142300
    754.1460000              0.0696960
    212.7110000              0.2384870
     67.9896000              0.4833070
     23.0515000              0.3380740
SP   6   1.00
    423.7350000             -0.0023767              0.0040610
    100.7100000             -0.0316930              0.0306810
     32.1599000             -0.1133170              0.1304520
     11.8079000              0.0560900              0.3272050
      4.6311000              0.5922550              0.4528510
      1.8702500              0.4550060              0.2560420
SP   3   1.00
      2.6158400             -0.2503740             -0.0145110
      0.9221670              0.0669570              0.3102630
      0.3412870              1.0545100              0.7544830
SP   1   1.00
      0.1171670              1.0000000              1.0000000
D    1   1.00
      1.3000000              1.0000000
D    1   1.00
      0.3250000              1.0000000
F    1   1.00
      0.5500000              1.0000000
****
Cl     0
S    6   1.00
  25180.1000000              0.0018330
   3780.3500000              0.0140340
    860.4740000              0.0690970
    242.1450000              0.2374520
     77.3349000              0.4830340
     26.2470000              0.3398560
SP   6   1.00
    491.7650000             -0.0022974              0.0039894
    116.9840000             -0.0307140              0.0303180
     37.4153000             -0.1125280              0.1298800
     13.7834000              0.0450160              0.3279510
      5.4521500              0.5893530              0.4535270
      2.2258800              0.4652060              0.2521540
SP   3   1.00
      3.1864900             -0.2518300             -0.0142990
      1.1442700              0.0615890              0.3235720
      0.4203770              1.0601800              0.7435070
SP   1   1.00
      0.1426570              1.0000000              1.0000000
D    1   1.00
      1.5000000              1.0000000
D    1   1.00
      0.3750000              1.0000000
F    1   1.00
      0.7000000              1.0000000
****
}


set {
reference rhf                          
freeze_core true
e_convergence 10                       
d_convergence 10                      
dft_spherical_points 1202
dft_radial_points 99
}

e = energy('b3lyp')

print_out('Grab this energy {0}'.format(e))
--------------------------------------------------------------------------

  Memory set to  13.039 GiB by Python driver.

Scratch directory: /tmp/

*** tstart() called on n036
*** at Tue Nov  9 17:08:47 2021

   => Loading Basis Set <=

    Name: ANONYMOUSE3A1FFB4
    Role: ORBITAL
    Keyword: BASIS
    atoms 1-3       entry C          line    48 inputblock 6-31g_2dfp_ 
    atoms 4-7, 9-12 entry H          line    15 inputblock 6-31g_2dfp_ 
    atoms 8         entry O          line    90 inputblock 6-31g_2dfp_ 


         ---------------------------------------------------------
                                   SCF
               by Justin Turney, Rob Parrish, Andy Simmonett
                          and Daniel G. A. Smith
                              RKS Reference
                        4 Threads,  13351 MiB Core
         ---------------------------------------------------------

  ==> Geometry <==

    Molecular point group: c1
    Full point group: C1

    Geometry (in Bohr), charge = 0, multiplicity = 1:

       Center              X                  Y                   Z               Mass       
    ------------   -----------------  -----------------  -----------------  -----------------
         C           -2.386542296372    -1.370591501286     0.195901403460    12.000000000000
         C           -0.002995159672    -0.023187273286    -0.679981284040    12.000000000000
         C            2.390207148428    -1.373531427686     0.198688755160    12.000000000000
         H           -4.066157718772    -0.365632251586    -0.455274549640     1.007825032230
         H           -2.441585397172    -1.478611966386     2.255965091060     1.007825032230
         H           -2.443204365072    -3.297832050486    -0.545999300740     1.007825032230
         H           -0.007290356572     0.075055658314    -2.735127050740     1.007825032230
         O           -0.001036342272     2.558594742014     0.106370924360    15.994914619570
         H            0.001157723028     2.561105234314     1.923297876760     1.007825032230
         H            4.067338086028    -0.368393543286    -0.457260505540     1.007825032230
         H            2.450331361628    -3.304745087486    -0.537458500340     1.007825032230
         H            2.447884258328    -1.477812781486     2.261776416060     1.007825032230

  Running in c1 symmetry.

  Rotational constants: A =      0.28345  B =      0.26925  C =      0.15946 [cm^-1]
  Rotational constants: A =   8497.75575  B =   8071.77662  C =   4780.63193 [MHz]
  Nuclear repulsion =  134.751254906172562

  Charge       = 0
  Multiplicity = 1
  Electrons    = 34
  Nalpha       = 17
  Nbeta        = 17

  ==> Algorithm <==

  SCF Algorithm Type is DF.
  DIIS enabled.
  MOM disabled.
  Fractional occupation disabled.
  Guess Type is SAD.
  Energy threshold   = 1.00e-10
  Density threshold  = 1.00e-10
  Integral threshold = 0.00e+00

  ==> Primary Basis <==

  Basis Set: ANONYMOUSE3A1FFB4
    Blend: 6-31G_2DFP_
    Number of shells: 64
    Number of basis function: 168
    Number of Cartesian functions: 188
    Spherical Harmonics?: true
    Max angular momentum: 3

  ==> DFT Potential <==

   => Composite Functional: B3LYP <= 

    B3LYP Hyb-GGA Exchange-Correlation Functional

    P. J. Stephens, F. J. Devlin, C. F. Chabalowski, and M. J. Frisch, J. Phys. Chem. 98, 11623 (1994)

    Deriv               =              1
    GGA                 =           TRUE
    Meta                =          FALSE

    Exchange Hybrid     =           TRUE
    MP2 Hybrid          =          FALSE

   => Exchange Functionals <=

    0.0800   Slater exchange
    0.7200         Becke 88

   => Exact (HF) Exchange <=

    0.2000               HF 

   => Correlation Functionals <=

    0.1900   Vosko, Wilk & Nusair (VWN5_RPA)
    0.8100   Lee, Yang & Parr

   => Molecular Quadrature <=

    Radial Scheme          =       TREUTLER
    Pruning Scheme         =           NONE
    Nuclear Scheme         =       TREUTLER

    BS radius alpha        =              1
    Pruning alpha          =              1
    Radial Points          =             99
    Spherical Points       =           1202
    Total Points           =        1330632
    Total Blocks           =           8875
    Max Points             =            256
    Max Functions          =            168
    Weights Tolerance      =       1.00E-15

   => Loading Basis Set <=

    Name: (ANONYMOUSE3A1FFB4 AUX)
    Role: JKFIT
    Keyword: DF_BASIS_SCF
    atoms 1-3       entry C          line   198 file /opt/psi/4/master/share/psi4/basis/def2-universal-jkfit.gbs 
    atoms 4-7, 9-12 entry H          line    18 file /opt/psi/4/master/share/psi4/basis/def2-universal-jkfit.gbs 
    atoms 8         entry O          line   318 file /opt/psi/4/master/share/psi4/basis/def2-universal-jkfit.gbs 

  ==> Integral Setup <==

  DFHelper Memory: AOs need 0.101 GiB; user supplied 4.610 GiB. Using in-core AOs.

  ==> MemDFJK: Density-Fitted J/K Matrices <==

    J tasked:                   Yes
    K tasked:                   Yes
    wK tasked:                   No
    OpenMP threads:               4
    Memory [MiB]:              4720
    Algorithm:                 Core
    Schwarz Cutoff:           1E-12
    Mask sparsity (%):       0.9637
    Fitting Condition:        1E-10

   => Auxiliary Basis Set <=

  Basis Set: (ANONYMOUSE3A1FFB4 AUX)
    Blend: DEF2-UNIVERSAL-JKFIT
    Number of shells: 148
    Number of basis function: 446
    Number of Cartesian functions: 520
    Spherical Harmonics?: true
    Max angular momentum: 4

  Cached 100.0% of DFT collocation blocks in 5.169 [GiB].

  Minimum eigenvalue in the overlap matrix is 1.3880766962E-03.
  Reciprocal condition number of the overlap matrix is 2.3032138422E-04.
    Using symmetric orthogonalization.

  ==> Pre-Iterations <==

  SCF Guess: Superposition of Atomic Densities via on-the-fly atomic UHF (no occupation information).

   -------------------------
    Irrep   Nso     Nmo    
   -------------------------
     A        168     168 
   -------------------------
    Total     168     168
   -------------------------

  ==> Iterations <==

                           Total Energy        Delta E     RMS |[F,P]|

   @DF-RKS iter SAD:  -193.70814712079871   -1.93708e+02   0.00000e+00 
   @DF-RKS iter   1:  -194.02071350779684   -3.12566e-01   5.02972e-03 DIIS
   @DF-RKS iter   2:  -193.86321739392775    1.57496e-01   6.08000e-03 DIIS
   @DF-RKS iter   3:  -194.37048879827515   -5.07271e-01   5.88992e-04 DIIS
   @DF-RKS iter   4:  -194.37352156530844   -3.03277e-03   2.72212e-04 DIIS
   @DF-RKS iter   5:  -194.37436807815615   -8.46513e-04   5.15446e-05 DIIS
   @DF-RKS iter   6:  -194.37439702836485   -2.89502e-05   1.78419e-05 DIIS
   @DF-RKS iter   7:  -194.37440086729862   -3.83893e-06   2.76752e-06 DIIS
   @DF-RKS iter   8:  -194.37440097355025   -1.06252e-07   6.36129e-07 DIIS
   @DF-RKS iter   9:  -194.37440097985404   -6.30379e-09   4.11310e-08 DIIS
   @DF-RKS iter  10:  -194.37440097987491   -2.08615e-11   1.59710e-08 DIIS
   @DF-RKS iter  11:  -194.37440097987832   -3.41061e-12   4.76551e-09 DIIS
   @DF-RKS iter  12:  -194.37440097987894   -6.25278e-13   1.43033e-09 DIIS
   @DF-RKS iter  13:  -194.37440097987877    1.70530e-13   1.69497e-10 DIIS
   @DF-RKS iter  14:  -194.37440097987835    4.26326e-13   2.13968e-11 DIIS
  Energy and wave function converged.


  ==> Post-Iterations <==

    Orbital Energies [Eh]
    ---------------------

    Doubly Occupied:                                                      

       1A    -19.132315     2A    -10.226158     3A    -10.168867  
       4A    -10.168370     5A     -1.011122     6A     -0.768211  
       7A     -0.688600     8A     -0.597895     9A     -0.475412  
      10A     -0.465608    11A     -0.423808    12A     -0.408969  
      13A     -0.388932    14A     -0.357528    15A     -0.353518  
      16A     -0.316413    17A     -0.264596  

    Virtual:                                                              

      18A      0.066445    19A      0.108382    20A      0.125413  
      21A      0.135893    22A      0.144992    23A      0.163299  
      24A      0.179818    25A      0.184553    26A      0.217968  
      27A      0.226422    28A      0.251116    29A      0.391097  
      30A      0.415701    31A      0.423677    32A      0.449865  
      33A      0.471645    34A      0.482331    35A      0.491550  
      36A      0.523018    37A      0.546656    38A      0.572838  
      39A      0.593243    40A      0.597841    41A      0.600746  
      42A      0.611551    43A      0.613671    44A      0.622957  
      45A      0.638521    46A      0.663041    47A      0.665757  
      48A      0.747258    49A      0.757639    50A      0.822505  
      51A      0.840294    52A      0.890264    53A      0.909102  
      54A      0.945498    55A      0.956763    56A      1.007073  
      57A      1.012942    58A      1.022320    59A      1.090050  
      60A      1.113748    61A      1.117408    62A      1.173682  
      63A      1.174885    64A      1.188640    65A      1.252320  
      66A      1.276505    67A      1.285124    68A      1.313947  
      69A      1.349056    70A      1.353818    71A      1.364727  
      72A      1.384454    73A      1.415400    74A      1.431197  
      75A      1.431478    76A      1.469371    77A      1.493748  
      78A      1.529999    79A      1.548737    80A      1.589880  
      81A      1.614961    82A      1.659123    83A      1.663081  
      84A      1.738906    85A      1.785912    86A      1.816161  
      87A      1.832058    88A      1.891072    89A      1.996431  
      90A      2.009349    91A      2.017653    92A      2.079362  
      93A      2.099792    94A      2.285125    95A      2.396723  
      96A      2.641488    97A      2.724343    98A      2.831500  
      99A      2.856965   100A      2.882395   101A      2.919505  
     102A      2.943979   103A      2.958027   104A      2.986821  
     105A      3.013083   106A      3.043418   107A      3.079625  
     108A      3.105530   109A      3.170700   110A      3.269444  
     111A      3.317952   112A      3.359489   113A      3.390377  
     114A      3.426759   115A      3.487629   116A      3.496821  
     117A      3.504516   118A      3.528061   119A      3.575125  
     120A      3.594646   121A      3.596445   122A      3.659588  
     123A      3.706612   124A      3.753467   125A      3.758753  
     126A      3.776800   127A      3.852368   128A      3.988477  
     129A      3.995384   130A      4.066896   131A      4.078071  
     132A      4.128817   133A      4.129370   134A      4.152259  
     135A      4.172169   136A      4.213107   137A      4.227095  
     138A      4.245457   139A      4.293049   140A      4.396732  
     141A      4.410611   142A      4.464877   143A      4.469107  
     144A      4.529428   145A      4.543762   146A      4.578139  
     147A      4.583970   148A      4.619075   149A      4.680812  
     150A      4.954634   151A      4.992858   152A      5.108559  
     153A      5.205471   154A      5.232206   155A      5.287713  
     156A      5.300537   157A      5.351560   158A      5.375569  
     159A      5.585380   160A      5.588884   161A      5.779276  
     162A      5.897152   163A      6.397628   164A      6.984382  
     165A      7.045127   166A      7.229542   167A      7.348483  
     168A      7.448748  

    Final Occupation by Irrep:
              A 
    DOCC [    17 ]

  @DF-RKS Final Energy:  -194.37440097987835

   => Energetics <=

    Nuclear Repulsion Energy =            134.7512549061725622
    One-Electron Energy =                -529.5861379905552440
    Two-Electron Energy =                 223.0498447980048411
    DFT Exchange-Correlation Energy =     -22.5893626935004974
    Empirical Dispersion Energy =           0.0000000000000000
    VV10 Nonlocal Energy =                  0.0000000000000000
    Total Energy =                       -194.3744009798783452

Computation Completed


Properties will be evaluated at   0.000000,   0.000000,   0.000000 [a0]

Properties computed using the SCF density matrix

  Nuclear Dipole Moment: [e a0]
     X:     0.0042      Y:    -3.7920      Z:     0.8485

  Electronic Dipole Moment: [e a0]
     X:    -0.0050      Y:     3.3097      Z:    -0.5157

  Dipole Moment: [e a0]
     X:    -0.0008      Y:    -0.4823      Z:     0.3328     Total:     0.5860

  Dipole Moment: [D]
     X:    -0.0020      Y:    -1.2258      Z:     0.8460     Total:     1.4894


*** tstop() called on n036 at Tue Nov  9 17:09:23 2021
Module time:
	user time   =     136.15 seconds =       2.27 minutes
	system time =       1.24 seconds =       0.02 minutes
	total time  =         36 seconds =       0.60 minutes
Total time:
	user time   =     136.15 seconds =       2.27 minutes
	system time =       1.24 seconds =       0.02 minutes
	total time  =         36 seconds =       0.60 minutes
Grab this energy -194.37440097987835
    Psi4 stopped on: Tuesday, 09 November 2021 05:09PM
    Psi4 wall time for execution: 0:00:35.18

*** Psi4 exiting successfully. Buy a developer a beer!
