
    -----------------------------------------------------------------------
          Psi4: An Open-Source Ab Initio Electronic Structure Package
                               Psi4 1.4a2.dev629 

                         Git: Rev {master} 2938fc2 dirty


    D. G. A. Smith, L. A. Burns, A. C. Simmonett, R. M. Parrish,
    M. C. Schieber, R. Galvelis, P. Kraus, H. Kruse, R. Di Remigio,
    A. Alenaizan, A. M. James, S. Lehtola, J. P. Misiewicz, M. Scheurer,
    R. A. Shaw, J. B. Schriber, Y. Xie, Z. L. Glick, D. A. Sirianni,
    J. S. O'Brien, J. M. Waldrop, A. Kumar, E. G. Hohenstein,
    B. P. Pritchard, B. R. Brooks, H. F. Schaefer III, A. Yu. Sokolov,
    K. Patkowski, A. E. DePrince III, U. Bozkaya, R. A. King,
    F. A. Evangelista, J. M. Turney, T. D. Crawford, C. D. Sherrill,
    J. Chem. Phys. 152(18) 184108 (2020). https://doi.org/10.1063/5.0006002

                            Additional Code Authors
    E. T. Seidl, C. L. Janssen, E. F. Valeev, M. L. Leininger,
    J. F. Gonthier, R. M. Richard, H. R. McAlexander, M. Saitow, X. Wang,
    P. Verma, and M. H. Lechner

             Previous Authors, Complete List of Code Contributors,
                       and Citations for Specific Modules
    https://github.com/psi4/psi4/blob/master/codemeta.json
    https://github.com/psi4/psi4/graphs/contributors
    http://psicode.org/psi4manual/master/introduction.html#citing-psifour

    -----------------------------------------------------------------------


    Psi4 started on: Tuesday, 09 November 2021 05:16PM

    Process ID: 29611
    Host:       n040
    PSIDATADIR: /opt/psi/4/master/share/psi4
    Memory:     500.0 MiB
    Threads:    4
    
  ==> Input File <==

--------------------------------------------------------------------------
import os
memory 14 GB 
 
molecule {
 C   -2.3884569138   -1.3702461123    0.1990159318
 C   -0.0000450947   -0.0196758765   -0.6824199049
 C    2.3926915955   -1.3757758904    0.1976920524
 H   -4.0676595148   -0.3670705118   -0.4531348759
 H   -2.4425360608   -1.4744571742    2.2635011467
 H   -2.4467800742   -3.2998315200   -0.5373797412
 H    0.0033092290    0.0812847416   -2.7460100335
 O   -0.0079082752    2.5616682941    0.1039246613
 H   -0.0133267857    2.5546346328    1.9211494026
 H    4.0731407178   -0.3728992817   -0.4528171410
 H    2.4484261915   -3.3052098063   -0.5441362245
 H    2.4491430755   -1.4855420754    2.2615497063
units bohr
}

basis {

assign 6-31g_2dfp_

[ 6-31g_2dfp_ ]

spherical

!----------------------------------------------------------------------
! Basis Set Exchange
! Version v0.8.13
! https://www.basissetexchange.org
!----------------------------------------------------------------------
!   Basis set: 6-31G(2df,p)
! Description: 6-31G(2df,p)
!        Role: orbital
!     Version: 0  (Data from the original Basis Set Exchange)
!----------------------------------------------------------------------


****
H     0
S    3   1.00
     18.7311370              0.03349460
      2.8253937              0.23472695
      0.6401217              0.81375733
S    1   1.00
      0.1612778              1.00000000
P    1   1.00
      1.5000000              1.0000000
P    1   1.00
      0.3750000              1.0000000
****
B     0
S    6   1.00
   2068.8823000              0.0018663
    310.6495700              0.0142515
     70.6830330              0.0695516
     19.8610800              0.2325729
      6.2993048              0.4670787
      2.1270270              0.3634314
SP   3   1.00
      4.7279710             -0.1303938              0.0745976
      1.1903377             -0.1307889              0.3078467
      0.3594117              1.1309444              0.7434568
SP   1   1.00
      0.1267512              1.0000000              1.0000000
D    1   1.00
      0.8020000              1.0000000
D    1   1.00
      0.2005000              1.0000000
F    1   1.00
      0.5000000              1.0000000
****
C     0
S    6   1.00
   3047.5249000              0.0018347
    457.3695100              0.0140373
    103.9486900              0.0688426
     29.2101550              0.2321844
      9.2866630              0.4679413
      3.1639270              0.3623120
SP   3   1.00
      7.8682724             -0.1193324              0.0689991
      1.8812885             -0.1608542              0.3164240
      0.5442493              1.1434564              0.7443083
SP   1   1.00
      0.1687144              1.0000000              1.0000000
D    1   1.00
      1.2520000              1.0000000
D    1   1.00
      0.3130000              1.0000000
F    1   1.00
      0.8000000              1.0000000
****
N     0
S    6   1.00
   4173.5110000              0.0018348
    627.4579000              0.0139950
    142.9021000              0.0685870
     40.2343300              0.2322410
     12.8202100              0.4690700
      4.3904370              0.3604550
SP   3   1.00
     11.6263580             -0.1149610              0.0675800
      2.7162800             -0.1691180              0.3239070
      0.7722180              1.1458520              0.7408950
SP   1   1.00
      0.2120313              1.0000000              1.0000000
D    1   1.00
      1.8260000              1.0000000
D    1   1.00
      0.4565000              1.0000000
F    1   1.00
      1.0000000              1.0000000
****
O     0
S    6   1.00
   5484.6717000              0.0018311
    825.2349500              0.0139501
    188.0469600              0.0684451
     52.9645000              0.2327143
     16.8975700              0.4701930
      5.7996353              0.3585209
SP   3   1.00
     15.5396160             -0.1107775              0.0708743
      3.5999336             -0.1480263              0.3397528
      1.0137618              1.1307670              0.7271586
SP   1   1.00
      0.2700058              1.0000000              1.0000000
D    1   1.00
      2.5840000              1.0000000
D    1   1.00
      0.6460000              1.0000000
F    1   1.00
      1.4000000              1.0000000
****
F     0
S    6   1.00
   7001.7130900              0.0018196169
   1051.3660900              0.0139160796
    239.2856900              0.0684053245
     67.3974453              0.233185760
     21.5199573              0.471267439
      7.40310130             0.356618546
SP   3   1.00
     20.8479528             -0.108506975            0.0716287243
      4.80830834            -0.146451658            0.3459121030
      1.34406986             1.128688580            0.7224699570
SP   1   1.00
      0.358151393            1.0000000              1.0000000
D    1   1.00
      3.5000000              1.0000000
D    1   1.00
      0.8750000              1.0000000
F    1   1.00
      1.8500000              1.0000000
****
Al     0
S    6   1.00
  13983.1000000              0.00194267
   2098.7500000              0.0148599
    477.7050000              0.0728494
    134.3600000              0.2468300
     42.8709000              0.4872580
     14.5189000              0.3234960
SP   6   1.00
    239.6680000             -0.00292619             0.00460285
     57.4419000             -0.0374080              0.0331990
     18.2859000             -0.1144870              0.1362820
      6.5991400              0.1156350              0.3304760
      2.4904900              0.6125950              0.4491460
      0.9445400              0.3937990              0.2657040
SP   3   1.00
      1.2779000             -0.2276060             -0.0175130
      0.3975900              0.00144583             0.2445330
      0.1600950              1.0927900              0.8049340
SP   1   1.00
      0.0556577              1.0000000              1.0000000
D    1   1.00
      0.6500000              1.0000000
D    1   1.00
      0.1625000              1.0000000
F    1   1.00
      0.2500000              1.0000000
****
Si     0
S    6   1.00
  16115.9000000              0.00195948
   2425.5800000              0.01492880
    553.8670000              0.07284780
    156.3400000              0.24613000
     50.0683000              0.48591400
     17.0178000              0.32500200
SP   6   1.00
    292.7180000             -0.00278094             0.00443826
     69.8731000             -0.03571460             0.03266790
     22.3363000             -0.11498500             0.13472100
      8.1503900              0.09356340             0.32867800
      3.1345800              0.60301700             0.44964000
      1.2254300              0.41895900             0.26137200
SP   3   1.00
      1.7273800             -0.24463000            -0.01779510
      0.5729220              0.00431572             0.25353900
      0.2221920              1.09818000             0.80066900
SP   1   1.00
      0.0778369              1.00000000             1.00000000
D    1   1.00
      0.9000000              1.0000000
D    1   1.00
      0.2250000              1.0000000
F    1   1.00
      0.3200000              1.0000000
****
P     0
S    6   1.00
  19413.3000000              0.0018516
   2909.4200000              0.0142062
    661.3640000              0.0699995
    185.7590000              0.2400790
     59.1943000              0.4847620
     20.0310000              0.3352000
SP   6   1.00
    339.4780000             -0.00278217             0.00456462
     81.0101000             -0.0360499              0.03369360
     25.8780000             -0.1166310              0.13975500
      9.4522100              0.0968328              0.33936200
      3.6656600              0.6144180              0.45092100
      1.4674600              0.4037980              0.23858600
SP   3   1.00
      2.1562300             -0.2529230             -0.01776530
      0.7489970              0.0328517              0.27405800
      0.2831450              1.0812500              0.78542100
SP   1   1.00
      0.0998317              1.0000000              1.00000000
D    1   1.00
      1.1000000              1.0000000
D    1   1.00
      0.2750000              1.0000000
F    1   1.00
      0.4500000              1.0000000
****
S     0
S    6   1.00
  21917.1000000              0.0018690
   3301.4900000              0.0142300
    754.1460000              0.0696960
    212.7110000              0.2384870
     67.9896000              0.4833070
     23.0515000              0.3380740
SP   6   1.00
    423.7350000             -0.0023767              0.0040610
    100.7100000             -0.0316930              0.0306810
     32.1599000             -0.1133170              0.1304520
     11.8079000              0.0560900              0.3272050
      4.6311000              0.5922550              0.4528510
      1.8702500              0.4550060              0.2560420
SP   3   1.00
      2.6158400             -0.2503740             -0.0145110
      0.9221670              0.0669570              0.3102630
      0.3412870              1.0545100              0.7544830
SP   1   1.00
      0.1171670              1.0000000              1.0000000
D    1   1.00
      1.3000000              1.0000000
D    1   1.00
      0.3250000              1.0000000
F    1   1.00
      0.5500000              1.0000000
****
Cl     0
S    6   1.00
  25180.1000000              0.0018330
   3780.3500000              0.0140340
    860.4740000              0.0690970
    242.1450000              0.2374520
     77.3349000              0.4830340
     26.2470000              0.3398560
SP   6   1.00
    491.7650000             -0.0022974              0.0039894
    116.9840000             -0.0307140              0.0303180
     37.4153000             -0.1125280              0.1298800
     13.7834000              0.0450160              0.3279510
      5.4521500              0.5893530              0.4535270
      2.2258800              0.4652060              0.2521540
SP   3   1.00
      3.1864900             -0.2518300             -0.0142990
      1.1442700              0.0615890              0.3235720
      0.4203770              1.0601800              0.7435070
SP   1   1.00
      0.1426570              1.0000000              1.0000000
D    1   1.00
      1.5000000              1.0000000
D    1   1.00
      0.3750000              1.0000000
F    1   1.00
      0.7000000              1.0000000
****
}


set {
reference rhf                          
freeze_core true
e_convergence 10                       
d_convergence 10                      
dft_spherical_points 1202
dft_radial_points 99
}

e = energy('b3lyp')

print_out('Grab this energy {0}'.format(e))
--------------------------------------------------------------------------

  Memory set to  13.039 GiB by Python driver.

Scratch directory: /tmp/

*** tstart() called on n040
*** at Tue Nov  9 17:16:37 2021

   => Loading Basis Set <=

    Name: ANONYMOUSBF8AA906
    Role: ORBITAL
    Keyword: BASIS
    atoms 1-3       entry C          line    48 inputblock 6-31g_2dfp_ 
    atoms 4-7, 9-12 entry H          line    15 inputblock 6-31g_2dfp_ 
    atoms 8         entry O          line    90 inputblock 6-31g_2dfp_ 


         ---------------------------------------------------------
                                   SCF
               by Justin Turney, Rob Parrish, Andy Simmonett
                          and Daniel G. A. Smith
                              RKS Reference
                        4 Threads,  13351 MiB Core
         ---------------------------------------------------------

  ==> Geometry <==

    Molecular point group: c1
    Full point group: C1

    Geometry (in Bohr), charge = 0, multiplicity = 1:

       Center              X                  Y                   Z               Mass       
    ------------   -----------------  -----------------  -----------------  -----------------
         C           -2.387250215845    -1.371181702430     0.199684501219    12.000000000000
         C            0.001161603255    -0.020611466630    -0.681751335481    12.000000000000
         C            2.393898293455    -1.376711480530     0.198360621819    12.000000000000
         H           -4.066452816845    -0.368006101930    -0.452466306481     1.007825032230
         H           -2.441329362845    -1.475392764330     2.264169716119     1.007825032230
         H           -2.445573376245    -3.300767110130    -0.536711171781     1.007825032230
         H            0.004515926955     0.080349151470    -2.745341464081     1.007825032230
         O           -0.006701577245     2.560732703970     0.104593230719    15.994914619570
         H           -0.012120087745     2.553699042670     1.921817972019     1.007825032230
         H            4.074347415755    -0.373834871830    -0.452148571581     1.007825032230
         H            2.449632889455    -3.306145396430    -0.543467655081     1.007825032230
         H            2.450349773455    -1.486477665530     2.262218275719     1.007825032230

  Running in c1 symmetry.

  Rotational constants: A =      0.28293  B =      0.26866  C =      0.15919 [cm^-1]
  Rotational constants: A =   8481.93910  B =   8054.30961  C =   4772.48920 [MHz]
  Nuclear repulsion =  134.628263403932181

  Charge       = 0
  Multiplicity = 1
  Electrons    = 34
  Nalpha       = 17
  Nbeta        = 17

  ==> Algorithm <==

  SCF Algorithm Type is DF.
  DIIS enabled.
  MOM disabled.
  Fractional occupation disabled.
  Guess Type is SAD.
  Energy threshold   = 1.00e-10
  Density threshold  = 1.00e-10
  Integral threshold = 0.00e+00

  ==> Primary Basis <==

  Basis Set: ANONYMOUSBF8AA906
    Blend: 6-31G_2DFP_
    Number of shells: 64
    Number of basis function: 168
    Number of Cartesian functions: 188
    Spherical Harmonics?: true
    Max angular momentum: 3

  ==> DFT Potential <==

   => Composite Functional: B3LYP <= 

    B3LYP Hyb-GGA Exchange-Correlation Functional

    P. J. Stephens, F. J. Devlin, C. F. Chabalowski, and M. J. Frisch, J. Phys. Chem. 98, 11623 (1994)

    Deriv               =              1
    GGA                 =           TRUE
    Meta                =          FALSE

    Exchange Hybrid     =           TRUE
    MP2 Hybrid          =          FALSE

   => Exchange Functionals <=

    0.0800   Slater exchange
    0.7200         Becke 88

   => Exact (HF) Exchange <=

    0.2000               HF 

   => Correlation Functionals <=

    0.1900   Vosko, Wilk & Nusair (VWN5_RPA)
    0.8100   Lee, Yang & Parr

   => Molecular Quadrature <=

    Radial Scheme          =       TREUTLER
    Pruning Scheme         =           NONE
    Nuclear Scheme         =       TREUTLER

    BS radius alpha        =              1
    Pruning alpha          =              1
    Radial Points          =             99
    Spherical Points       =           1202
    Total Points           =        1330651
    Total Blocks           =           8873
    Max Points             =            256
    Max Functions          =            168
    Weights Tolerance      =       1.00E-15

   => Loading Basis Set <=

    Name: (ANONYMOUSBF8AA906 AUX)
    Role: JKFIT
    Keyword: DF_BASIS_SCF
    atoms 1-3       entry C          line   198 file /opt/psi/4/master/share/psi4/basis/def2-universal-jkfit.gbs 
    atoms 4-7, 9-12 entry H          line    18 file /opt/psi/4/master/share/psi4/basis/def2-universal-jkfit.gbs 
    atoms 8         entry O          line   318 file /opt/psi/4/master/share/psi4/basis/def2-universal-jkfit.gbs 

  ==> Integral Setup <==

  DFHelper Memory: AOs need 0.101 GiB; user supplied 4.612 GiB. Using in-core AOs.

  ==> MemDFJK: Density-Fitted J/K Matrices <==

    J tasked:                   Yes
    K tasked:                   Yes
    wK tasked:                   No
    OpenMP threads:               4
    Memory [MiB]:              4722
    Algorithm:                 Core
    Schwarz Cutoff:           1E-12
    Mask sparsity (%):       0.9637
    Fitting Condition:        1E-10

   => Auxiliary Basis Set <=

  Basis Set: (ANONYMOUSBF8AA906 AUX)
    Blend: DEF2-UNIVERSAL-JKFIT
    Number of shells: 148
    Number of basis function: 446
    Number of Cartesian functions: 520
    Spherical Harmonics?: true
    Max angular momentum: 4

  Cached 100.0% of DFT collocation blocks in 5.167 [GiB].

  Minimum eigenvalue in the overlap matrix is 1.3937129634E-03.
  Reciprocal condition number of the overlap matrix is 2.3164719684E-04.
    Using symmetric orthogonalization.

  ==> Pre-Iterations <==

  SCF Guess: Superposition of Atomic Densities via on-the-fly atomic UHF (no occupation information).

   -------------------------
    Irrep   Nso     Nmo    
   -------------------------
     A        168     168 
   -------------------------
    Total     168     168
   -------------------------

  ==> Iterations <==

                           Total Energy        Delta E     RMS |[F,P]|

   @DF-RKS iter SAD:  -193.70049983228529   -1.93700e+02   0.00000e+00 
   @DF-RKS iter   1:  -194.02161917242350   -3.21119e-01   5.02382e-03 DIIS
   @DF-RKS iter   2:  -193.86464109598211    1.56978e-01   6.07170e-03 DIIS
   @DF-RKS iter   3:  -194.37054363983387   -5.05903e-01   5.87854e-04 DIIS
   @DF-RKS iter   4:  -194.37356505516357   -3.02142e-03   2.71665e-04 DIIS
   @DF-RKS iter   5:  -194.37440908207913   -8.44027e-04   5.11082e-05 DIIS
   @DF-RKS iter   6:  -194.37443753275949   -2.84507e-05   1.78332e-05 DIIS
   @DF-RKS iter   7:  -194.37444137465192   -3.84189e-06   2.78468e-06 DIIS
   @DF-RKS iter   8:  -194.37444148230423   -1.07652e-07   6.37620e-07 DIIS
   @DF-RKS iter   9:  -194.37444148864296   -6.33872e-09   4.02061e-08 DIIS
   @DF-RKS iter  10:  -194.37444148866393   -2.09752e-11   1.36076e-08 DIIS
   @DF-RKS iter  11:  -194.37444148866655   -2.61480e-12   3.48556e-09 DIIS
   @DF-RKS iter  12:  -194.37444148866689   -3.41061e-13   1.46501e-09 DIIS
   @DF-RKS iter  13:  -194.37444148866700   -1.13687e-13   1.82653e-10 DIIS
   @DF-RKS iter  14:  -194.37444148866660    3.97904e-13   2.15124e-11 DIIS
  Energy and wave function converged.


  ==> Post-Iterations <==

    Orbital Energies [Eh]
    ---------------------

    Doubly Occupied:                                                      

       1A    -19.132655     2A    -10.227041     3A    -10.169141  
       4A    -10.168843     5A     -1.011415     6A     -0.767417  
       7A     -0.688312     8A     -0.597538     9A     -0.475357  
      10A     -0.464880    11A     -0.423549    12A     -0.409067  
      13A     -0.388739    14A     -0.357634    15A     -0.353597  
      16A     -0.316639    17A     -0.264593  

    Virtual:                                                              

      18A      0.066308    19A      0.108228    20A      0.125133  
      21A      0.135596    22A      0.144802    23A      0.162891  
      24A      0.179679    25A      0.184423    26A      0.217233  
      27A      0.226361    28A      0.250094    29A      0.390848  
      30A      0.415845    31A      0.423849    32A      0.449758  
      33A      0.471569    34A      0.482245    35A      0.491327  
      36A      0.521812    37A      0.545594    38A      0.572241  
      39A      0.592297    40A      0.597188    41A      0.600430  
      42A      0.611542    43A      0.613311    44A      0.621803  
      45A      0.637969    46A      0.661968    47A      0.665411  
      48A      0.747296    49A      0.757784    50A      0.822326  
      51A      0.839465    52A      0.889802    53A      0.909060  
      54A      0.944893    55A      0.956798    56A      1.006141  
      57A      1.012397    58A      1.020925    59A      1.089480  
      60A      1.113843    61A      1.117329    62A      1.172518  
      63A      1.172954    64A      1.187311    65A      1.251093  
      66A      1.275233    67A      1.285633    68A      1.312537  
      69A      1.348272    70A      1.353420    71A      1.365011  
      72A      1.383608    73A      1.415226    74A      1.429774  
      75A      1.430797    76A      1.469038    77A      1.493236  
      78A      1.529100    79A      1.547395    80A      1.590376  
      81A      1.613840    82A      1.656855    83A      1.661205  
      84A      1.738072    85A      1.784744    86A      1.815523  
      87A      1.830576    88A      1.890290    89A      1.995295  
      90A      2.006913    91A      2.015424    92A      2.078441  
      93A      2.098868    94A      2.280582    95A      2.395933  
      96A      2.641118    97A      2.723394    98A      2.830201  
      99A      2.854999   100A      2.882509   101A      2.919507  
     102A      2.943511   103A      2.957012   104A      2.986597  
     105A      3.012182   106A      3.042287   107A      3.078910  
     108A      3.105097   109A      3.170001   110A      3.268736  
     111A      3.316862   112A      3.358612   113A      3.388723  
     114A      3.425507   115A      3.487935   116A      3.495359  
     117A      3.504803   118A      3.527366   119A      3.576723  
     120A      3.595256   121A      3.596655   122A      3.657407  
     123A      3.705415   124A      3.750620   125A      3.758240  
     126A      3.774800   127A      3.850186   128A      3.987140  
     129A      3.992094   130A      4.065498   131A      4.074253  
     132A      4.127157   133A      4.127771   134A      4.149682  
     135A      4.170639   136A      4.212118   137A      4.225584  
     138A      4.244507   139A      4.291620   140A      4.394898  
     141A      4.409331   142A      4.459833   143A      4.465661  
     144A      4.527580   145A      4.538271   146A      4.570235  
     147A      4.577749   148A      4.616782   149A      4.676065  
     150A      4.951419   151A      4.991557   152A      5.102152  
     153A      5.205968   154A      5.232066   155A      5.286685  
     156A      5.295867   157A      5.347945   158A      5.377453  
     159A      5.583047   160A      5.586494   161A      5.778084  
     162A      5.895177   163A      6.396880   164A      6.983961  
     165A      7.045554   166A      7.228952   167A      7.347216  
     168A      7.448186  

    Final Occupation by Irrep:
              A 
    DOCC [    17 ]

  @DF-RKS Final Energy:  -194.37444148866660

   => Energetics <=

    Nuclear Repulsion Energy =            134.6282634039321806
    One-Electron Energy =                -529.3426543013865739
    Two-Electron Energy =                 222.9255406995007434
    DFT Exchange-Correlation Energy =     -22.5855912907129479
    Empirical Dispersion Energy =           0.0000000000000000
    VV10 Nonlocal Energy =                  0.0000000000000000
    Total Energy =                       -194.3744414886666050

Computation Completed


Properties will be evaluated at   0.000000,   0.000000,   0.000000 [a0]

Properties computed using the SCF density matrix

  Nuclear Dipole Moment: [e a0]
     X:     0.0066      Y:    -3.8017      Z:     0.8526

  Electronic Dipole Moment: [e a0]
     X:    -0.0067      Y:     3.3179      Z:    -0.5192

  Dipole Moment: [e a0]
     X:    -0.0001      Y:    -0.4838      Z:     0.3334     Total:     0.5876

  Dipole Moment: [D]
     X:    -0.0002      Y:    -1.2298      Z:     0.8474     Total:     1.4934


*** tstop() called on n040 at Tue Nov  9 17:17:12 2021
Module time:
	user time   =     134.49 seconds =       2.24 minutes
	system time =       1.40 seconds =       0.02 minutes
	total time  =         35 seconds =       0.58 minutes
Total time:
	user time   =     134.49 seconds =       2.24 minutes
	system time =       1.40 seconds =       0.02 minutes
	total time  =         35 seconds =       0.58 minutes
Grab this energy -194.3744414886666
    Psi4 stopped on: Tuesday, 09 November 2021 05:17PM
    Psi4 wall time for execution: 0:00:34.80

*** Psi4 exiting successfully. Buy a developer a beer!
