
    -----------------------------------------------------------------------
          Psi4: An Open-Source Ab Initio Electronic Structure Package
                               Psi4 1.4a2.dev629 

                         Git: Rev {master} 2938fc2 dirty


    D. G. A. Smith, L. A. Burns, A. C. Simmonett, R. M. Parrish,
    M. C. Schieber, R. Galvelis, P. Kraus, H. Kruse, R. Di Remigio,
    A. Alenaizan, A. M. James, S. Lehtola, J. P. Misiewicz, M. Scheurer,
    R. A. Shaw, J. B. Schriber, Y. Xie, Z. L. Glick, D. A. Sirianni,
    J. S. O'Brien, J. M. Waldrop, A. Kumar, E. G. Hohenstein,
    B. P. Pritchard, B. R. Brooks, H. F. Schaefer III, A. Yu. Sokolov,
    K. Patkowski, A. E. DePrince III, U. Bozkaya, R. A. King,
    F. A. Evangelista, J. M. Turney, T. D. Crawford, C. D. Sherrill,
    J. Chem. Phys. 152(18) 184108 (2020). https://doi.org/10.1063/5.0006002

                            Additional Code Authors
    E. T. Seidl, C. L. Janssen, E. F. Valeev, M. L. Leininger,
    J. F. Gonthier, R. M. Richard, H. R. McAlexander, M. Saitow, X. Wang,
    P. Verma, and M. H. Lechner

             Previous Authors, Complete List of Code Contributors,
                       and Citations for Specific Modules
    https://github.com/psi4/psi4/blob/master/codemeta.json
    https://github.com/psi4/psi4/graphs/contributors
    http://psicode.org/psi4manual/master/introduction.html#citing-psifour

    -----------------------------------------------------------------------


    Psi4 started on: Tuesday, 09 November 2021 05:10PM

    Process ID: 29052
    Host:       n040
    PSIDATADIR: /opt/psi/4/master/share/psi4
    Memory:     500.0 MiB
    Threads:    4
    
  ==> Input File <==

--------------------------------------------------------------------------
import os
memory 14 GB 
 
molecule {
 C   -2.3879111252   -1.3738299370    0.1964321062
 C   -0.0005758920   -0.0241387984   -0.6818778929
 C    2.3885044933   -1.3725572118    0.1976444423
 H   -4.0611753976   -0.3658937332   -0.4567913610
 H   -2.4370334987   -1.4795808455    2.2576824485
 H   -2.4570735711   -3.3075429865   -0.5399832434
 H   -0.0021218941    0.0757105880   -2.7457491612
 O   -0.0005237027    2.5599162926    0.1075771783
 H   -0.0001919491    2.5610890499    1.9280618724
 H    4.0667920864   -0.3676460333   -0.4545343178
 H    2.4475303167   -3.3006698547   -0.5399878719
 H    2.4437782242   -1.4779771101    2.2624607806
units bohr
}

basis {

assign 6-31g_2dfp_

[ 6-31g_2dfp_ ]

spherical

!----------------------------------------------------------------------
! Basis Set Exchange
! Version v0.8.13
! https://www.basissetexchange.org
!----------------------------------------------------------------------
!   Basis set: 6-31G(2df,p)
! Description: 6-31G(2df,p)
!        Role: orbital
!     Version: 0  (Data from the original Basis Set Exchange)
!----------------------------------------------------------------------


****
H     0
S    3   1.00
     18.7311370              0.03349460
      2.8253937              0.23472695
      0.6401217              0.81375733
S    1   1.00
      0.1612778              1.00000000
P    1   1.00
      1.5000000              1.0000000
P    1   1.00
      0.3750000              1.0000000
****
B     0
S    6   1.00
   2068.8823000              0.0018663
    310.6495700              0.0142515
     70.6830330              0.0695516
     19.8610800              0.2325729
      6.2993048              0.4670787
      2.1270270              0.3634314
SP   3   1.00
      4.7279710             -0.1303938              0.0745976
      1.1903377             -0.1307889              0.3078467
      0.3594117              1.1309444              0.7434568
SP   1   1.00
      0.1267512              1.0000000              1.0000000
D    1   1.00
      0.8020000              1.0000000
D    1   1.00
      0.2005000              1.0000000
F    1   1.00
      0.5000000              1.0000000
****
C     0
S    6   1.00
   3047.5249000              0.0018347
    457.3695100              0.0140373
    103.9486900              0.0688426
     29.2101550              0.2321844
      9.2866630              0.4679413
      3.1639270              0.3623120
SP   3   1.00
      7.8682724             -0.1193324              0.0689991
      1.8812885             -0.1608542              0.3164240
      0.5442493              1.1434564              0.7443083
SP   1   1.00
      0.1687144              1.0000000              1.0000000
D    1   1.00
      1.2520000              1.0000000
D    1   1.00
      0.3130000              1.0000000
F    1   1.00
      0.8000000              1.0000000
****
N     0
S    6   1.00
   4173.5110000              0.0018348
    627.4579000              0.0139950
    142.9021000              0.0685870
     40.2343300              0.2322410
     12.8202100              0.4690700
      4.3904370              0.3604550
SP   3   1.00
     11.6263580             -0.1149610              0.0675800
      2.7162800             -0.1691180              0.3239070
      0.7722180              1.1458520              0.7408950
SP   1   1.00
      0.2120313              1.0000000              1.0000000
D    1   1.00
      1.8260000              1.0000000
D    1   1.00
      0.4565000              1.0000000
F    1   1.00
      1.0000000              1.0000000
****
O     0
S    6   1.00
   5484.6717000              0.0018311
    825.2349500              0.0139501
    188.0469600              0.0684451
     52.9645000              0.2327143
     16.8975700              0.4701930
      5.7996353              0.3585209
SP   3   1.00
     15.5396160             -0.1107775              0.0708743
      3.5999336             -0.1480263              0.3397528
      1.0137618              1.1307670              0.7271586
SP   1   1.00
      0.2700058              1.0000000              1.0000000
D    1   1.00
      2.5840000              1.0000000
D    1   1.00
      0.6460000              1.0000000
F    1   1.00
      1.4000000              1.0000000
****
F     0
S    6   1.00
   7001.7130900              0.0018196169
   1051.3660900              0.0139160796
    239.2856900              0.0684053245
     67.3974453              0.233185760
     21.5199573              0.471267439
      7.40310130             0.356618546
SP   3   1.00
     20.8479528             -0.108506975            0.0716287243
      4.80830834            -0.146451658            0.3459121030
      1.34406986             1.128688580            0.7224699570
SP   1   1.00
      0.358151393            1.0000000              1.0000000
D    1   1.00
      3.5000000              1.0000000
D    1   1.00
      0.8750000              1.0000000
F    1   1.00
      1.8500000              1.0000000
****
Al     0
S    6   1.00
  13983.1000000              0.00194267
   2098.7500000              0.0148599
    477.7050000              0.0728494
    134.3600000              0.2468300
     42.8709000              0.4872580
     14.5189000              0.3234960
SP   6   1.00
    239.6680000             -0.00292619             0.00460285
     57.4419000             -0.0374080              0.0331990
     18.2859000             -0.1144870              0.1362820
      6.5991400              0.1156350              0.3304760
      2.4904900              0.6125950              0.4491460
      0.9445400              0.3937990              0.2657040
SP   3   1.00
      1.2779000             -0.2276060             -0.0175130
      0.3975900              0.00144583             0.2445330
      0.1600950              1.0927900              0.8049340
SP   1   1.00
      0.0556577              1.0000000              1.0000000
D    1   1.00
      0.6500000              1.0000000
D    1   1.00
      0.1625000              1.0000000
F    1   1.00
      0.2500000              1.0000000
****
Si     0
S    6   1.00
  16115.9000000              0.00195948
   2425.5800000              0.01492880
    553.8670000              0.07284780
    156.3400000              0.24613000
     50.0683000              0.48591400
     17.0178000              0.32500200
SP   6   1.00
    292.7180000             -0.00278094             0.00443826
     69.8731000             -0.03571460             0.03266790
     22.3363000             -0.11498500             0.13472100
      8.1503900              0.09356340             0.32867800
      3.1345800              0.60301700             0.44964000
      1.2254300              0.41895900             0.26137200
SP   3   1.00
      1.7273800             -0.24463000            -0.01779510
      0.5729220              0.00431572             0.25353900
      0.2221920              1.09818000             0.80066900
SP   1   1.00
      0.0778369              1.00000000             1.00000000
D    1   1.00
      0.9000000              1.0000000
D    1   1.00
      0.2250000              1.0000000
F    1   1.00
      0.3200000              1.0000000
****
P     0
S    6   1.00
  19413.3000000              0.0018516
   2909.4200000              0.0142062
    661.3640000              0.0699995
    185.7590000              0.2400790
     59.1943000              0.4847620
     20.0310000              0.3352000
SP   6   1.00
    339.4780000             -0.00278217             0.00456462
     81.0101000             -0.0360499              0.03369360
     25.8780000             -0.1166310              0.13975500
      9.4522100              0.0968328              0.33936200
      3.6656600              0.6144180              0.45092100
      1.4674600              0.4037980              0.23858600
SP   3   1.00
      2.1562300             -0.2529230             -0.01776530
      0.7489970              0.0328517              0.27405800
      0.2831450              1.0812500              0.78542100
SP   1   1.00
      0.0998317              1.0000000              1.00000000
D    1   1.00
      1.1000000              1.0000000
D    1   1.00
      0.2750000              1.0000000
F    1   1.00
      0.4500000              1.0000000
****
S     0
S    6   1.00
  21917.1000000              0.0018690
   3301.4900000              0.0142300
    754.1460000              0.0696960
    212.7110000              0.2384870
     67.9896000              0.4833070
     23.0515000              0.3380740
SP   6   1.00
    423.7350000             -0.0023767              0.0040610
    100.7100000             -0.0316930              0.0306810
     32.1599000             -0.1133170              0.1304520
     11.8079000              0.0560900              0.3272050
      4.6311000              0.5922550              0.4528510
      1.8702500              0.4550060              0.2560420
SP   3   1.00
      2.6158400             -0.2503740             -0.0145110
      0.9221670              0.0669570              0.3102630
      0.3412870              1.0545100              0.7544830
SP   1   1.00
      0.1171670              1.0000000              1.0000000
D    1   1.00
      1.3000000              1.0000000
D    1   1.00
      0.3250000              1.0000000
F    1   1.00
      0.5500000              1.0000000
****
Cl     0
S    6   1.00
  25180.1000000              0.0018330
   3780.3500000              0.0140340
    860.4740000              0.0690970
    242.1450000              0.2374520
     77.3349000              0.4830340
     26.2470000              0.3398560
SP   6   1.00
    491.7650000             -0.0022974              0.0039894
    116.9840000             -0.0307140              0.0303180
     37.4153000             -0.1125280              0.1298800
     13.7834000              0.0450160              0.3279510
      5.4521500              0.5893530              0.4535270
      2.2258800              0.4652060              0.2521540
SP   3   1.00
      3.1864900             -0.2518300             -0.0142990
      1.1442700              0.0615890              0.3235720
      0.4203770              1.0601800              0.7435070
SP   1   1.00
      0.1426570              1.0000000              1.0000000
D    1   1.00
      1.5000000              1.0000000
D    1   1.00
      0.3750000              1.0000000
F    1   1.00
      0.7000000              1.0000000
****
}


set {
reference rhf                          
freeze_core true
e_convergence 10                       
d_convergence 10                      
dft_spherical_points 1202
dft_radial_points 99
}

e = energy('b3lyp')

print_out('Grab this energy {0}'.format(e))
--------------------------------------------------------------------------

  Memory set to  13.039 GiB by Python driver.

Scratch directory: /tmp/

*** tstart() called on n040
*** at Tue Nov  9 17:10:18 2021

   => Loading Basis Set <=

    Name: ANONYMOUSE3DE11B0
    Role: ORBITAL
    Keyword: BASIS
    atoms 1-3       entry C          line    48 inputblock 6-31g_2dfp_ 
    atoms 4-7, 9-12 entry H          line    15 inputblock 6-31g_2dfp_ 
    atoms 8         entry O          line    90 inputblock 6-31g_2dfp_ 


         ---------------------------------------------------------
                                   SCF
               by Justin Turney, Rob Parrish, Andy Simmonett
                          and Daniel G. A. Smith
                              RKS Reference
                        4 Threads,  13351 MiB Core
         ---------------------------------------------------------

  ==> Geometry <==

    Molecular point group: c1
    Full point group: C1

    Geometry (in Bohr), charge = 0, multiplicity = 1:

       Center              X                  Y                   Z               Mass       
    ------------   -----------------  -----------------  -----------------  -----------------
         C           -2.387783604043    -1.373444653769     0.196571627944    12.000000000000
         C           -0.000448370843    -0.023753515169    -0.681738371156    12.000000000000
         C            2.388632014457    -1.372171928569     0.197783964044    12.000000000000
         H           -4.061047876443    -0.365508449969    -0.456651839256     1.007825032230
         H           -2.436905977543    -1.479195562269     2.257821970244     1.007825032230
         H           -2.456946049943    -3.307157703269    -0.539843721656     1.007825032230
         H           -0.001994372943     0.076095871231    -2.745609639456     1.007825032230
         O           -0.000396181543     2.560301575831     0.107716700044    15.994914619570
         H           -0.000064427943     2.561474333131     1.928201394144     1.007825032230
         H            4.066919607557    -0.367260750069    -0.454394796056     1.007825032230
         H            2.447657837857    -3.300284571469    -0.539848350156     1.007825032230
         H            2.443905745357    -1.477591826869     2.262600302344     1.007825032230

  Running in c1 symmetry.

  Rotational constants: A =      0.28300  B =      0.26918  C =      0.15939 [cm^-1]
  Rotational constants: A =   8483.97682  B =   8069.68390  C =   4778.46615 [MHz]
  Nuclear repulsion =  134.676354895402682

  Charge       = 0
  Multiplicity = 1
  Electrons    = 34
  Nalpha       = 17
  Nbeta        = 17

  ==> Algorithm <==

  SCF Algorithm Type is DF.
  DIIS enabled.
  MOM disabled.
  Fractional occupation disabled.
  Guess Type is SAD.
  Energy threshold   = 1.00e-10
  Density threshold  = 1.00e-10
  Integral threshold = 0.00e+00

  ==> Primary Basis <==

  Basis Set: ANONYMOUSE3DE11B0
    Blend: 6-31G_2DFP_
    Number of shells: 64
    Number of basis function: 168
    Number of Cartesian functions: 188
    Spherical Harmonics?: true
    Max angular momentum: 3

  ==> DFT Potential <==

   => Composite Functional: B3LYP <= 

    B3LYP Hyb-GGA Exchange-Correlation Functional

    P. J. Stephens, F. J. Devlin, C. F. Chabalowski, and M. J. Frisch, J. Phys. Chem. 98, 11623 (1994)

    Deriv               =              1
    GGA                 =           TRUE
    Meta                =          FALSE

    Exchange Hybrid     =           TRUE
    MP2 Hybrid          =          FALSE

   => Exchange Functionals <=

    0.0800   Slater exchange
    0.7200         Becke 88

   => Exact (HF) Exchange <=

    0.2000               HF 

   => Correlation Functionals <=

    0.1900   Vosko, Wilk & Nusair (VWN5_RPA)
    0.8100   Lee, Yang & Parr

   => Molecular Quadrature <=

    Radial Scheme          =       TREUTLER
    Pruning Scheme         =           NONE
    Nuclear Scheme         =       TREUTLER

    BS radius alpha        =              1
    Pruning alpha          =              1
    Radial Points          =             99
    Spherical Points       =           1202
    Total Points           =        1330670
    Total Blocks           =           8867
    Max Points             =            256
    Max Functions          =            168
    Weights Tolerance      =       1.00E-15

   => Loading Basis Set <=

    Name: (ANONYMOUSE3DE11B0 AUX)
    Role: JKFIT
    Keyword: DF_BASIS_SCF
    atoms 1-3       entry C          line   198 file /opt/psi/4/master/share/psi4/basis/def2-universal-jkfit.gbs 
    atoms 4-7, 9-12 entry H          line    18 file /opt/psi/4/master/share/psi4/basis/def2-universal-jkfit.gbs 
    atoms 8         entry O          line   318 file /opt/psi/4/master/share/psi4/basis/def2-universal-jkfit.gbs 

  ==> Integral Setup <==

  DFHelper Memory: AOs need 0.101 GiB; user supplied 4.611 GiB. Using in-core AOs.

  ==> MemDFJK: Density-Fitted J/K Matrices <==

    J tasked:                   Yes
    K tasked:                   Yes
    wK tasked:                   No
    OpenMP threads:               4
    Memory [MiB]:              4721
    Algorithm:                 Core
    Schwarz Cutoff:           1E-12
    Mask sparsity (%):       0.9637
    Fitting Condition:        1E-10

   => Auxiliary Basis Set <=

  Basis Set: (ANONYMOUSE3DE11B0 AUX)
    Blend: DEF2-UNIVERSAL-JKFIT
    Number of shells: 148
    Number of basis function: 446
    Number of Cartesian functions: 520
    Spherical Harmonics?: true
    Max angular momentum: 4

  Cached 100.0% of DFT collocation blocks in 5.168 [GiB].

  Minimum eigenvalue in the overlap matrix is 1.3897029334E-03.
  Reciprocal condition number of the overlap matrix is 2.3080334749E-04.
    Using symmetric orthogonalization.

  ==> Pre-Iterations <==

  SCF Guess: Superposition of Atomic Densities via on-the-fly atomic UHF (no occupation information).

   -------------------------
    Irrep   Nso     Nmo    
   -------------------------
     A        168     168 
   -------------------------
    Total     168     168
   -------------------------

  ==> Iterations <==

                           Total Energy        Delta E     RMS |[F,P]|

   @DF-RKS iter SAD:  -193.70279739152912   -1.93703e+02   0.00000e+00 
   @DF-RKS iter   1:  -194.02082560535709   -3.18028e-01   5.02872e-03 DIIS
   @DF-RKS iter   2:  -193.86243623688961    1.58389e-01   6.08431e-03 DIIS
   @DF-RKS iter   3:  -194.37047087863050   -5.08035e-01   5.93194e-04 DIIS
   @DF-RKS iter   4:  -194.37355789233433   -3.08701e-03   2.72798e-04 DIIS
   @DF-RKS iter   5:  -194.37440790327830   -8.50011e-04   5.18840e-05 DIIS
   @DF-RKS iter   6:  -194.37443727290568   -2.93696e-05   1.79492e-05 DIIS
   @DF-RKS iter   7:  -194.37444116328527   -3.89038e-06   2.77386e-06 DIIS
   @DF-RKS iter   8:  -194.37444127017341   -1.06888e-07   6.37477e-07 DIIS
   @DF-RKS iter   9:  -194.37444127651816   -6.34475e-09   4.01456e-08 DIIS
   @DF-RKS iter  10:  -194.37444127653930   -2.11458e-11   1.23726e-08 DIIS
   @DF-RKS iter  11:  -194.37444127654172   -2.41585e-12   2.08698e-09 DIIS
   @DF-RKS iter  12:  -194.37444127654206   -3.41061e-13   6.98053e-10 DIIS
   @DF-RKS iter  13:  -194.37444127654160    4.54747e-13   2.55716e-10 DIIS
   @DF-RKS iter  14:  -194.37444127654209   -4.83169e-13   2.47966e-11 DIIS
  Energy and wave function converged.


  ==> Post-Iterations <==

    Orbital Energies [Eh]
    ---------------------

    Doubly Occupied:                                                      

       1A    -19.132568     2A    -10.226815     3A    -10.168770  
       4A    -10.168722     5A     -1.010334     6A     -0.768013  
       7A     -0.688594     8A     -0.597223     9A     -0.475231  
      10A     -0.465228    11A     -0.423806    12A     -0.409029  
      13A     -0.388755    14A     -0.357224    15A     -0.353365  
      16A     -0.316417    17A     -0.264676  

    Virtual:                                                              

      18A      0.066297    19A      0.107864    20A      0.124944  
      21A      0.135817    22A      0.144824    23A      0.163045  
      24A      0.179985    25A      0.184180    26A      0.217771  
      27A      0.225719    28A      0.250913    29A      0.390984  
      30A      0.415254    31A      0.423653    32A      0.449682  
      33A      0.471545    34A      0.481871    35A      0.491329  
      36A      0.522772    37A      0.546588    38A      0.572394  
      39A      0.592380    40A      0.597865    41A      0.600648  
      42A      0.611176    43A      0.613533    44A      0.622562  
      45A      0.638142    46A      0.662000    47A      0.665589  
      48A      0.746763    49A      0.757791    50A      0.822539  
      51A      0.840239    52A      0.890201    53A      0.908870  
      54A      0.944544    55A      0.956444    56A      1.007550  
      57A      1.013272    58A      1.022251    59A      1.089958  
      60A      1.112703    61A      1.117234    62A      1.172303  
      63A      1.173367    64A      1.187662    65A      1.251893  
      66A      1.275924    67A      1.284838    68A      1.313880  
      69A      1.349100    70A      1.353479    71A      1.364435  
      72A      1.383781    73A      1.415367    74A      1.430271  
      75A      1.431623    76A      1.468609    77A      1.492899  
      78A      1.529428    79A      1.547257    80A      1.589913  
      81A      1.613535    82A      1.658337    83A      1.661228  
      84A      1.738054    85A      1.784694    86A      1.816031  
      87A      1.830643    88A      1.890282    89A      1.996145  
      90A      2.009582    91A      2.017055    92A      2.077615  
      93A      2.098568    94A      2.281986    95A      2.396796  
      96A      2.639465    97A      2.723940    98A      2.831273  
      99A      2.856758   100A      2.881179   101A      2.919248  
     102A      2.943549   103A      2.957352   104A      2.986163  
     105A      3.012350   106A      3.042319   107A      3.079160  
     108A      3.105077   109A      3.169457   110A      3.268742  
     111A      3.318000   112A      3.359863   113A      3.389158  
     114A      3.426144   115A      3.486375   116A      3.494330  
     117A      3.506368   118A      3.527565   119A      3.576602  
     120A      3.596064   121A      3.596959   122A      3.659205  
     123A      3.706037   124A      3.753331   125A      3.757608  
     126A      3.775943   127A      3.851748   128A      3.988406  
     129A      3.993707   130A      4.063755   131A      4.075836  
     132A      4.127952   133A      4.129650   134A      4.152604  
     135A      4.170589   136A      4.211732   137A      4.225349  
     138A      4.244952   139A      4.291501   140A      4.395646  
     141A      4.409929   142A      4.461809   143A      4.468814  
     144A      4.529806   145A      4.541457   146A      4.573463  
     147A      4.579537   148A      4.620276   149A      4.680126  
     150A      4.953201   151A      4.992172   152A      5.102450  
     153A      5.204551   154A      5.232591   155A      5.287559  
     156A      5.297541   157A      5.349571   158A      5.373114  
     159A      5.582777   160A      5.585260   161A      5.775826  
     162A      5.892321   163A      6.396011   164A      6.983418  
     165A      7.043893   166A      7.228410   167A      7.347097  
     168A      7.446445  

    Final Occupation by Irrep:
              A 
    DOCC [    17 ]

  @DF-RKS Final Energy:  -194.37444127654209

   => Energetics <=

    Nuclear Repulsion Energy =            134.6763548954026817
    One-Electron Energy =                -529.4416622932944847
    Two-Electron Energy =                 222.9771284135425162
    DFT Exchange-Correlation Energy =     -22.5862622921928420
    Empirical Dispersion Energy =           0.0000000000000000
    VV10 Nonlocal Energy =                  0.0000000000000000
    Total Energy =                       -194.3744412765420861

Computation Completed


Properties will be evaluated at   0.000000,   0.000000,   0.000000 [a0]

Properties computed using the SCF density matrix

  Nuclear Dipole Moment: [e a0]
     X:     0.0008      Y:    -3.7932      Z:     0.8497

  Electronic Dipole Moment: [e a0]
     X:    -0.0013      Y:     3.3094      Z:    -0.5164

  Dipole Moment: [e a0]
     X:    -0.0006      Y:    -0.4838      Z:     0.3333     Total:     0.5876

  Dipole Moment: [D]
     X:    -0.0015      Y:    -1.2298      Z:     0.8473     Total:     1.4934


*** tstop() called on n040 at Tue Nov  9 17:10:53 2021
Module time:
	user time   =     134.58 seconds =       2.24 minutes
	system time =       1.28 seconds =       0.02 minutes
	total time  =         35 seconds =       0.58 minutes
Total time:
	user time   =     134.58 seconds =       2.24 minutes
	system time =       1.28 seconds =       0.02 minutes
	total time  =         35 seconds =       0.58 minutes
Grab this energy -194.3744412765421
    Psi4 stopped on: Tuesday, 09 November 2021 05:10PM
    Psi4 wall time for execution: 0:00:34.78

*** Psi4 exiting successfully. Buy a developer a beer!
