
    -----------------------------------------------------------------------
          Psi4: An Open-Source Ab Initio Electronic Structure Package
                               Psi4 1.4a2.dev629 

                         Git: Rev {master} 2938fc2 dirty


    D. G. A. Smith, L. A. Burns, A. C. Simmonett, R. M. Parrish,
    M. C. Schieber, R. Galvelis, P. Kraus, H. Kruse, R. Di Remigio,
    A. Alenaizan, A. M. James, S. Lehtola, J. P. Misiewicz, M. Scheurer,
    R. A. Shaw, J. B. Schriber, Y. Xie, Z. L. Glick, D. A. Sirianni,
    J. S. O'Brien, J. M. Waldrop, A. Kumar, E. G. Hohenstein,
    B. P. Pritchard, B. R. Brooks, H. F. Schaefer III, A. Yu. Sokolov,
    K. Patkowski, A. E. DePrince III, U. Bozkaya, R. A. King,
    F. A. Evangelista, J. M. Turney, T. D. Crawford, C. D. Sherrill,
    J. Chem. Phys. 152(18) 184108 (2020). https://doi.org/10.1063/5.0006002

                            Additional Code Authors
    E. T. Seidl, C. L. Janssen, E. F. Valeev, M. L. Leininger,
    J. F. Gonthier, R. M. Richard, H. R. McAlexander, M. Saitow, X. Wang,
    P. Verma, and M. H. Lechner

             Previous Authors, Complete List of Code Contributors,
                       and Citations for Specific Modules
    https://github.com/psi4/psi4/blob/master/codemeta.json
    https://github.com/psi4/psi4/graphs/contributors
    http://psicode.org/psi4manual/master/introduction.html#citing-psifour

    -----------------------------------------------------------------------


    Psi4 started on: Tuesday, 09 November 2021 04:56PM

    Process ID: 21478
    Host:       n023
    PSIDATADIR: /opt/psi/4/master/share/psi4
    Memory:     500.0 MiB
    Threads:    4
    
  ==> Input File <==

--------------------------------------------------------------------------
import os
memory 14 GB 
 
molecule {
 C   -2.3883610534   -1.3740437459    0.1984179449
 C    0.0005093927   -0.0224288688   -0.6807903944
 C    2.3896745054   -1.3721926970    0.1971955548
 H   -4.0641975662   -0.3678880163   -0.4568935950
 H   -2.4468439245   -1.4822717189    2.2550146349
 H   -2.4469099045   -3.3000408926   -0.5353707004
 H    0.0002983293    0.0768017136   -2.7425407103
 O   -0.0002953683    2.5618871628    0.1066500547
 H    0.0001596787    2.5588236458    1.9254673667
 H    4.0592806767   -0.3727291625   -0.4539838547
 H    2.4483090459   -3.3018409214   -0.5414181735
 H    2.4483742783   -1.4771970788    2.2591868522
units bohr
}

basis {

assign 6-31g_2dfp_

[ 6-31g_2dfp_ ]

spherical

!----------------------------------------------------------------------
! Basis Set Exchange
! Version v0.8.13
! https://www.basissetexchange.org
!----------------------------------------------------------------------
!   Basis set: 6-31G(2df,p)
! Description: 6-31G(2df,p)
!        Role: orbital
!     Version: 0  (Data from the original Basis Set Exchange)
!----------------------------------------------------------------------


****
H     0
S    3   1.00
     18.7311370              0.03349460
      2.8253937              0.23472695
      0.6401217              0.81375733
S    1   1.00
      0.1612778              1.00000000
P    1   1.00
      1.5000000              1.0000000
P    1   1.00
      0.3750000              1.0000000
****
B     0
S    6   1.00
   2068.8823000              0.0018663
    310.6495700              0.0142515
     70.6830330              0.0695516
     19.8610800              0.2325729
      6.2993048              0.4670787
      2.1270270              0.3634314
SP   3   1.00
      4.7279710             -0.1303938              0.0745976
      1.1903377             -0.1307889              0.3078467
      0.3594117              1.1309444              0.7434568
SP   1   1.00
      0.1267512              1.0000000              1.0000000
D    1   1.00
      0.8020000              1.0000000
D    1   1.00
      0.2005000              1.0000000
F    1   1.00
      0.5000000              1.0000000
****
C     0
S    6   1.00
   3047.5249000              0.0018347
    457.3695100              0.0140373
    103.9486900              0.0688426
     29.2101550              0.2321844
      9.2866630              0.4679413
      3.1639270              0.3623120
SP   3   1.00
      7.8682724             -0.1193324              0.0689991
      1.8812885             -0.1608542              0.3164240
      0.5442493              1.1434564              0.7443083
SP   1   1.00
      0.1687144              1.0000000              1.0000000
D    1   1.00
      1.2520000              1.0000000
D    1   1.00
      0.3130000              1.0000000
F    1   1.00
      0.8000000              1.0000000
****
N     0
S    6   1.00
   4173.5110000              0.0018348
    627.4579000              0.0139950
    142.9021000              0.0685870
     40.2343300              0.2322410
     12.8202100              0.4690700
      4.3904370              0.3604550
SP   3   1.00
     11.6263580             -0.1149610              0.0675800
      2.7162800             -0.1691180              0.3239070
      0.7722180              1.1458520              0.7408950
SP   1   1.00
      0.2120313              1.0000000              1.0000000
D    1   1.00
      1.8260000              1.0000000
D    1   1.00
      0.4565000              1.0000000
F    1   1.00
      1.0000000              1.0000000
****
O     0
S    6   1.00
   5484.6717000              0.0018311
    825.2349500              0.0139501
    188.0469600              0.0684451
     52.9645000              0.2327143
     16.8975700              0.4701930
      5.7996353              0.3585209
SP   3   1.00
     15.5396160             -0.1107775              0.0708743
      3.5999336             -0.1480263              0.3397528
      1.0137618              1.1307670              0.7271586
SP   1   1.00
      0.2700058              1.0000000              1.0000000
D    1   1.00
      2.5840000              1.0000000
D    1   1.00
      0.6460000              1.0000000
F    1   1.00
      1.4000000              1.0000000
****
F     0
S    6   1.00
   7001.7130900              0.0018196169
   1051.3660900              0.0139160796
    239.2856900              0.0684053245
     67.3974453              0.233185760
     21.5199573              0.471267439
      7.40310130             0.356618546
SP   3   1.00
     20.8479528             -0.108506975            0.0716287243
      4.80830834            -0.146451658            0.3459121030
      1.34406986             1.128688580            0.7224699570
SP   1   1.00
      0.358151393            1.0000000              1.0000000
D    1   1.00
      3.5000000              1.0000000
D    1   1.00
      0.8750000              1.0000000
F    1   1.00
      1.8500000              1.0000000
****
Al     0
S    6   1.00
  13983.1000000              0.00194267
   2098.7500000              0.0148599
    477.7050000              0.0728494
    134.3600000              0.2468300
     42.8709000              0.4872580
     14.5189000              0.3234960
SP   6   1.00
    239.6680000             -0.00292619             0.00460285
     57.4419000             -0.0374080              0.0331990
     18.2859000             -0.1144870              0.1362820
      6.5991400              0.1156350              0.3304760
      2.4904900              0.6125950              0.4491460
      0.9445400              0.3937990              0.2657040
SP   3   1.00
      1.2779000             -0.2276060             -0.0175130
      0.3975900              0.00144583             0.2445330
      0.1600950              1.0927900              0.8049340
SP   1   1.00
      0.0556577              1.0000000              1.0000000
D    1   1.00
      0.6500000              1.0000000
D    1   1.00
      0.1625000              1.0000000
F    1   1.00
      0.2500000              1.0000000
****
Si     0
S    6   1.00
  16115.9000000              0.00195948
   2425.5800000              0.01492880
    553.8670000              0.07284780
    156.3400000              0.24613000
     50.0683000              0.48591400
     17.0178000              0.32500200
SP   6   1.00
    292.7180000             -0.00278094             0.00443826
     69.8731000             -0.03571460             0.03266790
     22.3363000             -0.11498500             0.13472100
      8.1503900              0.09356340             0.32867800
      3.1345800              0.60301700             0.44964000
      1.2254300              0.41895900             0.26137200
SP   3   1.00
      1.7273800             -0.24463000            -0.01779510
      0.5729220              0.00431572             0.25353900
      0.2221920              1.09818000             0.80066900
SP   1   1.00
      0.0778369              1.00000000             1.00000000
D    1   1.00
      0.9000000              1.0000000
D    1   1.00
      0.2250000              1.0000000
F    1   1.00
      0.3200000              1.0000000
****
P     0
S    6   1.00
  19413.3000000              0.0018516
   2909.4200000              0.0142062
    661.3640000              0.0699995
    185.7590000              0.2400790
     59.1943000              0.4847620
     20.0310000              0.3352000
SP   6   1.00
    339.4780000             -0.00278217             0.00456462
     81.0101000             -0.0360499              0.03369360
     25.8780000             -0.1166310              0.13975500
      9.4522100              0.0968328              0.33936200
      3.6656600              0.6144180              0.45092100
      1.4674600              0.4037980              0.23858600
SP   3   1.00
      2.1562300             -0.2529230             -0.01776530
      0.7489970              0.0328517              0.27405800
      0.2831450              1.0812500              0.78542100
SP   1   1.00
      0.0998317              1.0000000              1.00000000
D    1   1.00
      1.1000000              1.0000000
D    1   1.00
      0.2750000              1.0000000
F    1   1.00
      0.4500000              1.0000000
****
S     0
S    6   1.00
  21917.1000000              0.0018690
   3301.4900000              0.0142300
    754.1460000              0.0696960
    212.7110000              0.2384870
     67.9896000              0.4833070
     23.0515000              0.3380740
SP   6   1.00
    423.7350000             -0.0023767              0.0040610
    100.7100000             -0.0316930              0.0306810
     32.1599000             -0.1133170              0.1304520
     11.8079000              0.0560900              0.3272050
      4.6311000              0.5922550              0.4528510
      1.8702500              0.4550060              0.2560420
SP   3   1.00
      2.6158400             -0.2503740             -0.0145110
      0.9221670              0.0669570              0.3102630
      0.3412870              1.0545100              0.7544830
SP   1   1.00
      0.1171670              1.0000000              1.0000000
D    1   1.00
      1.3000000              1.0000000
D    1   1.00
      0.3250000              1.0000000
F    1   1.00
      0.5500000              1.0000000
****
Cl     0
S    6   1.00
  25180.1000000              0.0018330
   3780.3500000              0.0140340
    860.4740000              0.0690970
    242.1450000              0.2374520
     77.3349000              0.4830340
     26.2470000              0.3398560
SP   6   1.00
    491.7650000             -0.0022974              0.0039894
    116.9840000             -0.0307140              0.0303180
     37.4153000             -0.1125280              0.1298800
     13.7834000              0.0450160              0.3279510
      5.4521500              0.5893530              0.4535270
      2.2258800              0.4652060              0.2521540
SP   3   1.00
      3.1864900             -0.2518300             -0.0142990
      1.1442700              0.0615890              0.3235720
      0.4203770              1.0601800              0.7435070
SP   1   1.00
      0.1426570              1.0000000              1.0000000
D    1   1.00
      1.5000000              1.0000000
D    1   1.00
      0.3750000              1.0000000
F    1   1.00
      0.7000000              1.0000000
****
}


set {
reference rhf                          
freeze_core true
e_convergence 10                       
d_convergence 10                      
dft_spherical_points 1202
dft_radial_points 99
}

e = energy('b3lyp')

print_out('Grab this energy {0}'.format(e))
--------------------------------------------------------------------------

  Memory set to  13.039 GiB by Python driver.

Scratch directory: /tmp/

*** tstart() called on n023
*** at Tue Nov  9 16:56:03 2021

   => Loading Basis Set <=

    Name: ANONYMOUS314BC3FF
    Role: ORBITAL
    Keyword: BASIS
    atoms 1-3       entry C          line    48 inputblock 6-31g_2dfp_ 
    atoms 4-7, 9-12 entry H          line    15 inputblock 6-31g_2dfp_ 
    atoms 8         entry O          line    90 inputblock 6-31g_2dfp_ 


         ---------------------------------------------------------
                                   SCF
               by Justin Turney, Rob Parrish, Andy Simmonett
                          and Daniel G. A. Smith
                              RKS Reference
                        4 Threads,  13351 MiB Core
         ---------------------------------------------------------

  ==> Geometry <==

    Molecular point group: c1
    Full point group: C1

    Geometry (in Bohr), charge = 0, multiplicity = 1:

       Center              X                  Y                   Z               Mass       
    ------------   -----------------  -----------------  -----------------  -----------------
         C           -2.388620944138    -1.374490832096     0.198308479891    12.000000000000
         C            0.000249501962    -0.022875954996    -0.680899859409    12.000000000000
         C            2.389414614662    -1.372639783196     0.197086089791    12.000000000000
         H           -4.064457456938    -0.368335102496    -0.457003060009     1.007825032230
         H           -2.447103815238    -1.482718805096     2.254905169891     1.007825032230
         H           -2.447169795238    -3.300487978796    -0.535480165409     1.007825032230
         H            0.000038438562     0.076354627404    -2.742650175309     1.007825032230
         O           -0.000555259038     2.561440076604     0.106540589691    15.994914619570
         H           -0.000100212038     2.558376559604     1.925357901691     1.007825032230
         H            4.059020785962    -0.373176248696    -0.454093319709     1.007825032230
         H            2.448049155162    -3.302288007596    -0.541527638509     1.007825032230
         H            2.448114387562    -1.477644164996     2.259077387191     1.007825032230

  Running in c1 symmetry.

  Rotational constants: A =      0.28294  B =      0.26917  C =      0.15931 [cm^-1]
  Rotational constants: A =   8482.35774  B =   8069.38987  C =   4776.02027 [MHz]
  Nuclear repulsion =  134.703655772728411

  Charge       = 0
  Multiplicity = 1
  Electrons    = 34
  Nalpha       = 17
  Nbeta        = 17

  ==> Algorithm <==

  SCF Algorithm Type is DF.
  DIIS enabled.
  MOM disabled.
  Fractional occupation disabled.
  Guess Type is SAD.
  Energy threshold   = 1.00e-10
  Density threshold  = 1.00e-10
  Integral threshold = 0.00e+00

  ==> Primary Basis <==

  Basis Set: ANONYMOUS314BC3FF
    Blend: 6-31G_2DFP_
    Number of shells: 64
    Number of basis function: 168
    Number of Cartesian functions: 188
    Spherical Harmonics?: true
    Max angular momentum: 3

  ==> DFT Potential <==

   => Composite Functional: B3LYP <= 

    B3LYP Hyb-GGA Exchange-Correlation Functional

    P. J. Stephens, F. J. Devlin, C. F. Chabalowski, and M. J. Frisch, J. Phys. Chem. 98, 11623 (1994)

    Deriv               =              1
    GGA                 =           TRUE
    Meta                =          FALSE

    Exchange Hybrid     =           TRUE
    MP2 Hybrid          =          FALSE

   => Exchange Functionals <=

    0.0800   Slater exchange
    0.7200         Becke 88

   => Exact (HF) Exchange <=

    0.2000               HF 

   => Correlation Functionals <=

    0.1900   Vosko, Wilk & Nusair (VWN5_RPA)
    0.8100   Lee, Yang & Parr

   => Molecular Quadrature <=

    Radial Scheme          =       TREUTLER
    Pruning Scheme         =           NONE
    Nuclear Scheme         =       TREUTLER

    BS radius alpha        =              1
    Pruning alpha          =              1
    Radial Points          =             99
    Spherical Points       =           1202
    Total Points           =        1330621
    Total Blocks           =           8873
    Max Points             =            256
    Max Functions          =            168
    Weights Tolerance      =       1.00E-15

   => Loading Basis Set <=

    Name: (ANONYMOUS314BC3FF AUX)
    Role: JKFIT
    Keyword: DF_BASIS_SCF
    atoms 1-3       entry C          line   198 file /opt/psi/4/master/share/psi4/basis/def2-universal-jkfit.gbs 
    atoms 4-7, 9-12 entry H          line    18 file /opt/psi/4/master/share/psi4/basis/def2-universal-jkfit.gbs 
    atoms 8         entry O          line   318 file /opt/psi/4/master/share/psi4/basis/def2-universal-jkfit.gbs 

  ==> Integral Setup <==

  DFHelper Memory: AOs need 0.101 GiB; user supplied 4.610 GiB. Using in-core AOs.

  ==> MemDFJK: Density-Fitted J/K Matrices <==

    J tasked:                   Yes
    K tasked:                   Yes
    wK tasked:                   No
    OpenMP threads:               4
    Memory [MiB]:              4721
    Algorithm:                 Core
    Schwarz Cutoff:           1E-12
    Mask sparsity (%):       0.9637
    Fitting Condition:        1E-10

   => Auxiliary Basis Set <=

  Basis Set: (ANONYMOUS314BC3FF AUX)
    Blend: DEF2-UNIVERSAL-JKFIT
    Number of shells: 148
    Number of basis function: 446
    Number of Cartesian functions: 520
    Spherical Harmonics?: true
    Max angular momentum: 4

  Cached 100.0% of DFT collocation blocks in 5.168 [GiB].

  Minimum eigenvalue in the overlap matrix is 1.3919707788E-03.
  Reciprocal condition number of the overlap matrix is 2.3101142559E-04.
    Using symmetric orthogonalization.

  ==> Pre-Iterations <==

  SCF Guess: Superposition of Atomic Densities via on-the-fly atomic UHF (no occupation information).

   -------------------------
    Irrep   Nso     Nmo    
   -------------------------
     A        168     168 
   -------------------------
    Total     168     168
   -------------------------

  ==> Iterations <==

                           Total Energy        Delta E     RMS |[F,P]|

   @DF-RKS iter SAD:  -193.70585493274368   -1.93706e+02   0.00000e+00 
   @DF-RKS iter   1:  -194.02059794982569   -3.14743e-01   5.03173e-03 DIIS
   @DF-RKS iter   2:  -193.86468998269604    1.55908e-01   6.07298e-03 DIIS
   @DF-RKS iter   3:  -194.37041811646912   -5.05728e-01   5.93442e-04 DIIS
   @DF-RKS iter   4:  -194.37350983975350   -3.09172e-03   2.71990e-04 DIIS
   @DF-RKS iter   5:  -194.37435442371708   -8.44584e-04   5.15607e-05 DIIS
   @DF-RKS iter   6:  -194.37438341651611   -2.89928e-05   1.78875e-05 DIIS
   @DF-RKS iter   7:  -194.37438728236111   -3.86585e-06   2.77755e-06 DIIS
   @DF-RKS iter   8:  -194.37438738948143   -1.07120e-07   6.36191e-07 DIIS
   @DF-RKS iter   9:  -194.37438739578508   -6.30365e-09   3.98933e-08 DIIS
   @DF-RKS iter  10:  -194.37438739580631   -2.12310e-11   1.23544e-08 DIIS
   @DF-RKS iter  11:  -194.37438739580864   -2.33058e-12   1.96922e-09 DIIS
   @DF-RKS iter  12:  -194.37438739580895   -3.12639e-13   4.99034e-10 DIIS
   @DF-RKS iter  13:  -194.37438739580909   -1.42109e-13   2.39495e-10 DIIS
   @DF-RKS iter  14:  -194.37438739580850    5.96856e-13   2.72147e-11 DIIS
  Energy and wave function converged.


  ==> Post-Iterations <==

    Orbital Energies [Eh]
    ---------------------

    Doubly Occupied:                                                      

       1A    -19.132522     2A    -10.226690     3A    -10.168223  
       4A    -10.168145     5A     -1.010588     6A     -0.768085  
       7A     -0.689025     8A     -0.597535     9A     -0.475419  
      10A     -0.465145    11A     -0.423923    12A     -0.409400  
      13A     -0.389071    14A     -0.357434    15A     -0.353684  
      16A     -0.316622    17A     -0.264595  

    Virtual:                                                              

      18A      0.066496    19A      0.108329    20A      0.125498  
      21A      0.136011    22A      0.145126    23A      0.163480  
      24A      0.180372    25A      0.184826    26A      0.217548  
      27A      0.225903    28A      0.250800    29A      0.390913  
      30A      0.415789    31A      0.423734    32A      0.450022  
      33A      0.471711    34A      0.482263    35A      0.491481  
      36A      0.522549    37A      0.546920    38A      0.572722  
      39A      0.593053    40A      0.598010    41A      0.601380  
      42A      0.612018    43A      0.614121    44A      0.622751  
      45A      0.638589    46A      0.662824    47A      0.666358  
      48A      0.747327    49A      0.758180    50A      0.823077  
      51A      0.840280    52A      0.890699    53A      0.909287  
      54A      0.945785    55A      0.957121    56A      1.007600  
      57A      1.013008    58A      1.022663    59A      1.090584  
      60A      1.114092    61A      1.117486    62A      1.173122  
      63A      1.174024    64A      1.187963    65A      1.252749  
      66A      1.276123    67A      1.285396    68A      1.314006  
      69A      1.349468    70A      1.354261    71A      1.365112  
      72A      1.384918    73A      1.416627    74A      1.430894  
      75A      1.431966    76A      1.469082    77A      1.494004  
      78A      1.530173    79A      1.548295    80A      1.590488  
      81A      1.614866    82A      1.658987    83A      1.661892  
      84A      1.738762    85A      1.787429    86A      1.819172  
      87A      1.832156    88A      1.890928    89A      1.997436  
      90A      2.009169    91A      2.018112    92A      2.078388  
      93A      2.100114    94A      2.282996    95A      2.396627  
      96A      2.640715    97A      2.723987    98A      2.831328  
      99A      2.857806   100A      2.882551   101A      2.920257  
     102A      2.944552   103A      2.958262   104A      2.986971  
     105A      3.012813   106A      3.042044   107A      3.080105  
     108A      3.105608   109A      3.169451   110A      3.268575  
     111A      3.318266   112A      3.359127   113A      3.389023  
     114A      3.425706   115A      3.486839   116A      3.494634  
     117A      3.503598   118A      3.526592   119A      3.577118  
     120A      3.595594   121A      3.596012   122A      3.660929  
     123A      3.706894   124A      3.753547   125A      3.757938  
     126A      3.777031   127A      3.851519   128A      3.988553  
     129A      3.994700   130A      4.066868   131A      4.077353  
     132A      4.128823   133A      4.131241   134A      4.155783  
     135A      4.174720   136A      4.215317   137A      4.225639  
     138A      4.248526   139A      4.295134   140A      4.396864  
     141A      4.411993   142A      4.463252   143A      4.468371  
     144A      4.531834   145A      4.543753   146A      4.575999  
     147A      4.581568   148A      4.622626   149A      4.680605  
     150A      4.954999   151A      4.993676   152A      5.105685  
     153A      5.206108   154A      5.237856   155A      5.291651  
     156A      5.302998   157A      5.355068   158A      5.376081  
     159A      5.582602   160A      5.585933   161A      5.776855  
     162A      5.893080   163A      6.395939   164A      6.983684  
     165A      7.044612   166A      7.228509   167A      7.346801  
     168A      7.446854  

    Final Occupation by Irrep:
              A 
    DOCC [    17 ]

  @DF-RKS Final Energy:  -194.37438739580850

   => Energetics <=

    Nuclear Repulsion Energy =            134.7036557727284105
    One-Electron Energy =                -529.4909351488947777
    Two-Electron Energy =                 223.0028000319864248
    DFT Exchange-Correlation Energy =     -22.5899080516285906
    Empirical Dispersion Energy =           0.0000000000000000
    VV10 Nonlocal Energy =                  0.0000000000000000
    Total Energy =                       -194.3743873958084976

Computation Completed


Properties will be evaluated at   0.000000,   0.000000,   0.000000 [a0]

Properties computed using the SCF density matrix

  Nuclear Dipole Moment: [e a0]
     X:    -0.0018      Y:    -3.7984      Z:     0.8479

  Electronic Dipole Moment: [e a0]
     X:     0.0033      Y:     3.3129      Z:    -0.5141

  Dipole Moment: [e a0]
     X:     0.0015      Y:    -0.4855      Z:     0.3338     Total:     0.5892

  Dipole Moment: [D]
     X:     0.0039      Y:    -1.2340      Z:     0.8485     Total:     1.4976


*** tstop() called on n023 at Tue Nov  9 16:56:37 2021
Module time:
	user time   =     133.92 seconds =       2.23 minutes
	system time =       1.25 seconds =       0.02 minutes
	total time  =         34 seconds =       0.57 minutes
Total time:
	user time   =     133.92 seconds =       2.23 minutes
	system time =       1.25 seconds =       0.02 minutes
	total time  =         34 seconds =       0.57 minutes
Grab this energy -194.3743873958085
    Psi4 stopped on: Tuesday, 09 November 2021 04:56PM
    Psi4 wall time for execution: 0:00:34.62

*** Psi4 exiting successfully. Buy a developer a beer!
