
    -----------------------------------------------------------------------
          Psi4: An Open-Source Ab Initio Electronic Structure Package
                               Psi4 1.4a2.dev629 

                         Git: Rev {master} 2938fc2 dirty


    D. G. A. Smith, L. A. Burns, A. C. Simmonett, R. M. Parrish,
    M. C. Schieber, R. Galvelis, P. Kraus, H. Kruse, R. Di Remigio,
    A. Alenaizan, A. M. James, S. Lehtola, J. P. Misiewicz, M. Scheurer,
    R. A. Shaw, J. B. Schriber, Y. Xie, Z. L. Glick, D. A. Sirianni,
    J. S. O'Brien, J. M. Waldrop, A. Kumar, E. G. Hohenstein,
    B. P. Pritchard, B. R. Brooks, H. F. Schaefer III, A. Yu. Sokolov,
    K. Patkowski, A. E. DePrince III, U. Bozkaya, R. A. King,
    F. A. Evangelista, J. M. Turney, T. D. Crawford, C. D. Sherrill,
    J. Chem. Phys. 152(18) 184108 (2020). https://doi.org/10.1063/5.0006002

                            Additional Code Authors
    E. T. Seidl, C. L. Janssen, E. F. Valeev, M. L. Leininger,
    J. F. Gonthier, R. M. Richard, H. R. McAlexander, M. Saitow, X. Wang,
    P. Verma, and M. H. Lechner

             Previous Authors, Complete List of Code Contributors,
                       and Citations for Specific Modules
    https://github.com/psi4/psi4/blob/master/codemeta.json
    https://github.com/psi4/psi4/graphs/contributors
    http://psicode.org/psi4manual/master/introduction.html#citing-psifour

    -----------------------------------------------------------------------


    Psi4 started on: Tuesday, 09 November 2021 04:36PM

    Process ID: 8196
    Host:       n051
    PSIDATADIR: /opt/psi/4/master/share/psi4
    Memory:     500.0 MiB
    Threads:    4
    
  ==> Input File <==

--------------------------------------------------------------------------
import os
memory 14 GB 
 
molecule {
 C   -2.3880843407   -1.3738021190    0.1966912499
 C    0.0006666451   -0.0230666321   -0.6813174425
 C    2.3881784618   -1.3737213857    0.1966431762
 H   -4.0649499902   -0.3688572788   -0.4602781304
 H   -2.4453014509   -1.4810400555    2.2630498411
 H   -2.4469397949   -3.3001713062   -0.5384454210
 H   -0.0021187212    0.0762262716   -2.7417286791
 O    0.0043936756    2.5617488538    0.1065624020
 H   -0.0030281466    2.5591225537    1.9259243435
 H    4.0647498809   -0.3684050655   -0.4598798743
 H    2.4473722161   -3.2998441613   -0.5393532174
 H    2.4450596549   -1.4813102550    2.2630667320
units bohr
}

basis {

assign 6-31g_2dfp_

[ 6-31g_2dfp_ ]

spherical

!----------------------------------------------------------------------
! Basis Set Exchange
! Version v0.8.13
! https://www.basissetexchange.org
!----------------------------------------------------------------------
!   Basis set: 6-31G(2df,p)
! Description: 6-31G(2df,p)
!        Role: orbital
!     Version: 0  (Data from the original Basis Set Exchange)
!----------------------------------------------------------------------


****
H     0
S    3   1.00
     18.7311370              0.03349460
      2.8253937              0.23472695
      0.6401217              0.81375733
S    1   1.00
      0.1612778              1.00000000
P    1   1.00
      1.5000000              1.0000000
P    1   1.00
      0.3750000              1.0000000
****
B     0
S    6   1.00
   2068.8823000              0.0018663
    310.6495700              0.0142515
     70.6830330              0.0695516
     19.8610800              0.2325729
      6.2993048              0.4670787
      2.1270270              0.3634314
SP   3   1.00
      4.7279710             -0.1303938              0.0745976
      1.1903377             -0.1307889              0.3078467
      0.3594117              1.1309444              0.7434568
SP   1   1.00
      0.1267512              1.0000000              1.0000000
D    1   1.00
      0.8020000              1.0000000
D    1   1.00
      0.2005000              1.0000000
F    1   1.00
      0.5000000              1.0000000
****
C     0
S    6   1.00
   3047.5249000              0.0018347
    457.3695100              0.0140373
    103.9486900              0.0688426
     29.2101550              0.2321844
      9.2866630              0.4679413
      3.1639270              0.3623120
SP   3   1.00
      7.8682724             -0.1193324              0.0689991
      1.8812885             -0.1608542              0.3164240
      0.5442493              1.1434564              0.7443083
SP   1   1.00
      0.1687144              1.0000000              1.0000000
D    1   1.00
      1.2520000              1.0000000
D    1   1.00
      0.3130000              1.0000000
F    1   1.00
      0.8000000              1.0000000
****
N     0
S    6   1.00
   4173.5110000              0.0018348
    627.4579000              0.0139950
    142.9021000              0.0685870
     40.2343300              0.2322410
     12.8202100              0.4690700
      4.3904370              0.3604550
SP   3   1.00
     11.6263580             -0.1149610              0.0675800
      2.7162800             -0.1691180              0.3239070
      0.7722180              1.1458520              0.7408950
SP   1   1.00
      0.2120313              1.0000000              1.0000000
D    1   1.00
      1.8260000              1.0000000
D    1   1.00
      0.4565000              1.0000000
F    1   1.00
      1.0000000              1.0000000
****
O     0
S    6   1.00
   5484.6717000              0.0018311
    825.2349500              0.0139501
    188.0469600              0.0684451
     52.9645000              0.2327143
     16.8975700              0.4701930
      5.7996353              0.3585209
SP   3   1.00
     15.5396160             -0.1107775              0.0708743
      3.5999336             -0.1480263              0.3397528
      1.0137618              1.1307670              0.7271586
SP   1   1.00
      0.2700058              1.0000000              1.0000000
D    1   1.00
      2.5840000              1.0000000
D    1   1.00
      0.6460000              1.0000000
F    1   1.00
      1.4000000              1.0000000
****
F     0
S    6   1.00
   7001.7130900              0.0018196169
   1051.3660900              0.0139160796
    239.2856900              0.0684053245
     67.3974453              0.233185760
     21.5199573              0.471267439
      7.40310130             0.356618546
SP   3   1.00
     20.8479528             -0.108506975            0.0716287243
      4.80830834            -0.146451658            0.3459121030
      1.34406986             1.128688580            0.7224699570
SP   1   1.00
      0.358151393            1.0000000              1.0000000
D    1   1.00
      3.5000000              1.0000000
D    1   1.00
      0.8750000              1.0000000
F    1   1.00
      1.8500000              1.0000000
****
Al     0
S    6   1.00
  13983.1000000              0.00194267
   2098.7500000              0.0148599
    477.7050000              0.0728494
    134.3600000              0.2468300
     42.8709000              0.4872580
     14.5189000              0.3234960
SP   6   1.00
    239.6680000             -0.00292619             0.00460285
     57.4419000             -0.0374080              0.0331990
     18.2859000             -0.1144870              0.1362820
      6.5991400              0.1156350              0.3304760
      2.4904900              0.6125950              0.4491460
      0.9445400              0.3937990              0.2657040
SP   3   1.00
      1.2779000             -0.2276060             -0.0175130
      0.3975900              0.00144583             0.2445330
      0.1600950              1.0927900              0.8049340
SP   1   1.00
      0.0556577              1.0000000              1.0000000
D    1   1.00
      0.6500000              1.0000000
D    1   1.00
      0.1625000              1.0000000
F    1   1.00
      0.2500000              1.0000000
****
Si     0
S    6   1.00
  16115.9000000              0.00195948
   2425.5800000              0.01492880
    553.8670000              0.07284780
    156.3400000              0.24613000
     50.0683000              0.48591400
     17.0178000              0.32500200
SP   6   1.00
    292.7180000             -0.00278094             0.00443826
     69.8731000             -0.03571460             0.03266790
     22.3363000             -0.11498500             0.13472100
      8.1503900              0.09356340             0.32867800
      3.1345800              0.60301700             0.44964000
      1.2254300              0.41895900             0.26137200
SP   3   1.00
      1.7273800             -0.24463000            -0.01779510
      0.5729220              0.00431572             0.25353900
      0.2221920              1.09818000             0.80066900
SP   1   1.00
      0.0778369              1.00000000             1.00000000
D    1   1.00
      0.9000000              1.0000000
D    1   1.00
      0.2250000              1.0000000
F    1   1.00
      0.3200000              1.0000000
****
P     0
S    6   1.00
  19413.3000000              0.0018516
   2909.4200000              0.0142062
    661.3640000              0.0699995
    185.7590000              0.2400790
     59.1943000              0.4847620
     20.0310000              0.3352000
SP   6   1.00
    339.4780000             -0.00278217             0.00456462
     81.0101000             -0.0360499              0.03369360
     25.8780000             -0.1166310              0.13975500
      9.4522100              0.0968328              0.33936200
      3.6656600              0.6144180              0.45092100
      1.4674600              0.4037980              0.23858600
SP   3   1.00
      2.1562300             -0.2529230             -0.01776530
      0.7489970              0.0328517              0.27405800
      0.2831450              1.0812500              0.78542100
SP   1   1.00
      0.0998317              1.0000000              1.00000000
D    1   1.00
      1.1000000              1.0000000
D    1   1.00
      0.2750000              1.0000000
F    1   1.00
      0.4500000              1.0000000
****
S     0
S    6   1.00
  21917.1000000              0.0018690
   3301.4900000              0.0142300
    754.1460000              0.0696960
    212.7110000              0.2384870
     67.9896000              0.4833070
     23.0515000              0.3380740
SP   6   1.00
    423.7350000             -0.0023767              0.0040610
    100.7100000             -0.0316930              0.0306810
     32.1599000             -0.1133170              0.1304520
     11.8079000              0.0560900              0.3272050
      4.6311000              0.5922550              0.4528510
      1.8702500              0.4550060              0.2560420
SP   3   1.00
      2.6158400             -0.2503740             -0.0145110
      0.9221670              0.0669570              0.3102630
      0.3412870              1.0545100              0.7544830
SP   1   1.00
      0.1171670              1.0000000              1.0000000
D    1   1.00
      1.3000000              1.0000000
D    1   1.00
      0.3250000              1.0000000
F    1   1.00
      0.5500000              1.0000000
****
Cl     0
S    6   1.00
  25180.1000000              0.0018330
   3780.3500000              0.0140340
    860.4740000              0.0690970
    242.1450000              0.2374520
     77.3349000              0.4830340
     26.2470000              0.3398560
SP   6   1.00
    491.7650000             -0.0022974              0.0039894
    116.9840000             -0.0307140              0.0303180
     37.4153000             -0.1125280              0.1298800
     13.7834000              0.0450160              0.3279510
      5.4521500              0.5893530              0.4535270
      2.2258800              0.4652060              0.2521540
SP   3   1.00
      3.1864900             -0.2518300             -0.0142990
      1.1442700              0.0615890              0.3235720
      0.4203770              1.0601800              0.7435070
SP   1   1.00
      0.1426570              1.0000000              1.0000000
D    1   1.00
      1.5000000              1.0000000
D    1   1.00
      0.3750000              1.0000000
F    1   1.00
      0.7000000              1.0000000
****
}


set {
reference rhf                          
freeze_core true
e_convergence 10                       
d_convergence 10                      
dft_spherical_points 1202
dft_radial_points 99
}

e = energy('b3lyp')

print_out('Grab this energy {0}'.format(e))
--------------------------------------------------------------------------

  Memory set to  13.039 GiB by Python driver.

Scratch directory: /tmp/

*** tstart() called on n051
*** at Tue Nov  9 16:36:32 2021

   => Loading Basis Set <=

    Name: ANONYMOUSC9D86CC9
    Role: ORBITAL
    Keyword: BASIS
    atoms 1-3       entry C          line    48 inputblock 6-31g_2dfp_ 
    atoms 4-7, 9-12 entry H          line    15 inputblock 6-31g_2dfp_ 
    atoms 8         entry O          line    90 inputblock 6-31g_2dfp_ 


         ---------------------------------------------------------
                                   SCF
               by Justin Turney, Rob Parrish, Andy Simmonett
                          and Daniel G. A. Smith
                              RKS Reference
                        4 Threads,  13351 MiB Core
         ---------------------------------------------------------

  ==> Geometry <==

    Molecular point group: c1
    Full point group: C1

    Geometry (in Bohr), charge = 0, multiplicity = 1:

       Center              X                  Y                   Z               Mass       
    ------------   -----------------  -----------------  -----------------  -----------------
         C           -2.389319972246    -1.373862394924     0.197117255590    12.000000000000
         C           -0.000568986446    -0.023126908024    -0.680891436810    12.000000000000
         C            2.386942830254    -1.373781661624     0.197069181890    12.000000000000
         H           -4.066185621746    -0.368917554724    -0.459852124710     1.007825032230
         H           -2.446537082446    -1.481100331424     2.263475846790     1.007825032230
         H           -2.448175426446    -3.300231582124    -0.538019415310     1.007825032230
         H           -0.003354352746     0.076165995676    -2.741302673410     1.007825032230
         O            0.003158044054     2.561688577876     0.106988407690    15.994914619570
         H           -0.004263778146     2.559062277776     1.926350349190     1.007825032230
         H            4.063514249354    -0.368465341424    -0.459453868610     1.007825032230
         H            2.446136584554    -3.299904437224    -0.538927211710     1.007825032230
         H            2.443824023354    -1.481370530924     2.263492737690     1.007825032230

  Running in c1 symmetry.

  Rotational constants: A =      0.28283  B =      0.26919  C =      0.15933 [cm^-1]
  Rotational constants: A =   8479.07187  B =   8070.01710  C =   4776.68200 [MHz]
  Nuclear repulsion =  134.671776894442274

  Charge       = 0
  Multiplicity = 1
  Electrons    = 34
  Nalpha       = 17
  Nbeta        = 17

  ==> Algorithm <==

  SCF Algorithm Type is DF.
  DIIS enabled.
  MOM disabled.
  Fractional occupation disabled.
  Guess Type is SAD.
  Energy threshold   = 1.00e-10
  Density threshold  = 1.00e-10
  Integral threshold = 0.00e+00

  ==> Primary Basis <==

  Basis Set: ANONYMOUSC9D86CC9
    Blend: 6-31G_2DFP_
    Number of shells: 64
    Number of basis function: 168
    Number of Cartesian functions: 188
    Spherical Harmonics?: true
    Max angular momentum: 3

  ==> DFT Potential <==

   => Composite Functional: B3LYP <= 

    B3LYP Hyb-GGA Exchange-Correlation Functional

    P. J. Stephens, F. J. Devlin, C. F. Chabalowski, and M. J. Frisch, J. Phys. Chem. 98, 11623 (1994)

    Deriv               =              1
    GGA                 =           TRUE
    Meta                =          FALSE

    Exchange Hybrid     =           TRUE
    MP2 Hybrid          =          FALSE

   => Exchange Functionals <=

    0.0800   Slater exchange
    0.7200         Becke 88

   => Exact (HF) Exchange <=

    0.2000               HF 

   => Correlation Functionals <=

    0.1900   Vosko, Wilk & Nusair (VWN5_RPA)
    0.8100   Lee, Yang & Parr

   => Molecular Quadrature <=

    Radial Scheme          =       TREUTLER
    Pruning Scheme         =           NONE
    Nuclear Scheme         =       TREUTLER

    BS radius alpha        =              1
    Pruning alpha          =              1
    Radial Points          =             99
    Spherical Points       =           1202
    Total Points           =        1330661
    Total Blocks           =           8869
    Max Points             =            256
    Max Functions          =            168
    Weights Tolerance      =       1.00E-15

   => Loading Basis Set <=

    Name: (ANONYMOUSC9D86CC9 AUX)
    Role: JKFIT
    Keyword: DF_BASIS_SCF
    atoms 1-3       entry C          line   198 file /opt/psi/4/master/share/psi4/basis/def2-universal-jkfit.gbs 
    atoms 4-7, 9-12 entry H          line    18 file /opt/psi/4/master/share/psi4/basis/def2-universal-jkfit.gbs 
    atoms 8         entry O          line   318 file /opt/psi/4/master/share/psi4/basis/def2-universal-jkfit.gbs 

  ==> Integral Setup <==

  DFHelper Memory: AOs need 0.101 GiB; user supplied 4.610 GiB. Using in-core AOs.

  ==> MemDFJK: Density-Fitted J/K Matrices <==

    J tasked:                   Yes
    K tasked:                   Yes
    wK tasked:                   No
    OpenMP threads:               4
    Memory [MiB]:              4720
    Algorithm:                 Core
    Schwarz Cutoff:           1E-12
    Mask sparsity (%):       0.9637
    Fitting Condition:        1E-10

   => Auxiliary Basis Set <=

  Basis Set: (ANONYMOUSC9D86CC9 AUX)
    Blend: DEF2-UNIVERSAL-JKFIT
    Number of shells: 148
    Number of basis function: 446
    Number of Cartesian functions: 520
    Spherical Harmonics?: true
    Max angular momentum: 4

  Cached 100.0% of DFT collocation blocks in 5.169 [GiB].

  Minimum eigenvalue in the overlap matrix is 1.3909258294E-03.
  Reciprocal condition number of the overlap matrix is 2.3096330131E-04.
    Using symmetric orthogonalization.

  ==> Pre-Iterations <==

  SCF Guess: Superposition of Atomic Densities via on-the-fly atomic UHF (no occupation information).

   -------------------------
    Irrep   Nso     Nmo    
   -------------------------
     A        168     168 
   -------------------------
    Total     168     168
   -------------------------

  ==> Iterations <==

                           Total Energy        Delta E     RMS |[F,P]|

   @DF-RKS iter SAD:  -193.70318183725152   -1.93703e+02   0.00000e+00 
   @DF-RKS iter   1:  -194.02104072248048   -3.17859e-01   5.02728e-03 DIIS
   @DF-RKS iter   2:  -193.86357491707915    1.57466e-01   6.07749e-03 DIIS
   @DF-RKS iter   3:  -194.37050380695507   -5.06929e-01   5.90119e-04 DIIS
   @DF-RKS iter   4:  -194.37354906565398   -3.04526e-03   2.72589e-04 DIIS
   @DF-RKS iter   5:  -194.37439789415632   -8.48829e-04   5.16756e-05 DIIS
   @DF-RKS iter   6:  -194.37442701424027   -2.91201e-05   1.79057e-05 DIIS
   @DF-RKS iter   7:  -194.37443088686271   -3.87262e-06   2.76750e-06 DIIS
   @DF-RKS iter   8:  -194.37443099326126   -1.06399e-07   6.36398e-07 DIIS
   @DF-RKS iter   9:  -194.37443099958566   -6.32440e-09   4.00319e-08 DIIS
   @DF-RKS iter  10:  -194.37443099960657   -2.09184e-11   1.23430e-08 DIIS
   @DF-RKS iter  11:  -194.37443099960927   -2.70006e-12   2.07882e-09 DIIS
   @DF-RKS iter  12:  -194.37443099960916    1.13687e-13   6.90130e-10 DIIS
   @DF-RKS iter  13:  -194.37443099960933   -1.70530e-13   2.55099e-10 DIIS
   @DF-RKS iter  14:  -194.37443099960907    2.55795e-13   2.47019e-11 DIIS
  Energy and wave function converged.


  ==> Post-Iterations <==

    Orbital Energies [Eh]
    ---------------------

    Doubly Occupied:                                                      

       1A    -19.132506     2A    -10.226658     3A    -10.168851  
       4A    -10.168700     5A     -1.010409     6A     -0.768108  
       7A     -0.688565     8A     -0.597313     9A     -0.475176  
      10A     -0.465181    11A     -0.423930    12A     -0.409212  
      13A     -0.388692    14A     -0.357276    15A     -0.353332  
      16A     -0.316665    17A     -0.264640  

    Virtual:                                                              

      18A      0.066416    19A      0.108095    20A      0.124874  
      21A      0.135606    22A      0.144866    23A      0.163170  
      24A      0.179606    25A      0.184772    26A      0.217681  
      27A      0.225752    28A      0.250797    29A      0.391086  
      30A      0.415345    31A      0.423740    32A      0.449798  
      33A      0.471432    34A      0.482259    35A      0.491324  
      36A      0.522814    37A      0.546349    38A      0.572523  
      39A      0.592321    40A      0.597400    41A      0.601199  
      42A      0.611621    43A      0.613671    44A      0.621956  
      45A      0.638628    46A      0.662310    47A      0.665336  
      48A      0.747267    49A      0.757631    50A      0.822397  
      51A      0.839958    52A      0.889689    53A      0.909079  
      54A      0.945587    55A      0.956419    56A      1.007123  
      57A      1.013025    58A      1.022126    59A      1.089990  
      60A      1.113948    61A      1.116681    62A      1.172774  
      63A      1.173593    64A      1.188051    65A      1.252367  
      66A      1.276085    67A      1.285355    68A      1.314141  
      69A      1.348538    70A      1.352951    71A      1.364462  
      72A      1.383760    73A      1.415616    74A      1.429840  
      75A      1.431170    76A      1.468708    77A      1.493391  
      78A      1.530207    79A      1.547964    80A      1.590108  
      81A      1.613815    82A      1.658186    83A      1.661586  
      84A      1.737496    85A      1.786105    86A      1.816113  
      87A      1.830081    88A      1.889970    89A      1.995996  
      90A      2.009524    91A      2.016807    92A      2.078903  
      93A      2.098967    94A      2.281949    95A      2.396091  
      96A      2.640498    97A      2.723873    98A      2.830960  
      99A      2.856533   100A      2.881368   101A      2.919257  
     102A      2.944002   103A      2.957117   104A      2.987021  
     105A      3.012602   106A      3.042194   107A      3.079843  
     108A      3.104488   109A      3.169444   110A      3.268960  
     111A      3.318475   112A      3.359328   113A      3.388468  
     114A      3.426738   115A      3.487941   116A      3.494094  
     117A      3.504956   118A      3.528390   119A      3.576147  
     120A      3.595416   121A      3.596031   122A      3.658971  
     123A      3.707018   124A      3.752595   125A      3.757933  
     126A      3.776651   127A      3.851425   128A      3.987346  
     129A      3.993119   130A      4.064390   131A      4.076258  
     132A      4.128866   133A      4.130077   134A      4.151691  
     135A      4.171008   136A      4.213017   137A      4.225612  
     138A      4.245449   139A      4.292941   140A      4.395408  
     141A      4.410140   142A      4.462136   143A      4.467098  
     144A      4.530513   145A      4.540181   146A      4.573089  
     147A      4.582164   148A      4.619222   149A      4.680477  
     150A      4.953311   151A      4.992301   152A      5.104655  
     153A      5.205315   154A      5.234431   155A      5.289127  
     156A      5.296213   157A      5.347983   158A      5.375502  
     159A      5.582451   160A      5.585414   161A      5.776477  
     162A      5.892411   163A      6.395767   164A      6.983606  
     165A      7.044476   166A      7.228333   167A      7.346656  
     168A      7.446532  

    Final Occupation by Irrep:
              A 
    DOCC [    17 ]

  @DF-RKS Final Energy:  -194.37443099960907

   => Energetics <=

    Nuclear Repulsion Energy =            134.6717768944422744
    One-Electron Energy =                -529.4311719904685560
    Two-Electron Energy =                 222.9718386574713236
    DFT Exchange-Correlation Energy =     -22.5868745610540813
    Empirical Dispersion Energy =           0.0000000000000000
    VV10 Nonlocal Energy =                  0.0000000000000000
    Total Energy =                       -194.3744309996090749

Computation Completed


Properties will be evaluated at   0.000000,   0.000000,   0.000000 [a0]

Properties computed using the SCF density matrix

  Nuclear Dipole Moment: [e a0]
     X:    -0.0075      Y:    -3.7959      Z:     0.8514

  Electronic Dipole Moment: [e a0]
     X:     0.0043      Y:     3.3090      Z:    -0.5202

  Dipole Moment: [e a0]
     X:    -0.0032      Y:    -0.4868      Z:     0.3312     Total:     0.5888

  Dipole Moment: [D]
     X:    -0.0081      Y:    -1.2374      Z:     0.8419     Total:     1.4967


*** tstop() called on n051 at Tue Nov  9 16:37:00 2021
Module time:
	user time   =     106.09 seconds =       1.77 minutes
	system time =       1.55 seconds =       0.03 minutes
	total time  =         28 seconds =       0.47 minutes
Total time:
	user time   =     106.09 seconds =       1.77 minutes
	system time =       1.55 seconds =       0.03 minutes
	total time  =         28 seconds =       0.47 minutes
Grab this energy -194.37443099960907
    Psi4 stopped on: Tuesday, 09 November 2021 04:37PM
    Psi4 wall time for execution: 0:00:27.64

*** Psi4 exiting successfully. Buy a developer a beer!
