
    -----------------------------------------------------------------------
          Psi4: An Open-Source Ab Initio Electronic Structure Package
                               Psi4 1.4a2.dev629 

                         Git: Rev {master} 2938fc2 dirty


    D. G. A. Smith, L. A. Burns, A. C. Simmonett, R. M. Parrish,
    M. C. Schieber, R. Galvelis, P. Kraus, H. Kruse, R. Di Remigio,
    A. Alenaizan, A. M. James, S. Lehtola, J. P. Misiewicz, M. Scheurer,
    R. A. Shaw, J. B. Schriber, Y. Xie, Z. L. Glick, D. A. Sirianni,
    J. S. O'Brien, J. M. Waldrop, A. Kumar, E. G. Hohenstein,
    B. P. Pritchard, B. R. Brooks, H. F. Schaefer III, A. Yu. Sokolov,
    K. Patkowski, A. E. DePrince III, U. Bozkaya, R. A. King,
    F. A. Evangelista, J. M. Turney, T. D. Crawford, C. D. Sherrill,
    J. Chem. Phys. 152(18) 184108 (2020). https://doi.org/10.1063/5.0006002

                            Additional Code Authors
    E. T. Seidl, C. L. Janssen, E. F. Valeev, M. L. Leininger,
    J. F. Gonthier, R. M. Richard, H. R. McAlexander, M. Saitow, X. Wang,
    P. Verma, and M. H. Lechner

             Previous Authors, Complete List of Code Contributors,
                       and Citations for Specific Modules
    https://github.com/psi4/psi4/blob/master/codemeta.json
    https://github.com/psi4/psi4/graphs/contributors
    http://psicode.org/psi4manual/master/introduction.html#citing-psifour

    -----------------------------------------------------------------------


    Psi4 started on: Tuesday, 09 November 2021 04:19PM

    Process ID: 6502
    Host:       n051
    PSIDATADIR: /opt/psi/4/master/share/psi4
    Memory:     500.0 MiB
    Threads:    4
    
  ==> Input File <==

--------------------------------------------------------------------------
import os
memory 14 GB 
 
molecule {
 C   -2.3866505847   -1.3721084802    0.1967771082
 C   -0.0000000199   -0.0228851184   -0.6826753741
 C    2.3866499145   -1.3721095792    0.1967771076
 H   -4.0646210822   -0.3672353825   -0.4555697251
 H   -2.4471316664   -1.4804988975    2.2611836333
 H   -2.4469146394   -3.3027991864   -0.5402976602
 H   -0.0000000300    0.0753764073   -2.7417376146
 O    0.0000006300    2.5604056372    0.1020301962
 H    0.0000006600    2.5592716671    1.9291311302
 H    4.0646208724   -0.3672372527   -0.4555697149
 H    2.4469132095   -3.3028002267   -0.5402977700
 H    2.4471308262   -1.4805001679    2.2611836634
units bohr
}

basis {

assign 6-31g_2dfp_

[ 6-31g_2dfp_ ]

spherical

!----------------------------------------------------------------------
! Basis Set Exchange
! Version v0.8.13
! https://www.basissetexchange.org
!----------------------------------------------------------------------
!   Basis set: 6-31G(2df,p)
! Description: 6-31G(2df,p)
!        Role: orbital
!     Version: 0  (Data from the original Basis Set Exchange)
!----------------------------------------------------------------------


****
H     0
S    3   1.00
     18.7311370              0.03349460
      2.8253937              0.23472695
      0.6401217              0.81375733
S    1   1.00
      0.1612778              1.00000000
P    1   1.00
      1.5000000              1.0000000
P    1   1.00
      0.3750000              1.0000000
****
B     0
S    6   1.00
   2068.8823000              0.0018663
    310.6495700              0.0142515
     70.6830330              0.0695516
     19.8610800              0.2325729
      6.2993048              0.4670787
      2.1270270              0.3634314
SP   3   1.00
      4.7279710             -0.1303938              0.0745976
      1.1903377             -0.1307889              0.3078467
      0.3594117              1.1309444              0.7434568
SP   1   1.00
      0.1267512              1.0000000              1.0000000
D    1   1.00
      0.8020000              1.0000000
D    1   1.00
      0.2005000              1.0000000
F    1   1.00
      0.5000000              1.0000000
****
C     0
S    6   1.00
   3047.5249000              0.0018347
    457.3695100              0.0140373
    103.9486900              0.0688426
     29.2101550              0.2321844
      9.2866630              0.4679413
      3.1639270              0.3623120
SP   3   1.00
      7.8682724             -0.1193324              0.0689991
      1.8812885             -0.1608542              0.3164240
      0.5442493              1.1434564              0.7443083
SP   1   1.00
      0.1687144              1.0000000              1.0000000
D    1   1.00
      1.2520000              1.0000000
D    1   1.00
      0.3130000              1.0000000
F    1   1.00
      0.8000000              1.0000000
****
N     0
S    6   1.00
   4173.5110000              0.0018348
    627.4579000              0.0139950
    142.9021000              0.0685870
     40.2343300              0.2322410
     12.8202100              0.4690700
      4.3904370              0.3604550
SP   3   1.00
     11.6263580             -0.1149610              0.0675800
      2.7162800             -0.1691180              0.3239070
      0.7722180              1.1458520              0.7408950
SP   1   1.00
      0.2120313              1.0000000              1.0000000
D    1   1.00
      1.8260000              1.0000000
D    1   1.00
      0.4565000              1.0000000
F    1   1.00
      1.0000000              1.0000000
****
O     0
S    6   1.00
   5484.6717000              0.0018311
    825.2349500              0.0139501
    188.0469600              0.0684451
     52.9645000              0.2327143
     16.8975700              0.4701930
      5.7996353              0.3585209
SP   3   1.00
     15.5396160             -0.1107775              0.0708743
      3.5999336             -0.1480263              0.3397528
      1.0137618              1.1307670              0.7271586
SP   1   1.00
      0.2700058              1.0000000              1.0000000
D    1   1.00
      2.5840000              1.0000000
D    1   1.00
      0.6460000              1.0000000
F    1   1.00
      1.4000000              1.0000000
****
F     0
S    6   1.00
   7001.7130900              0.0018196169
   1051.3660900              0.0139160796
    239.2856900              0.0684053245
     67.3974453              0.233185760
     21.5199573              0.471267439
      7.40310130             0.356618546
SP   3   1.00
     20.8479528             -0.108506975            0.0716287243
      4.80830834            -0.146451658            0.3459121030
      1.34406986             1.128688580            0.7224699570
SP   1   1.00
      0.358151393            1.0000000              1.0000000
D    1   1.00
      3.5000000              1.0000000
D    1   1.00
      0.8750000              1.0000000
F    1   1.00
      1.8500000              1.0000000
****
Al     0
S    6   1.00
  13983.1000000              0.00194267
   2098.7500000              0.0148599
    477.7050000              0.0728494
    134.3600000              0.2468300
     42.8709000              0.4872580
     14.5189000              0.3234960
SP   6   1.00
    239.6680000             -0.00292619             0.00460285
     57.4419000             -0.0374080              0.0331990
     18.2859000             -0.1144870              0.1362820
      6.5991400              0.1156350              0.3304760
      2.4904900              0.6125950              0.4491460
      0.9445400              0.3937990              0.2657040
SP   3   1.00
      1.2779000             -0.2276060             -0.0175130
      0.3975900              0.00144583             0.2445330
      0.1600950              1.0927900              0.8049340
SP   1   1.00
      0.0556577              1.0000000              1.0000000
D    1   1.00
      0.6500000              1.0000000
D    1   1.00
      0.1625000              1.0000000
F    1   1.00
      0.2500000              1.0000000
****
Si     0
S    6   1.00
  16115.9000000              0.00195948
   2425.5800000              0.01492880
    553.8670000              0.07284780
    156.3400000              0.24613000
     50.0683000              0.48591400
     17.0178000              0.32500200
SP   6   1.00
    292.7180000             -0.00278094             0.00443826
     69.8731000             -0.03571460             0.03266790
     22.3363000             -0.11498500             0.13472100
      8.1503900              0.09356340             0.32867800
      3.1345800              0.60301700             0.44964000
      1.2254300              0.41895900             0.26137200
SP   3   1.00
      1.7273800             -0.24463000            -0.01779510
      0.5729220              0.00431572             0.25353900
      0.2221920              1.09818000             0.80066900
SP   1   1.00
      0.0778369              1.00000000             1.00000000
D    1   1.00
      0.9000000              1.0000000
D    1   1.00
      0.2250000              1.0000000
F    1   1.00
      0.3200000              1.0000000
****
P     0
S    6   1.00
  19413.3000000              0.0018516
   2909.4200000              0.0142062
    661.3640000              0.0699995
    185.7590000              0.2400790
     59.1943000              0.4847620
     20.0310000              0.3352000
SP   6   1.00
    339.4780000             -0.00278217             0.00456462
     81.0101000             -0.0360499              0.03369360
     25.8780000             -0.1166310              0.13975500
      9.4522100              0.0968328              0.33936200
      3.6656600              0.6144180              0.45092100
      1.4674600              0.4037980              0.23858600
SP   3   1.00
      2.1562300             -0.2529230             -0.01776530
      0.7489970              0.0328517              0.27405800
      0.2831450              1.0812500              0.78542100
SP   1   1.00
      0.0998317              1.0000000              1.00000000
D    1   1.00
      1.1000000              1.0000000
D    1   1.00
      0.2750000              1.0000000
F    1   1.00
      0.4500000              1.0000000
****
S     0
S    6   1.00
  21917.1000000              0.0018690
   3301.4900000              0.0142300
    754.1460000              0.0696960
    212.7110000              0.2384870
     67.9896000              0.4833070
     23.0515000              0.3380740
SP   6   1.00
    423.7350000             -0.0023767              0.0040610
    100.7100000             -0.0316930              0.0306810
     32.1599000             -0.1133170              0.1304520
     11.8079000              0.0560900              0.3272050
      4.6311000              0.5922550              0.4528510
      1.8702500              0.4550060              0.2560420
SP   3   1.00
      2.6158400             -0.2503740             -0.0145110
      0.9221670              0.0669570              0.3102630
      0.3412870              1.0545100              0.7544830
SP   1   1.00
      0.1171670              1.0000000              1.0000000
D    1   1.00
      1.3000000              1.0000000
D    1   1.00
      0.3250000              1.0000000
F    1   1.00
      0.5500000              1.0000000
****
Cl     0
S    6   1.00
  25180.1000000              0.0018330
   3780.3500000              0.0140340
    860.4740000              0.0690970
    242.1450000              0.2374520
     77.3349000              0.4830340
     26.2470000              0.3398560
SP   6   1.00
    491.7650000             -0.0022974              0.0039894
    116.9840000             -0.0307140              0.0303180
     37.4153000             -0.1125280              0.1298800
     13.7834000              0.0450160              0.3279510
      5.4521500              0.5893530              0.4535270
      2.2258800              0.4652060              0.2521540
SP   3   1.00
      3.1864900             -0.2518300             -0.0142990
      1.1442700              0.0615890              0.3235720
      0.4203770              1.0601800              0.7435070
SP   1   1.00
      0.1426570              1.0000000              1.0000000
D    1   1.00
      1.5000000              1.0000000
D    1   1.00
      0.3750000              1.0000000
F    1   1.00
      0.7000000              1.0000000
****
}


set {
reference rhf                          
freeze_core true
e_convergence 10                       
d_convergence 10                      
dft_spherical_points 1202
dft_radial_points 99
}

e = energy('b3lyp')

print_out('Grab this energy {0}'.format(e))
--------------------------------------------------------------------------

  Memory set to  13.039 GiB by Python driver.

Scratch directory: /tmp/

*** tstart() called on n051
*** at Tue Nov  9 16:19:32 2021

   => Loading Basis Set <=

    Name: ANONYMOUS6C00B3AD
    Role: ORBITAL
    Keyword: BASIS
    atoms 1-3       entry C          line    48 inputblock 6-31g_2dfp_ 
    atoms 4-7, 9-12 entry H          line    15 inputblock 6-31g_2dfp_ 
    atoms 8         entry O          line    90 inputblock 6-31g_2dfp_ 


         ---------------------------------------------------------
                                   SCF
               by Justin Turney, Rob Parrish, Andy Simmonett
                          and Daniel G. A. Smith
                              RKS Reference
                        4 Threads,  13351 MiB Core
         ---------------------------------------------------------

  ==> Geometry <==

    Molecular point group: c1
    Full point group: C1

    Geometry (in Bohr), charge = 0, multiplicity = 1:

       Center              X                  Y                   Z               Mass       
    ------------   -----------------  -----------------  -----------------  -----------------
         C           -2.386650583555    -1.372471771592     0.198542417213    12.000000000000
         C           -0.000000018755    -0.023248409792    -0.680910065087    12.000000000000
         C            2.386649915645    -1.372472870592     0.198542416613    12.000000000000
         H           -4.064621081055    -0.367598673892    -0.453804416087     1.007825032230
         H           -2.447131665255    -1.480862188892     2.262948942313     1.007825032230
         H           -2.446914638255    -3.303162477792    -0.538532351187     1.007825032230
         H           -0.000000028855     0.075013115908    -2.739972305587     1.007825032230
         O            0.000000631145     2.560042345808     0.103795505213    15.994914619570
         H            0.000000661145     2.558908375708     1.930896439213     1.007825032230
         H            4.064620873545    -0.367600544092    -0.453804405887     1.007825032230
         H            2.446913210645    -3.303163518092    -0.538532460987     1.007825032230
         H            2.447130827345    -1.480863459292     2.262948972413     1.007825032230

  Running in c1 symmetry.

  Rotational constants: A =      0.28308  B =      0.26938  C =      0.15948 [cm^-1]
  Rotational constants: A =   8486.50721  B =   8075.85762  C =   4781.03607 [MHz]
  Nuclear repulsion =  134.697702367375712

  Charge       = 0
  Multiplicity = 1
  Electrons    = 34
  Nalpha       = 17
  Nbeta        = 17

  ==> Algorithm <==

  SCF Algorithm Type is DF.
  DIIS enabled.
  MOM disabled.
  Fractional occupation disabled.
  Guess Type is SAD.
  Energy threshold   = 1.00e-10
  Density threshold  = 1.00e-10
  Integral threshold = 0.00e+00

  ==> Primary Basis <==

  Basis Set: ANONYMOUS6C00B3AD
    Blend: 6-31G_2DFP_
    Number of shells: 64
    Number of basis function: 168
    Number of Cartesian functions: 188
    Spherical Harmonics?: true
    Max angular momentum: 3

  ==> DFT Potential <==

   => Composite Functional: B3LYP <= 

    B3LYP Hyb-GGA Exchange-Correlation Functional

    P. J. Stephens, F. J. Devlin, C. F. Chabalowski, and M. J. Frisch, J. Phys. Chem. 98, 11623 (1994)

    Deriv               =              1
    GGA                 =           TRUE
    Meta                =          FALSE

    Exchange Hybrid     =           TRUE
    MP2 Hybrid          =          FALSE

   => Exchange Functionals <=

    0.0800   Slater exchange
    0.7200         Becke 88

   => Exact (HF) Exchange <=

    0.2000               HF 

   => Correlation Functionals <=

    0.1900   Vosko, Wilk & Nusair (VWN5_RPA)
    0.8100   Lee, Yang & Parr

   => Molecular Quadrature <=

    Radial Scheme          =       TREUTLER
    Pruning Scheme         =           NONE
    Nuclear Scheme         =       TREUTLER

    BS radius alpha        =              1
    Pruning alpha          =              1
    Radial Points          =             99
    Spherical Points       =           1202
    Total Points           =        1330706
    Total Blocks           =           8876
    Max Points             =            256
    Max Functions          =            168
    Weights Tolerance      =       1.00E-15

   => Loading Basis Set <=

    Name: (ANONYMOUS6C00B3AD AUX)
    Role: JKFIT
    Keyword: DF_BASIS_SCF
    atoms 1-3       entry C          line   198 file /opt/psi/4/master/share/psi4/basis/def2-universal-jkfit.gbs 
    atoms 4-7, 9-12 entry H          line    18 file /opt/psi/4/master/share/psi4/basis/def2-universal-jkfit.gbs 
    atoms 8         entry O          line   318 file /opt/psi/4/master/share/psi4/basis/def2-universal-jkfit.gbs 

  ==> Integral Setup <==

  DFHelper Memory: AOs need 0.101 GiB; user supplied 4.610 GiB. Using in-core AOs.

  ==> MemDFJK: Density-Fitted J/K Matrices <==

    J tasked:                   Yes
    K tasked:                   Yes
    wK tasked:                   No
    OpenMP threads:               4
    Memory [MiB]:              4720
    Algorithm:                 Core
    Schwarz Cutoff:           1E-12
    Mask sparsity (%):       0.9637
    Fitting Condition:        1E-10

   => Auxiliary Basis Set <=

  Basis Set: (ANONYMOUS6C00B3AD AUX)
    Blend: DEF2-UNIVERSAL-JKFIT
    Number of shells: 148
    Number of basis function: 446
    Number of Cartesian functions: 520
    Spherical Harmonics?: true
    Max angular momentum: 4

  Cached 100.0% of DFT collocation blocks in 5.169 [GiB].

  Minimum eigenvalue in the overlap matrix is 1.3867098672E-03.
  Reciprocal condition number of the overlap matrix is 2.3024831441E-04.
    Using symmetric orthogonalization.

  ==> Pre-Iterations <==

  SCF Guess: Superposition of Atomic Densities via on-the-fly atomic UHF (no occupation information).

   -------------------------
    Irrep   Nso     Nmo    
   -------------------------
     A        168     168 
   -------------------------
    Total     168     168
   -------------------------

  ==> Iterations <==

                           Total Energy        Delta E     RMS |[F,P]|

   @DF-RKS iter SAD:  -193.70413513159571   -1.93704e+02   0.00000e+00 
   @DF-RKS iter   1:  -194.02065691483557   -3.16522e-01   5.02749e-03 DIIS
   @DF-RKS iter   2:  -193.86094619357283    1.59711e-01   6.09062e-03 DIIS
   @DF-RKS iter   3:  -194.37042538308089   -5.09479e-01   5.95586e-04 DIIS
   @DF-RKS iter   4:  -194.37353717986036   -3.11180e-03   2.74178e-04 DIIS
   @DF-RKS iter   5:  -194.37439537588375   -8.58196e-04   5.22093e-05 DIIS
   @DF-RKS iter   6:  -194.37442513374322   -2.97579e-05   1.80100e-05 DIIS
   @DF-RKS iter   7:  -194.37442904716428   -3.91342e-06   2.76811e-06 DIIS
   @DF-RKS iter   8:  -194.37442915363343   -1.06469e-07   6.37667e-07 DIIS
   @DF-RKS iter   9:  -194.37442915998395   -6.35052e-09   4.04816e-08 DIIS
   @DF-RKS iter  10:  -194.37442916000558   -2.16289e-11   1.24017e-08 DIIS
   @DF-RKS iter  11:  -194.37442916000813   -2.55795e-12   1.92733e-09 DIIS
   @DF-RKS iter  12:  -194.37442916000796    1.70530e-13   2.72279e-10 DIIS
   @DF-RKS iter  13:  -194.37442916000799   -2.84217e-14   4.77855e-11 DIIS
  Energy and wave function converged.


  ==> Post-Iterations <==

    Orbital Energies [Eh]
    ---------------------

    Doubly Occupied:                                                      

       1A    -19.132875     2A    -10.226462     3A    -10.168783  
       4A    -10.168750     5A     -1.010132     6A     -0.767971  
       7A     -0.688494     8A     -0.597221     9A     -0.475263  
      10A     -0.465079    11A     -0.423945    12A     -0.408999  
      13A     -0.388488    14A     -0.357242    15A     -0.353348  
      16A     -0.316682    17A     -0.264554  

    Virtual:                                                              

      18A      0.065997    19A      0.107707    20A      0.124911  
      21A      0.135597    22A      0.144584    23A      0.163250  
      24A      0.179710    25A      0.184273    26A      0.218056  
      27A      0.226024    28A      0.251200    29A      0.391068  
      30A      0.415160    31A      0.423730    32A      0.449757  
      33A      0.471679    34A      0.482227    35A      0.491338  
      36A      0.522876    37A      0.546638    38A      0.572616  
      39A      0.592510    40A      0.597089    41A      0.600787  
      42A      0.611214    43A      0.613110    44A      0.621783  
      45A      0.638208    46A      0.662598    47A      0.665584  
      48A      0.746913    49A      0.757786    50A      0.822199  
      51A      0.839833    52A      0.890102    53A      0.908251  
      54A      0.945354    55A      0.956700    56A      1.007444  
      57A      1.012984    58A      1.022206    59A      1.090102  
      60A      1.113594    61A      1.117321    62A      1.172554  
      63A      1.173720    64A      1.187721    65A      1.252137  
      66A      1.276281    67A      1.284993    68A      1.314324  
      69A      1.348823    70A      1.353586    71A      1.363069  
      72A      1.384075    73A      1.415760    74A      1.428731  
      75A      1.430089    76A      1.468397    77A      1.493080  
      78A      1.529344    79A      1.547318    80A      1.590798  
      81A      1.614558    82A      1.658544    83A      1.661979  
      84A      1.737563    85A      1.784629    86A      1.815796  
      87A      1.831383    88A      1.889568    89A      1.997183  
      90A      2.009529    91A      2.016490    92A      2.079097  
      93A      2.099535    94A      2.282849    95A      2.396644  
      96A      2.637705    97A      2.724144    98A      2.831157  
      99A      2.856773   100A      2.880384   101A      2.919457  
     102A      2.943655   103A      2.957264   104A      2.986346  
     105A      3.012478   106A      3.041958   107A      3.080369  
     108A      3.105498   109A      3.169621   110A      3.269606  
     111A      3.318603   112A      3.359578   113A      3.390606  
     114A      3.426560   115A      3.488522   116A      3.494592  
     117A      3.504840   118A      3.527599   119A      3.575538  
     120A      3.594654   121A      3.596265   122A      3.657596  
     123A      3.707164   124A      3.751455   125A      3.757302  
     126A      3.776593   127A      3.852220   128A      3.986926  
     129A      3.992434   130A      4.064753   131A      4.075915  
     132A      4.127852   133A      4.130160   134A      4.152176  
     135A      4.171510   136A      4.212493   137A      4.222761  
     138A      4.245454   139A      4.293623   140A      4.392610  
     141A      4.409232   142A      4.461194   143A      4.467153  
     144A      4.529784   145A      4.541821   146A      4.575080  
     147A      4.582161   148A      4.620135   149A      4.681351  
     150A      4.952064   151A      4.990571   152A      5.106014  
     153A      5.205430   154A      5.231998   155A      5.287265  
     156A      5.298054   157A      5.350540   158A      5.375230  
     159A      5.579035   160A      5.584550   161A      5.777754  
     162A      5.888345   163A      6.399239   164A      6.982656  
     165A      7.044785   166A      7.229074   167A      7.347458  
     168A      7.446106  

    Final Occupation by Irrep:
              A 
    DOCC [    17 ]

  @DF-RKS Final Energy:  -194.37442916000799

   => Energetics <=

    Nuclear Repulsion Energy =            134.6977023673757117
    One-Electron Energy =                -529.4856413804750446
    Two-Electron Energy =                 222.9992977633937130
    DFT Exchange-Correlation Energy =     -22.5857879103023720
    Empirical Dispersion Energy =           0.0000000000000000
    VV10 Nonlocal Energy =                  0.0000000000000000
    Total Energy =                       -194.3744291600079919

Computation Completed


Properties will be evaluated at   0.000000,   0.000000,   0.000000 [a0]

Properties computed using the SCF density matrix

  Nuclear Dipole Moment: [e a0]
     X:    -0.0000      Y:    -3.7981      Z:     0.8596

  Electronic Dipole Moment: [e a0]
     X:     0.0000      Y:     3.3146      Z:    -0.5257

  Dipole Moment: [e a0]
     X:    -0.0000      Y:    -0.4835      Z:     0.3338     Total:     0.5876

  Dipole Moment: [D]
     X:    -0.0000      Y:    -1.2290      Z:     0.8485     Total:     1.4935


*** tstop() called on n051 at Tue Nov  9 16:19:59 2021
Module time:
	user time   =     101.64 seconds =       1.69 minutes
	system time =       1.48 seconds =       0.02 minutes
	total time  =         27 seconds =       0.45 minutes
Total time:
	user time   =     101.64 seconds =       1.69 minutes
	system time =       1.48 seconds =       0.02 minutes
	total time  =         27 seconds =       0.45 minutes
Grab this energy -194.374429160008
    Psi4 stopped on: Tuesday, 09 November 2021 04:19PM
    Psi4 wall time for execution: 0:00:26.51

*** Psi4 exiting successfully. Buy a developer a beer!
