
    -----------------------------------------------------------------------
          Psi4: An Open-Source Ab Initio Electronic Structure Package
                               Psi4 1.4a2.dev629 

                         Git: Rev {master} 2938fc2 dirty


    D. G. A. Smith, L. A. Burns, A. C. Simmonett, R. M. Parrish,
    M. C. Schieber, R. Galvelis, P. Kraus, H. Kruse, R. Di Remigio,
    A. Alenaizan, A. M. James, S. Lehtola, J. P. Misiewicz, M. Scheurer,
    R. A. Shaw, J. B. Schriber, Y. Xie, Z. L. Glick, D. A. Sirianni,
    J. S. O'Brien, J. M. Waldrop, A. Kumar, E. G. Hohenstein,
    B. P. Pritchard, B. R. Brooks, H. F. Schaefer III, A. Yu. Sokolov,
    K. Patkowski, A. E. DePrince III, U. Bozkaya, R. A. King,
    F. A. Evangelista, J. M. Turney, T. D. Crawford, C. D. Sherrill,
    J. Chem. Phys. 152(18) 184108 (2020). https://doi.org/10.1063/5.0006002

                            Additional Code Authors
    E. T. Seidl, C. L. Janssen, E. F. Valeev, M. L. Leininger,
    J. F. Gonthier, R. M. Richard, H. R. McAlexander, M. Saitow, X. Wang,
    P. Verma, and M. H. Lechner

             Previous Authors, Complete List of Code Contributors,
                       and Citations for Specific Modules
    https://github.com/psi4/psi4/blob/master/codemeta.json
    https://github.com/psi4/psi4/graphs/contributors
    http://psicode.org/psi4manual/master/introduction.html#citing-psifour

    -----------------------------------------------------------------------


    Psi4 started on: Tuesday, 09 November 2021 04:01PM

    Process ID: 28868
    Host:       n059
    PSIDATADIR: /opt/psi/4/master/share/psi4
    Memory:     500.0 MiB
    Threads:    4
    
  ==> Input File <==

--------------------------------------------------------------------------
import os
memory 14 GB 
 
molecule {
 C   -2.3888281547   -1.3720580841    0.1970986613
 C   -0.0000000199   -0.0238144712   -0.6807038560
 C    2.3888274850   -1.3720591843    0.1970986614
 H   -4.0620113850   -0.3674449722   -0.4570624776
 H   -2.4478455628   -1.4806548635    2.2631354134
 H   -2.4458025113   -3.3036869379   -0.5390846420
 H   -0.0000000292    0.0772223477   -2.7513191333
 O    0.0000006307    2.5625886188    0.1065521712
 H    0.0000006594    2.5585779196    1.9282319580
 H    4.0620111747   -0.3674468415   -0.4570624685
 H    2.4458010807   -3.3036879780   -0.5390847512
 H    2.4478447224   -1.4806561334    2.2631354431
units bohr
}

basis {

assign 6-31g_2dfp_

[ 6-31g_2dfp_ ]

spherical

!----------------------------------------------------------------------
! Basis Set Exchange
! Version v0.8.13
! https://www.basissetexchange.org
!----------------------------------------------------------------------
!   Basis set: 6-31G(2df,p)
! Description: 6-31G(2df,p)
!        Role: orbital
!     Version: 0  (Data from the original Basis Set Exchange)
!----------------------------------------------------------------------


****
H     0
S    3   1.00
     18.7311370              0.03349460
      2.8253937              0.23472695
      0.6401217              0.81375733
S    1   1.00
      0.1612778              1.00000000
P    1   1.00
      1.5000000              1.0000000
P    1   1.00
      0.3750000              1.0000000
****
B     0
S    6   1.00
   2068.8823000              0.0018663
    310.6495700              0.0142515
     70.6830330              0.0695516
     19.8610800              0.2325729
      6.2993048              0.4670787
      2.1270270              0.3634314
SP   3   1.00
      4.7279710             -0.1303938              0.0745976
      1.1903377             -0.1307889              0.3078467
      0.3594117              1.1309444              0.7434568
SP   1   1.00
      0.1267512              1.0000000              1.0000000
D    1   1.00
      0.8020000              1.0000000
D    1   1.00
      0.2005000              1.0000000
F    1   1.00
      0.5000000              1.0000000
****
C     0
S    6   1.00
   3047.5249000              0.0018347
    457.3695100              0.0140373
    103.9486900              0.0688426
     29.2101550              0.2321844
      9.2866630              0.4679413
      3.1639270              0.3623120
SP   3   1.00
      7.8682724             -0.1193324              0.0689991
      1.8812885             -0.1608542              0.3164240
      0.5442493              1.1434564              0.7443083
SP   1   1.00
      0.1687144              1.0000000              1.0000000
D    1   1.00
      1.2520000              1.0000000
D    1   1.00
      0.3130000              1.0000000
F    1   1.00
      0.8000000              1.0000000
****
N     0
S    6   1.00
   4173.5110000              0.0018348
    627.4579000              0.0139950
    142.9021000              0.0685870
     40.2343300              0.2322410
     12.8202100              0.4690700
      4.3904370              0.3604550
SP   3   1.00
     11.6263580             -0.1149610              0.0675800
      2.7162800             -0.1691180              0.3239070
      0.7722180              1.1458520              0.7408950
SP   1   1.00
      0.2120313              1.0000000              1.0000000
D    1   1.00
      1.8260000              1.0000000
D    1   1.00
      0.4565000              1.0000000
F    1   1.00
      1.0000000              1.0000000
****
O     0
S    6   1.00
   5484.6717000              0.0018311
    825.2349500              0.0139501
    188.0469600              0.0684451
     52.9645000              0.2327143
     16.8975700              0.4701930
      5.7996353              0.3585209
SP   3   1.00
     15.5396160             -0.1107775              0.0708743
      3.5999336             -0.1480263              0.3397528
      1.0137618              1.1307670              0.7271586
SP   1   1.00
      0.2700058              1.0000000              1.0000000
D    1   1.00
      2.5840000              1.0000000
D    1   1.00
      0.6460000              1.0000000
F    1   1.00
      1.4000000              1.0000000
****
F     0
S    6   1.00
   7001.7130900              0.0018196169
   1051.3660900              0.0139160796
    239.2856900              0.0684053245
     67.3974453              0.233185760
     21.5199573              0.471267439
      7.40310130             0.356618546
SP   3   1.00
     20.8479528             -0.108506975            0.0716287243
      4.80830834            -0.146451658            0.3459121030
      1.34406986             1.128688580            0.7224699570
SP   1   1.00
      0.358151393            1.0000000              1.0000000
D    1   1.00
      3.5000000              1.0000000
D    1   1.00
      0.8750000              1.0000000
F    1   1.00
      1.8500000              1.0000000
****
Al     0
S    6   1.00
  13983.1000000              0.00194267
   2098.7500000              0.0148599
    477.7050000              0.0728494
    134.3600000              0.2468300
     42.8709000              0.4872580
     14.5189000              0.3234960
SP   6   1.00
    239.6680000             -0.00292619             0.00460285
     57.4419000             -0.0374080              0.0331990
     18.2859000             -0.1144870              0.1362820
      6.5991400              0.1156350              0.3304760
      2.4904900              0.6125950              0.4491460
      0.9445400              0.3937990              0.2657040
SP   3   1.00
      1.2779000             -0.2276060             -0.0175130
      0.3975900              0.00144583             0.2445330
      0.1600950              1.0927900              0.8049340
SP   1   1.00
      0.0556577              1.0000000              1.0000000
D    1   1.00
      0.6500000              1.0000000
D    1   1.00
      0.1625000              1.0000000
F    1   1.00
      0.2500000              1.0000000
****
Si     0
S    6   1.00
  16115.9000000              0.00195948
   2425.5800000              0.01492880
    553.8670000              0.07284780
    156.3400000              0.24613000
     50.0683000              0.48591400
     17.0178000              0.32500200
SP   6   1.00
    292.7180000             -0.00278094             0.00443826
     69.8731000             -0.03571460             0.03266790
     22.3363000             -0.11498500             0.13472100
      8.1503900              0.09356340             0.32867800
      3.1345800              0.60301700             0.44964000
      1.2254300              0.41895900             0.26137200
SP   3   1.00
      1.7273800             -0.24463000            -0.01779510
      0.5729220              0.00431572             0.25353900
      0.2221920              1.09818000             0.80066900
SP   1   1.00
      0.0778369              1.00000000             1.00000000
D    1   1.00
      0.9000000              1.0000000
D    1   1.00
      0.2250000              1.0000000
F    1   1.00
      0.3200000              1.0000000
****
P     0
S    6   1.00
  19413.3000000              0.0018516
   2909.4200000              0.0142062
    661.3640000              0.0699995
    185.7590000              0.2400790
     59.1943000              0.4847620
     20.0310000              0.3352000
SP   6   1.00
    339.4780000             -0.00278217             0.00456462
     81.0101000             -0.0360499              0.03369360
     25.8780000             -0.1166310              0.13975500
      9.4522100              0.0968328              0.33936200
      3.6656600              0.6144180              0.45092100
      1.4674600              0.4037980              0.23858600
SP   3   1.00
      2.1562300             -0.2529230             -0.01776530
      0.7489970              0.0328517              0.27405800
      0.2831450              1.0812500              0.78542100
SP   1   1.00
      0.0998317              1.0000000              1.00000000
D    1   1.00
      1.1000000              1.0000000
D    1   1.00
      0.2750000              1.0000000
F    1   1.00
      0.4500000              1.0000000
****
S     0
S    6   1.00
  21917.1000000              0.0018690
   3301.4900000              0.0142300
    754.1460000              0.0696960
    212.7110000              0.2384870
     67.9896000              0.4833070
     23.0515000              0.3380740
SP   6   1.00
    423.7350000             -0.0023767              0.0040610
    100.7100000             -0.0316930              0.0306810
     32.1599000             -0.1133170              0.1304520
     11.8079000              0.0560900              0.3272050
      4.6311000              0.5922550              0.4528510
      1.8702500              0.4550060              0.2560420
SP   3   1.00
      2.6158400             -0.2503740             -0.0145110
      0.9221670              0.0669570              0.3102630
      0.3412870              1.0545100              0.7544830
SP   1   1.00
      0.1171670              1.0000000              1.0000000
D    1   1.00
      1.3000000              1.0000000
D    1   1.00
      0.3250000              1.0000000
F    1   1.00
      0.5500000              1.0000000
****
Cl     0
S    6   1.00
  25180.1000000              0.0018330
   3780.3500000              0.0140340
    860.4740000              0.0690970
    242.1450000              0.2374520
     77.3349000              0.4830340
     26.2470000              0.3398560
SP   6   1.00
    491.7650000             -0.0022974              0.0039894
    116.9840000             -0.0307140              0.0303180
     37.4153000             -0.1125280              0.1298800
     13.7834000              0.0450160              0.3279510
      5.4521500              0.5893530              0.4535270
      2.2258800              0.4652060              0.2521540
SP   3   1.00
      3.1864900             -0.2518300             -0.0142990
      1.1442700              0.0615890              0.3235720
      0.4203770              1.0601800              0.7435070
SP   1   1.00
      0.1426570              1.0000000              1.0000000
D    1   1.00
      1.5000000              1.0000000
D    1   1.00
      0.3750000              1.0000000
F    1   1.00
      0.7000000              1.0000000
****
}


set {
reference rhf                          
freeze_core true
e_convergence 10                       
d_convergence 10                      
dft_spherical_points 1202
dft_radial_points 99
}

e = energy('b3lyp')

print_out('Grab this energy {0}'.format(e))
--------------------------------------------------------------------------

  Memory set to  13.039 GiB by Python driver.

Scratch directory: /tmp/

*** tstart() called on n059
*** at Tue Nov  9 16:01:47 2021

   => Loading Basis Set <=

    Name: ANONYMOUSAE01FF7B
    Role: ORBITAL
    Keyword: BASIS
    atoms 1-3       entry C          line    48 inputblock 6-31g_2dfp_ 
    atoms 4-7, 9-12 entry H          line    15 inputblock 6-31g_2dfp_ 
    atoms 8         entry O          line    90 inputblock 6-31g_2dfp_ 


         ---------------------------------------------------------
                                   SCF
               by Justin Turney, Rob Parrish, Andy Simmonett
                          and Daniel G. A. Smith
                              RKS Reference
                        4 Threads,  13351 MiB Core
         ---------------------------------------------------------

  ==> Geometry <==

    Molecular point group: c1
    Full point group: C1

    Geometry (in Bohr), charge = 0, multiplicity = 1:

       Center              X                  Y                   Z               Mass       
    ------------   -----------------  -----------------  -----------------  -----------------
         C           -2.388828153821    -1.372814479411     0.197256983079    12.000000000000
         C           -0.000000019021    -0.024570866511    -0.680545534221    12.000000000000
         C            2.388827485879    -1.372815579611     0.197256983179    12.000000000000
         H           -4.062011384121    -0.368201367511    -0.456904155821     1.007825032230
         H           -2.447845561921    -1.481411258811     2.263293735179     1.007825032230
         H           -2.445802510421    -3.304443333211    -0.538926320221     1.007825032230
         H           -0.000000028321     0.076465952389    -2.751160811521     1.007825032230
         O            0.000000631579     2.561832223489     0.106710492979    15.994914619570
         H            0.000000660279     2.557821524289     1.928390279779     1.007825032230
         H            4.062011175579    -0.368203236811    -0.456904146721     1.007825032230
         H            2.445801081579    -3.304444373311    -0.538926429421     1.007825032230
         H            2.447844723279    -1.481412528711     2.263293764879     1.007825032230

  Running in c1 symmetry.

  Rotational constants: A =      0.28276  B =      0.26907  C =      0.15931 [cm^-1]
  Rotational constants: A =   8476.96705  B =   8066.59602  C =   4776.11978 [MHz]
  Nuclear repulsion =  134.632072145215631

  Charge       = 0
  Multiplicity = 1
  Electrons    = 34
  Nalpha       = 17
  Nbeta        = 17

  ==> Algorithm <==

  SCF Algorithm Type is DF.
  DIIS enabled.
  MOM disabled.
  Fractional occupation disabled.
  Guess Type is SAD.
  Energy threshold   = 1.00e-10
  Density threshold  = 1.00e-10
  Integral threshold = 0.00e+00

  ==> Primary Basis <==

  Basis Set: ANONYMOUSAE01FF7B
    Blend: 6-31G_2DFP_
    Number of shells: 64
    Number of basis function: 168
    Number of Cartesian functions: 188
    Spherical Harmonics?: true
    Max angular momentum: 3

  ==> DFT Potential <==

   => Composite Functional: B3LYP <= 

    B3LYP Hyb-GGA Exchange-Correlation Functional

    P. J. Stephens, F. J. Devlin, C. F. Chabalowski, and M. J. Frisch, J. Phys. Chem. 98, 11623 (1994)

    Deriv               =              1
    GGA                 =           TRUE
    Meta                =          FALSE

    Exchange Hybrid     =           TRUE
    MP2 Hybrid          =          FALSE

   => Exchange Functionals <=

    0.0800   Slater exchange
    0.7200         Becke 88

   => Exact (HF) Exchange <=

    0.2000               HF 

   => Correlation Functionals <=

    0.1900   Vosko, Wilk & Nusair (VWN5_RPA)
    0.8100   Lee, Yang & Parr

   => Molecular Quadrature <=

    Radial Scheme          =       TREUTLER
    Pruning Scheme         =           NONE
    Nuclear Scheme         =       TREUTLER

    BS radius alpha        =              1
    Pruning alpha          =              1
    Radial Points          =             99
    Spherical Points       =           1202
    Total Points           =        1330708
    Total Blocks           =           8873
    Max Points             =            256
    Max Functions          =            168
    Weights Tolerance      =       1.00E-15

   => Loading Basis Set <=

    Name: (ANONYMOUSAE01FF7B AUX)
    Role: JKFIT
    Keyword: DF_BASIS_SCF
    atoms 1-3       entry C          line   198 file /opt/psi/4/master/share/psi4/basis/def2-universal-jkfit.gbs 
    atoms 4-7, 9-12 entry H          line    18 file /opt/psi/4/master/share/psi4/basis/def2-universal-jkfit.gbs 
    atoms 8         entry O          line   318 file /opt/psi/4/master/share/psi4/basis/def2-universal-jkfit.gbs 

  ==> Integral Setup <==

  DFHelper Memory: AOs need 0.101 GiB; user supplied 4.610 GiB. Using in-core AOs.

  ==> MemDFJK: Density-Fitted J/K Matrices <==

    J tasked:                   Yes
    K tasked:                   Yes
    wK tasked:                   No
    OpenMP threads:               4
    Memory [MiB]:              4720
    Algorithm:                 Core
    Schwarz Cutoff:           1E-12
    Mask sparsity (%):       0.9637
    Fitting Condition:        1E-10

   => Auxiliary Basis Set <=

  Basis Set: (ANONYMOUSAE01FF7B AUX)
    Blend: DEF2-UNIVERSAL-JKFIT
    Number of shells: 148
    Number of basis function: 446
    Number of Cartesian functions: 520
    Spherical Harmonics?: true
    Max angular momentum: 4

  Cached 100.0% of DFT collocation blocks in 5.169 [GiB].

  Minimum eigenvalue in the overlap matrix is 1.3914193491E-03.
  Reciprocal condition number of the overlap matrix is 2.3122048331E-04.
    Using symmetric orthogonalization.

  ==> Pre-Iterations <==

  SCF Guess: Superposition of Atomic Densities via on-the-fly atomic UHF (no occupation information).

   -------------------------
    Irrep   Nso     Nmo    
   -------------------------
     A        168     168 
   -------------------------
    Total     168     168
   -------------------------

  ==> Iterations <==

                           Total Energy        Delta E     RMS |[F,P]|

   @DF-RKS iter SAD:  -193.70028849039585   -1.93700e+02   0.00000e+00 
   @DF-RKS iter   1:  -194.02087283431746   -3.20584e-01   5.02817e-03 DIIS
   @DF-RKS iter   2:  -193.86215108520975    1.58722e-01   6.08570e-03 DIIS
   @DF-RKS iter   3:  -194.37043959282599   -5.08289e-01   5.95044e-04 DIIS
   @DF-RKS iter   4:  -194.37355267944150   -3.11309e-03   2.72876e-04 DIIS
   @DF-RKS iter   5:  -194.37440285649950   -8.50177e-04   5.21292e-05 DIIS
   @DF-RKS iter   6:  -194.37443253169346   -2.96752e-05   1.80061e-05 DIIS
   @DF-RKS iter   7:  -194.37443644983549   -3.91814e-06   2.76969e-06 DIIS
   @DF-RKS iter   8:  -194.37443655647422   -1.06639e-07   6.36996e-07 DIIS
   @DF-RKS iter   9:  -194.37443656282045   -6.34623e-09   4.00949e-08 DIIS
   @DF-RKS iter  10:  -194.37443656284140   -2.09468e-11   1.22149e-08 DIIS
   @DF-RKS iter  11:  -194.37443656284378   -2.38742e-12   1.91559e-09 DIIS
   @DF-RKS iter  12:  -194.37443656284387   -8.52651e-14   2.73868e-10 DIIS
   @DF-RKS iter  13:  -194.37443656284404   -1.70530e-13   4.78326e-11 DIIS
  Energy and wave function converged.


  ==> Post-Iterations <==

    Orbital Energies [Eh]
    ---------------------

    Doubly Occupied:                                                      

       1A    -19.132640     2A    -10.227231     3A    -10.168920  
       4A    -10.168888     5A     -1.010051     6A     -0.767958  
       7A     -0.688685     8A     -0.596639     9A     -0.475281  
      10A     -0.464660    11A     -0.423867    12A     -0.409387  
      13A     -0.388444    14A     -0.356805    15A     -0.353797  
      16A     -0.316529    17A     -0.264658  

    Virtual:                                                              

      18A      0.066182    19A      0.107666    20A      0.124605  
      21A      0.135522    22A      0.144516    23A      0.163059  
      24A      0.179841    25A      0.184162    26A      0.217538  
      27A      0.225383    28A      0.250990    29A      0.390550  
      30A      0.415276    31A      0.423634    32A      0.449812  
      33A      0.471692    34A      0.482101    35A      0.491083  
      36A      0.522347    37A      0.546559    38A      0.572140  
      39A      0.591845    40A      0.597115    41A      0.601031  
      42A      0.611176    43A      0.613084    44A      0.621469  
      45A      0.637771    46A      0.661645    47A      0.665576  
      48A      0.746812    49A      0.757824    50A      0.822326  
      51A      0.839457    52A      0.889664    53A      0.908559  
      54A      0.945225    55A      0.956305    56A      1.007332  
      57A      1.013074    58A      1.022569    59A      1.089547  
      60A      1.113512    61A      1.116605    62A      1.171533  
      63A      1.172673    64A      1.186986    65A      1.251812  
      66A      1.276237    67A      1.284729    68A      1.313511  
      69A      1.348853    70A      1.352694    71A      1.363855  
      72A      1.383949    73A      1.416040    74A      1.429572  
      75A      1.430428    76A      1.468240    77A      1.492849  
      78A      1.528589    79A      1.546647    80A      1.591049  
      81A      1.612991    82A      1.657640    83A      1.660399  
      84A      1.736710    85A      1.783663    86A      1.816594  
      87A      1.829871    88A      1.889822    89A      1.995176  
      90A      2.008296    91A      2.017206    92A      2.076816  
      93A      2.098484    94A      2.279535    95A      2.396870  
      96A      2.639104    97A      2.723970    98A      2.830295  
      99A      2.856502   100A      2.880782   101A      2.919019  
     102A      2.943610   103A      2.956263   104A      2.985893  
     105A      3.011824   106A      3.041802   107A      3.079464  
     108A      3.104852   109A      3.169112   110A      3.268966  
     111A      3.317380   112A      3.360064   113A      3.387789  
     114A      3.425832   115A      3.488010   116A      3.492589  
     117A      3.504075   118A      3.528087   119A      3.577506  
     120A      3.596535   121A      3.596728   122A      3.658599  
     123A      3.707633   124A      3.751436   125A      3.757475  
     126A      3.775948   127A      3.850695   128A      3.988196  
     129A      3.992172   130A      4.063498   131A      4.075795  
     132A      4.127176   133A      4.129219   134A      4.152643  
     135A      4.169980   136A      4.211700   137A      4.223321  
     138A      4.244575   139A      4.292668   140A      4.393563  
     141A      4.408255   142A      4.458267   143A      4.467317  
     144A      4.529411   145A      4.538502   146A      4.569392  
     147A      4.579230   148A      4.621598   149A      4.680270  
     150A      4.951747   151A      4.991372   152A      5.099153  
     153A      5.204281   154A      5.232877   155A      5.288047  
     156A      5.294571   157A      5.348815   158A      5.374146  
     159A      5.580942   160A      5.582853   161A      5.774988  
     162A      5.889361   163A      6.395091   164A      6.983089  
     165A      7.043973   166A      7.227919   167A      7.345854  
     168A      7.445334  

    Final Occupation by Irrep:
              A 
    DOCC [    17 ]

  @DF-RKS Final Energy:  -194.37443656284404

   => Energetics <=

    Nuclear Repulsion Energy =            134.6320721452156306
    One-Electron Energy =                -529.3549922623847124
    Two-Electron Energy =                 222.9329511361900131
    DFT Exchange-Correlation Energy =     -22.5844675818649563
    Empirical Dispersion Energy =           0.0000000000000000
    VV10 Nonlocal Energy =                  0.0000000000000000
    Total Energy =                       -194.3744365628440391

Computation Completed


Properties will be evaluated at   0.000000,   0.000000,   0.000000 [a0]

Properties computed using the SCF density matrix

  Nuclear Dipole Moment: [e a0]
     X:    -0.0000      Y:    -3.8004      Z:     0.8497

  Electronic Dipole Moment: [e a0]
     X:     0.0000      Y:     3.3140      Z:    -0.5161

  Dipole Moment: [e a0]
     X:    -0.0000      Y:    -0.4863      Z:     0.3336     Total:     0.5897

  Dipole Moment: [D]
     X:    -0.0000      Y:    -1.2361      Z:     0.8478     Total:     1.4990


*** tstop() called on n059 at Tue Nov  9 16:02:14 2021
Module time:
	user time   =     100.88 seconds =       1.68 minutes
	system time =       1.47 seconds =       0.02 minutes
	total time  =         27 seconds =       0.45 minutes
Total time:
	user time   =     100.88 seconds =       1.68 minutes
	system time =       1.47 seconds =       0.02 minutes
	total time  =         27 seconds =       0.45 minutes
Grab this energy -194.37443656284404
    Psi4 stopped on: Tuesday, 09 November 2021 04:02PM
    Psi4 wall time for execution: 0:00:26.32

*** Psi4 exiting successfully. Buy a developer a beer!
