
    -----------------------------------------------------------------------
          Psi4: An Open-Source Ab Initio Electronic Structure Package
                               Psi4 1.4a2.dev629 

                         Git: Rev {master} 2938fc2 dirty


    D. G. A. Smith, L. A. Burns, A. C. Simmonett, R. M. Parrish,
    M. C. Schieber, R. Galvelis, P. Kraus, H. Kruse, R. Di Remigio,
    A. Alenaizan, A. M. James, S. Lehtola, J. P. Misiewicz, M. Scheurer,
    R. A. Shaw, J. B. Schriber, Y. Xie, Z. L. Glick, D. A. Sirianni,
    J. S. O'Brien, J. M. Waldrop, A. Kumar, E. G. Hohenstein,
    B. P. Pritchard, B. R. Brooks, H. F. Schaefer III, A. Yu. Sokolov,
    K. Patkowski, A. E. DePrince III, U. Bozkaya, R. A. King,
    F. A. Evangelista, J. M. Turney, T. D. Crawford, C. D. Sherrill,
    J. Chem. Phys. 152(18) 184108 (2020). https://doi.org/10.1063/5.0006002

                            Additional Code Authors
    E. T. Seidl, C. L. Janssen, E. F. Valeev, M. L. Leininger,
    J. F. Gonthier, R. M. Richard, H. R. McAlexander, M. Saitow, X. Wang,
    P. Verma, and M. H. Lechner

             Previous Authors, Complete List of Code Contributors,
                       and Citations for Specific Modules
    https://github.com/psi4/psi4/blob/master/codemeta.json
    https://github.com/psi4/psi4/graphs/contributors
    http://psicode.org/psi4manual/master/introduction.html#citing-psifour

    -----------------------------------------------------------------------


    Psi4 started on: Tuesday, 09 November 2021 04:21PM

    Process ID: 251397
    Host:       n071
    PSIDATADIR: /opt/psi/4/master/share/psi4
    Memory:     500.0 MiB
    Threads:    4
    
  ==> Input File <==

--------------------------------------------------------------------------
import os
memory 14 GB 
 
molecule {
 C   -2.3903980623   -1.3728574156    0.1985823132
 C    0.0005787737   -0.0230062880   -0.6808751717
 C    2.3898107927   -1.3741267815    0.1973727042
 H   -4.0667611685   -0.3680341161   -0.4558038073
 H   -2.4491737625   -1.4786314067    2.2633312029
 H   -2.4410391714   -3.2991646692   -0.5406855701
 H    0.0021241469    0.0755639283   -2.7431947209
 O    0.0005235708    2.5601595533    0.1066515303
 H    0.0001912334    2.5595489278    1.9257567531
 H    4.0611439640   -0.3662744731   -0.4580541309
 H    2.4505718729   -3.3060686020   -0.5407123476
 H    2.4424259002   -1.4802292372    2.2585662248
units bohr
}

basis {

assign 6-31g_2dfp_

[ 6-31g_2dfp_ ]

spherical

!----------------------------------------------------------------------
! Basis Set Exchange
! Version v0.8.13
! https://www.basissetexchange.org
!----------------------------------------------------------------------
!   Basis set: 6-31G(2df,p)
! Description: 6-31G(2df,p)
!        Role: orbital
!     Version: 0  (Data from the original Basis Set Exchange)
!----------------------------------------------------------------------


****
H     0
S    3   1.00
     18.7311370              0.03349460
      2.8253937              0.23472695
      0.6401217              0.81375733
S    1   1.00
      0.1612778              1.00000000
P    1   1.00
      1.5000000              1.0000000
P    1   1.00
      0.3750000              1.0000000
****
B     0
S    6   1.00
   2068.8823000              0.0018663
    310.6495700              0.0142515
     70.6830330              0.0695516
     19.8610800              0.2325729
      6.2993048              0.4670787
      2.1270270              0.3634314
SP   3   1.00
      4.7279710             -0.1303938              0.0745976
      1.1903377             -0.1307889              0.3078467
      0.3594117              1.1309444              0.7434568
SP   1   1.00
      0.1267512              1.0000000              1.0000000
D    1   1.00
      0.8020000              1.0000000
D    1   1.00
      0.2005000              1.0000000
F    1   1.00
      0.5000000              1.0000000
****
C     0
S    6   1.00
   3047.5249000              0.0018347
    457.3695100              0.0140373
    103.9486900              0.0688426
     29.2101550              0.2321844
      9.2866630              0.4679413
      3.1639270              0.3623120
SP   3   1.00
      7.8682724             -0.1193324              0.0689991
      1.8812885             -0.1608542              0.3164240
      0.5442493              1.1434564              0.7443083
SP   1   1.00
      0.1687144              1.0000000              1.0000000
D    1   1.00
      1.2520000              1.0000000
D    1   1.00
      0.3130000              1.0000000
F    1   1.00
      0.8000000              1.0000000
****
N     0
S    6   1.00
   4173.5110000              0.0018348
    627.4579000              0.0139950
    142.9021000              0.0685870
     40.2343300              0.2322410
     12.8202100              0.4690700
      4.3904370              0.3604550
SP   3   1.00
     11.6263580             -0.1149610              0.0675800
      2.7162800             -0.1691180              0.3239070
      0.7722180              1.1458520              0.7408950
SP   1   1.00
      0.2120313              1.0000000              1.0000000
D    1   1.00
      1.8260000              1.0000000
D    1   1.00
      0.4565000              1.0000000
F    1   1.00
      1.0000000              1.0000000
****
O     0
S    6   1.00
   5484.6717000              0.0018311
    825.2349500              0.0139501
    188.0469600              0.0684451
     52.9645000              0.2327143
     16.8975700              0.4701930
      5.7996353              0.3585209
SP   3   1.00
     15.5396160             -0.1107775              0.0708743
      3.5999336             -0.1480263              0.3397528
      1.0137618              1.1307670              0.7271586
SP   1   1.00
      0.2700058              1.0000000              1.0000000
D    1   1.00
      2.5840000              1.0000000
D    1   1.00
      0.6460000              1.0000000
F    1   1.00
      1.4000000              1.0000000
****
F     0
S    6   1.00
   7001.7130900              0.0018196169
   1051.3660900              0.0139160796
    239.2856900              0.0684053245
     67.3974453              0.233185760
     21.5199573              0.471267439
      7.40310130             0.356618546
SP   3   1.00
     20.8479528             -0.108506975            0.0716287243
      4.80830834            -0.146451658            0.3459121030
      1.34406986             1.128688580            0.7224699570
SP   1   1.00
      0.358151393            1.0000000              1.0000000
D    1   1.00
      3.5000000              1.0000000
D    1   1.00
      0.8750000              1.0000000
F    1   1.00
      1.8500000              1.0000000
****
Al     0
S    6   1.00
  13983.1000000              0.00194267
   2098.7500000              0.0148599
    477.7050000              0.0728494
    134.3600000              0.2468300
     42.8709000              0.4872580
     14.5189000              0.3234960
SP   6   1.00
    239.6680000             -0.00292619             0.00460285
     57.4419000             -0.0374080              0.0331990
     18.2859000             -0.1144870              0.1362820
      6.5991400              0.1156350              0.3304760
      2.4904900              0.6125950              0.4491460
      0.9445400              0.3937990              0.2657040
SP   3   1.00
      1.2779000             -0.2276060             -0.0175130
      0.3975900              0.00144583             0.2445330
      0.1600950              1.0927900              0.8049340
SP   1   1.00
      0.0556577              1.0000000              1.0000000
D    1   1.00
      0.6500000              1.0000000
D    1   1.00
      0.1625000              1.0000000
F    1   1.00
      0.2500000              1.0000000
****
Si     0
S    6   1.00
  16115.9000000              0.00195948
   2425.5800000              0.01492880
    553.8670000              0.07284780
    156.3400000              0.24613000
     50.0683000              0.48591400
     17.0178000              0.32500200
SP   6   1.00
    292.7180000             -0.00278094             0.00443826
     69.8731000             -0.03571460             0.03266790
     22.3363000             -0.11498500             0.13472100
      8.1503900              0.09356340             0.32867800
      3.1345800              0.60301700             0.44964000
      1.2254300              0.41895900             0.26137200
SP   3   1.00
      1.7273800             -0.24463000            -0.01779510
      0.5729220              0.00431572             0.25353900
      0.2221920              1.09818000             0.80066900
SP   1   1.00
      0.0778369              1.00000000             1.00000000
D    1   1.00
      0.9000000              1.0000000
D    1   1.00
      0.2250000              1.0000000
F    1   1.00
      0.3200000              1.0000000
****
P     0
S    6   1.00
  19413.3000000              0.0018516
   2909.4200000              0.0142062
    661.3640000              0.0699995
    185.7590000              0.2400790
     59.1943000              0.4847620
     20.0310000              0.3352000
SP   6   1.00
    339.4780000             -0.00278217             0.00456462
     81.0101000             -0.0360499              0.03369360
     25.8780000             -0.1166310              0.13975500
      9.4522100              0.0968328              0.33936200
      3.6656600              0.6144180              0.45092100
      1.4674600              0.4037980              0.23858600
SP   3   1.00
      2.1562300             -0.2529230             -0.01776530
      0.7489970              0.0328517              0.27405800
      0.2831450              1.0812500              0.78542100
SP   1   1.00
      0.0998317              1.0000000              1.00000000
D    1   1.00
      1.1000000              1.0000000
D    1   1.00
      0.2750000              1.0000000
F    1   1.00
      0.4500000              1.0000000
****
S     0
S    6   1.00
  21917.1000000              0.0018690
   3301.4900000              0.0142300
    754.1460000              0.0696960
    212.7110000              0.2384870
     67.9896000              0.4833070
     23.0515000              0.3380740
SP   6   1.00
    423.7350000             -0.0023767              0.0040610
    100.7100000             -0.0316930              0.0306810
     32.1599000             -0.1133170              0.1304520
     11.8079000              0.0560900              0.3272050
      4.6311000              0.5922550              0.4528510
      1.8702500              0.4550060              0.2560420
SP   3   1.00
      2.6158400             -0.2503740             -0.0145110
      0.9221670              0.0669570              0.3102630
      0.3412870              1.0545100              0.7544830
SP   1   1.00
      0.1171670              1.0000000              1.0000000
D    1   1.00
      1.3000000              1.0000000
D    1   1.00
      0.3250000              1.0000000
F    1   1.00
      0.5500000              1.0000000
****
Cl     0
S    6   1.00
  25180.1000000              0.0018330
   3780.3500000              0.0140340
    860.4740000              0.0690970
    242.1450000              0.2374520
     77.3349000              0.4830340
     26.2470000              0.3398560
SP   6   1.00
    491.7650000             -0.0022974              0.0039894
    116.9840000             -0.0307140              0.0303180
     37.4153000             -0.1125280              0.1298800
     13.7834000              0.0450160              0.3279510
      5.4521500              0.5893530              0.4535270
      2.2258800              0.4652060              0.2521540
SP   3   1.00
      3.1864900             -0.2518300             -0.0142990
      1.1442700              0.0615890              0.3235720
      0.4203770              1.0601800              0.7435070
SP   1   1.00
      0.1426570              1.0000000              1.0000000
D    1   1.00
      1.5000000              1.0000000
D    1   1.00
      0.3750000              1.0000000
F    1   1.00
      0.7000000              1.0000000
****
}


set {
reference rhf                          
freeze_core true
e_convergence 10                       
d_convergence 10                      
dft_spherical_points 1202
dft_radial_points 99
}

e = energy('b3lyp')

print_out('Grab this energy {0}'.format(e))
--------------------------------------------------------------------------

  Memory set to  13.039 GiB by Python driver.

Scratch directory: /tmp/

*** tstart() called on n071
*** at Tue Nov  9 16:21:51 2021

   => Loading Basis Set <=

    Name: ANONYMOUSBD680981
    Role: ORBITAL
    Keyword: BASIS
    atoms 1-3       entry C          line    48 inputblock 6-31g_2dfp_ 
    atoms 4-7, 9-12 entry H          line    15 inputblock 6-31g_2dfp_ 
    atoms 8         entry O          line    90 inputblock 6-31g_2dfp_ 


         ---------------------------------------------------------
                                   SCF
               by Justin Turney, Rob Parrish, Andy Simmonett
                          and Daniel G. A. Smith
                              RKS Reference
                        4 Threads,  13351 MiB Core
         ---------------------------------------------------------

  ==> Geometry <==

    Molecular point group: c1
    Full point group: C1

    Geometry (in Bohr), charge = 0, multiplicity = 1:

       Center              X                  Y                   Z               Mass       
    ------------   -----------------  -----------------  -----------------  -----------------
         C           -2.390527130062    -1.372630841284     0.198425489414    12.000000000000
         C            0.000449705938    -0.022779713684    -0.681031995486    12.000000000000
         C            2.389681724938    -1.373900207184     0.197215880414    12.000000000000
         H           -4.066890236262    -0.367807541784    -0.455960631086     1.007825032230
         H           -2.449302830262    -1.478404832384     2.263174379114     1.007825032230
         H           -2.441168239162    -3.298938094884    -0.540842393886     1.007825032230
         H            0.001995079138     0.075790502616    -2.743351544686     1.007825032230
         O            0.000394503038     2.560386127616     0.106494706514    15.994914619570
         H            0.000062165638     2.559775502116     1.925599929314     1.007825032230
         H            4.061014896238    -0.366047898784    -0.458210954686     1.007825032230
         H            2.450442805138    -3.305842027684    -0.540869171386     1.007825032230
         H            2.442296832438    -1.480002662884     2.258409401014     1.007825032230

  Running in c1 symmetry.

  Rotational constants: A =      0.28300  B =      0.26895  C =      0.15930 [cm^-1]
  Rotational constants: A =   8484.22657  B =   8063.04532  C =   4775.66465 [MHz]
  Nuclear repulsion =  134.667918970158809

  Charge       = 0
  Multiplicity = 1
  Electrons    = 34
  Nalpha       = 17
  Nbeta        = 17

  ==> Algorithm <==

  SCF Algorithm Type is DF.
  DIIS enabled.
  MOM disabled.
  Fractional occupation disabled.
  Guess Type is SAD.
  Energy threshold   = 1.00e-10
  Density threshold  = 1.00e-10
  Integral threshold = 0.00e+00

  ==> Primary Basis <==

  Basis Set: ANONYMOUSBD680981
    Blend: 6-31G_2DFP_
    Number of shells: 64
    Number of basis function: 168
    Number of Cartesian functions: 188
    Spherical Harmonics?: true
    Max angular momentum: 3

  ==> DFT Potential <==

   => Composite Functional: B3LYP <= 

    B3LYP Hyb-GGA Exchange-Correlation Functional

    P. J. Stephens, F. J. Devlin, C. F. Chabalowski, and M. J. Frisch, J. Phys. Chem. 98, 11623 (1994)

    Deriv               =              1
    GGA                 =           TRUE
    Meta                =          FALSE

    Exchange Hybrid     =           TRUE
    MP2 Hybrid          =          FALSE

   => Exchange Functionals <=

    0.0800   Slater exchange
    0.7200         Becke 88

   => Exact (HF) Exchange <=

    0.2000               HF 

   => Correlation Functionals <=

    0.1900   Vosko, Wilk & Nusair (VWN5_RPA)
    0.8100   Lee, Yang & Parr

   => Molecular Quadrature <=

    Radial Scheme          =       TREUTLER
    Pruning Scheme         =           NONE
    Nuclear Scheme         =       TREUTLER

    BS radius alpha        =              1
    Pruning alpha          =              1
    Radial Points          =             99
    Spherical Points       =           1202
    Total Points           =        1330650
    Total Blocks           =           8848
    Max Points             =            256
    Max Functions          =            168
    Weights Tolerance      =       1.00E-15

   => Loading Basis Set <=

    Name: (ANONYMOUSBD680981 AUX)
    Role: JKFIT
    Keyword: DF_BASIS_SCF
    atoms 1-3       entry C          line   198 file /opt/psi/4/master/share/psi4/basis/def2-universal-jkfit.gbs 
    atoms 4-7, 9-12 entry H          line    18 file /opt/psi/4/master/share/psi4/basis/def2-universal-jkfit.gbs 
    atoms 8         entry O          line   318 file /opt/psi/4/master/share/psi4/basis/def2-universal-jkfit.gbs 

  ==> Integral Setup <==

  DFHelper Memory: AOs need 0.101 GiB; user supplied 4.610 GiB. Using in-core AOs.

  ==> MemDFJK: Density-Fitted J/K Matrices <==

    J tasked:                   Yes
    K tasked:                   Yes
    wK tasked:                   No
    OpenMP threads:               4
    Memory [MiB]:              4721
    Algorithm:                 Core
    Schwarz Cutoff:           1E-12
    Mask sparsity (%):       0.9637
    Fitting Condition:        1E-10

   => Auxiliary Basis Set <=

  Basis Set: (ANONYMOUSBD680981 AUX)
    Blend: DEF2-UNIVERSAL-JKFIT
    Number of shells: 148
    Number of basis function: 446
    Number of Cartesian functions: 520
    Spherical Harmonics?: true
    Max angular momentum: 4

  Cached 100.0% of DFT collocation blocks in 5.168 [GiB].

  Minimum eigenvalue in the overlap matrix is 1.3937563747E-03.
  Reciprocal condition number of the overlap matrix is 2.3146519385E-04.
    Using symmetric orthogonalization.

  ==> Pre-Iterations <==

  SCF Guess: Superposition of Atomic Densities via on-the-fly atomic UHF (no occupation information).

   -------------------------
    Irrep   Nso     Nmo    
   -------------------------
     A        168     168 
   -------------------------
    Total     168     168
   -------------------------

  ==> Iterations <==

                           Total Energy        Delta E     RMS |[F,P]|

   @DF-RKS iter SAD:  -193.70269023470877   -1.93703e+02   0.00000e+00 
   @DF-RKS iter   1:  -194.02108389080905   -3.18394e-01   5.02745e-03 DIIS
   @DF-RKS iter   2:  -193.86402802347459    1.57056e-01   6.07601e-03 DIIS
   @DF-RKS iter   3:  -194.37047697203226   -5.06449e-01   5.91986e-04 DIIS
   @DF-RKS iter   4:  -194.37354985345587   -3.07288e-03   2.72116e-04 DIIS
   @DF-RKS iter   5:  -194.37439598897635   -8.46136e-04   5.14088e-05 DIIS
   @DF-RKS iter   6:  -194.37442479066209   -2.88017e-05   1.78711e-05 DIIS
   @DF-RKS iter   7:  -194.37442864882055   -3.85816e-06   2.77730e-06 DIIS
   @DF-RKS iter   8:  -194.37442875593996   -1.07119e-07   6.36547e-07 DIIS
   @DF-RKS iter   9:  -194.37442876226095   -6.32099e-09   3.99026e-08 DIIS
   @DF-RKS iter  10:  -194.37442876228212   -2.11742e-11   1.23155e-08 DIIS
   @DF-RKS iter  11:  -194.37442876228462   -2.50111e-12   2.08153e-09 DIIS
   @DF-RKS iter  12:  -194.37442876228445    1.70530e-13   6.95937e-10 DIIS
   @DF-RKS iter  13:  -194.37442876228454   -8.52651e-14   2.55205e-10 DIIS
   @DF-RKS iter  14:  -194.37442876228462   -8.52651e-14   2.46831e-11 DIIS
  Energy and wave function converged.


  ==> Post-Iterations <==

    Orbital Energies [Eh]
    ---------------------

    Doubly Occupied:                                                      

       1A    -19.132518     2A    -10.226742     3A    -10.168704  
       4A    -10.168657     5A     -1.010686     6A     -0.767820  
       7A     -0.688587     8A     -0.597353     9A     -0.475167  
      10A     -0.465139    11A     -0.423701    12A     -0.409266  
      13A     -0.388873    14A     -0.357433    15A     -0.353575  
      16A     -0.316411    17A     -0.264518  

    Virtual:                                                              

      18A      0.066308    19A      0.108075    20A      0.125254  
      21A      0.135829    22A      0.144869    23A      0.163199  
      24A      0.179923    25A      0.184570    26A      0.217455  
      27A      0.226022    28A      0.250504    29A      0.390904  
      30A      0.415574    31A      0.423739    32A      0.449886  
      33A      0.471614    34A      0.482231    35A      0.491287  
      36A      0.522297    37A      0.546455    38A      0.572481  
      39A      0.592653    40A      0.597611    41A      0.601021  
      42A      0.611415    43A      0.613602    44A      0.622417  
      45A      0.638170    46A      0.662367    47A      0.665692  
      48A      0.746974    49A      0.757596    50A      0.822322  
      51A      0.839773    52A      0.889926    53A      0.908785  
      54A      0.945369    55A      0.956367    56A      1.007290  
      57A      1.013027    58A      1.022461    59A      1.089501  
      60A      1.113872    61A      1.117023    62A      1.172860  
      63A      1.173553    64A      1.187565    65A      1.252210  
      66A      1.275951    67A      1.285186    68A      1.313071  
      69A      1.349142    70A      1.353261    71A      1.363966  
      72A      1.384250    73A      1.415806    74A      1.430896  
      75A      1.431776    76A      1.468738    77A      1.493469  
      78A      1.529239    79A      1.547807    80A      1.590166  
      81A      1.613842    82A      1.657923    83A      1.661558  
      84A      1.738096    85A      1.785714    86A      1.816980  
      87A      1.830919    88A      1.890070    89A      1.995096  
      90A      2.008096    91A      2.017495    92A      2.077591  
      93A      2.099165    94A      2.282448    95A      2.396712  
      96A      2.640207    97A      2.723723    98A      2.830792  
      99A      2.856934   100A      2.881771   101A      2.919457  
     102A      2.943873   103A      2.957287   104A      2.986406  
     105A      3.012249   106A      3.042603   107A      3.079314  
     108A      3.104747   109A      3.170122   110A      3.269084  
     111A      3.317208   112A      3.359990   113A      3.388430  
     114A      3.425911   115A      3.487829   116A      3.494127  
     117A      3.504200   118A      3.527954   119A      3.576989  
     120A      3.595665   121A      3.596484   122A      3.659826  
     123A      3.706744   124A      3.752959   125A      3.757951  
     126A      3.776888   127A      3.850528   128A      3.987648  
     129A      3.993874   130A      4.064684   131A      4.076985  
     132A      4.127369   133A      4.128183   134A      4.152457  
     135A      4.170633   136A      4.211973   137A      4.225242  
     138A      4.244654   139A      4.293056   140A      4.396725  
     141A      4.410928   142A      4.462365   143A      4.467080  
     144A      4.529882   145A      4.540251   146A      4.573152  
     147A      4.580267   148A      4.619118   149A      4.678759  
     150A      4.955032   151A      4.993713   152A      5.103987  
     153A      5.204887   154A      5.233081   155A      5.287855  
     156A      5.297705   157A      5.349758   158A      5.374704  
     159A      5.583312   160A      5.586006   161A      5.776566  
     162A      5.893731   163A      6.396430   164A      6.983669  
     165A      7.044484   166A      7.228764   167A      7.347429  
     168A      7.447249  

    Final Occupation by Irrep:
              A 
    DOCC [    17 ]

  @DF-RKS Final Energy:  -194.37442876228462

   => Energetics <=

    Nuclear Repulsion Energy =            134.6679189701588086
    One-Electron Energy =                -529.4234574492237471
    Two-Electron Energy =                 222.9681535408957416
    DFT Exchange-Correlation Energy =     -22.5870438241154083
    Empirical Dispersion Energy =           0.0000000000000000
    VV10 Nonlocal Energy =                  0.0000000000000000
    Total Energy =                       -194.3744287622846230

Computation Completed


Properties will be evaluated at   0.000000,   0.000000,   0.000000 [a0]

Properties computed using the SCF density matrix

  Nuclear Dipole Moment: [e a0]
     X:    -0.0008      Y:    -3.7943      Z:     0.8476

  Electronic Dipole Moment: [e a0]
     X:     0.0014      Y:     3.3109      Z:    -0.5144

  Dipole Moment: [e a0]
     X:     0.0006      Y:    -0.4833      Z:     0.3332     Total:     0.5870

  Dipole Moment: [D]
     X:     0.0015      Y:    -1.2284      Z:     0.8468     Total:     1.4920


*** tstop() called on n071 at Tue Nov  9 16:22:27 2021
Module time:
	user time   =     134.83 seconds =       2.25 minutes
	system time =       2.27 seconds =       0.04 minutes
	total time  =         36 seconds =       0.60 minutes
Total time:
	user time   =     134.83 seconds =       2.25 minutes
	system time =       2.27 seconds =       0.04 minutes
	total time  =         36 seconds =       0.60 minutes
Grab this energy -194.37442876228462
    Psi4 stopped on: Tuesday, 09 November 2021 04:22PM
    Psi4 wall time for execution: 0:00:35.85

*** Psi4 exiting successfully. Buy a developer a beer!
