
    -----------------------------------------------------------------------
          Psi4: An Open-Source Ab Initio Electronic Structure Package
                               Psi4 1.4a2.dev629 

                         Git: Rev {master} 2938fc2 dirty


    D. G. A. Smith, L. A. Burns, A. C. Simmonett, R. M. Parrish,
    M. C. Schieber, R. Galvelis, P. Kraus, H. Kruse, R. Di Remigio,
    A. Alenaizan, A. M. James, S. Lehtola, J. P. Misiewicz, M. Scheurer,
    R. A. Shaw, J. B. Schriber, Y. Xie, Z. L. Glick, D. A. Sirianni,
    J. S. O'Brien, J. M. Waldrop, A. Kumar, E. G. Hohenstein,
    B. P. Pritchard, B. R. Brooks, H. F. Schaefer III, A. Yu. Sokolov,
    K. Patkowski, A. E. DePrince III, U. Bozkaya, R. A. King,
    F. A. Evangelista, J. M. Turney, T. D. Crawford, C. D. Sherrill,
    J. Chem. Phys. 152(18) 184108 (2020). https://doi.org/10.1063/5.0006002

                            Additional Code Authors
    E. T. Seidl, C. L. Janssen, E. F. Valeev, M. L. Leininger,
    J. F. Gonthier, R. M. Richard, H. R. McAlexander, M. Saitow, X. Wang,
    P. Verma, and M. H. Lechner

             Previous Authors, Complete List of Code Contributors,
                       and Citations for Specific Modules
    https://github.com/psi4/psi4/blob/master/codemeta.json
    https://github.com/psi4/psi4/graphs/contributors
    http://psicode.org/psi4manual/master/introduction.html#citing-psifour

    -----------------------------------------------------------------------


    Psi4 started on: Tuesday, 09 November 2021 05:09PM

    Process ID: 7547
    Host:       n058
    PSIDATADIR: /opt/psi/4/master/share/psi4
    Memory:     500.0 MiB
    Threads:    4
    
  ==> Input File <==

--------------------------------------------------------------------------
import os
memory 14 GB 
 
molecule {
 C   -2.3886113566   -1.3721747587    0.1981227202
 C    0.0005783142   -0.0231663966   -0.6807762463
 C    2.3880219457   -1.3734476487    0.1969107553
 H   -4.0671845013   -0.3683719508   -0.4555757812
 H   -2.4497536166   -1.4788199922    2.2633652975
 H   -2.4416120220   -3.2992781016   -0.5405228757
 H    0.0021226297    0.0756092995   -2.7432040303
 O    0.0005263709    2.5601856954    0.1066245120
 H    0.0001951874    2.5595440611    1.9257599605
 H    4.0615680655   -0.3666106977   -0.4578321547
 H    2.4511462913   -3.3061756288   -0.5405422709
 H    2.4430007818   -1.4804144609    2.2586050936
units bohr
}

basis {

assign 6-31g_2dfp_

[ 6-31g_2dfp_ ]

spherical

!----------------------------------------------------------------------
! Basis Set Exchange
! Version v0.8.13
! https://www.basissetexchange.org
!----------------------------------------------------------------------
!   Basis set: 6-31G(2df,p)
! Description: 6-31G(2df,p)
!        Role: orbital
!     Version: 0  (Data from the original Basis Set Exchange)
!----------------------------------------------------------------------


****
H     0
S    3   1.00
     18.7311370              0.03349460
      2.8253937              0.23472695
      0.6401217              0.81375733
S    1   1.00
      0.1612778              1.00000000
P    1   1.00
      1.5000000              1.0000000
P    1   1.00
      0.3750000              1.0000000
****
B     0
S    6   1.00
   2068.8823000              0.0018663
    310.6495700              0.0142515
     70.6830330              0.0695516
     19.8610800              0.2325729
      6.2993048              0.4670787
      2.1270270              0.3634314
SP   3   1.00
      4.7279710             -0.1303938              0.0745976
      1.1903377             -0.1307889              0.3078467
      0.3594117              1.1309444              0.7434568
SP   1   1.00
      0.1267512              1.0000000              1.0000000
D    1   1.00
      0.8020000              1.0000000
D    1   1.00
      0.2005000              1.0000000
F    1   1.00
      0.5000000              1.0000000
****
C     0
S    6   1.00
   3047.5249000              0.0018347
    457.3695100              0.0140373
    103.9486900              0.0688426
     29.2101550              0.2321844
      9.2866630              0.4679413
      3.1639270              0.3623120
SP   3   1.00
      7.8682724             -0.1193324              0.0689991
      1.8812885             -0.1608542              0.3164240
      0.5442493              1.1434564              0.7443083
SP   1   1.00
      0.1687144              1.0000000              1.0000000
D    1   1.00
      1.2520000              1.0000000
D    1   1.00
      0.3130000              1.0000000
F    1   1.00
      0.8000000              1.0000000
****
N     0
S    6   1.00
   4173.5110000              0.0018348
    627.4579000              0.0139950
    142.9021000              0.0685870
     40.2343300              0.2322410
     12.8202100              0.4690700
      4.3904370              0.3604550
SP   3   1.00
     11.6263580             -0.1149610              0.0675800
      2.7162800             -0.1691180              0.3239070
      0.7722180              1.1458520              0.7408950
SP   1   1.00
      0.2120313              1.0000000              1.0000000
D    1   1.00
      1.8260000              1.0000000
D    1   1.00
      0.4565000              1.0000000
F    1   1.00
      1.0000000              1.0000000
****
O     0
S    6   1.00
   5484.6717000              0.0018311
    825.2349500              0.0139501
    188.0469600              0.0684451
     52.9645000              0.2327143
     16.8975700              0.4701930
      5.7996353              0.3585209
SP   3   1.00
     15.5396160             -0.1107775              0.0708743
      3.5999336             -0.1480263              0.3397528
      1.0137618              1.1307670              0.7271586
SP   1   1.00
      0.2700058              1.0000000              1.0000000
D    1   1.00
      2.5840000              1.0000000
D    1   1.00
      0.6460000              1.0000000
F    1   1.00
      1.4000000              1.0000000
****
F     0
S    6   1.00
   7001.7130900              0.0018196169
   1051.3660900              0.0139160796
    239.2856900              0.0684053245
     67.3974453              0.233185760
     21.5199573              0.471267439
      7.40310130             0.356618546
SP   3   1.00
     20.8479528             -0.108506975            0.0716287243
      4.80830834            -0.146451658            0.3459121030
      1.34406986             1.128688580            0.7224699570
SP   1   1.00
      0.358151393            1.0000000              1.0000000
D    1   1.00
      3.5000000              1.0000000
D    1   1.00
      0.8750000              1.0000000
F    1   1.00
      1.8500000              1.0000000
****
Al     0
S    6   1.00
  13983.1000000              0.00194267
   2098.7500000              0.0148599
    477.7050000              0.0728494
    134.3600000              0.2468300
     42.8709000              0.4872580
     14.5189000              0.3234960
SP   6   1.00
    239.6680000             -0.00292619             0.00460285
     57.4419000             -0.0374080              0.0331990
     18.2859000             -0.1144870              0.1362820
      6.5991400              0.1156350              0.3304760
      2.4904900              0.6125950              0.4491460
      0.9445400              0.3937990              0.2657040
SP   3   1.00
      1.2779000             -0.2276060             -0.0175130
      0.3975900              0.00144583             0.2445330
      0.1600950              1.0927900              0.8049340
SP   1   1.00
      0.0556577              1.0000000              1.0000000
D    1   1.00
      0.6500000              1.0000000
D    1   1.00
      0.1625000              1.0000000
F    1   1.00
      0.2500000              1.0000000
****
Si     0
S    6   1.00
  16115.9000000              0.00195948
   2425.5800000              0.01492880
    553.8670000              0.07284780
    156.3400000              0.24613000
     50.0683000              0.48591400
     17.0178000              0.32500200
SP   6   1.00
    292.7180000             -0.00278094             0.00443826
     69.8731000             -0.03571460             0.03266790
     22.3363000             -0.11498500             0.13472100
      8.1503900              0.09356340             0.32867800
      3.1345800              0.60301700             0.44964000
      1.2254300              0.41895900             0.26137200
SP   3   1.00
      1.7273800             -0.24463000            -0.01779510
      0.5729220              0.00431572             0.25353900
      0.2221920              1.09818000             0.80066900
SP   1   1.00
      0.0778369              1.00000000             1.00000000
D    1   1.00
      0.9000000              1.0000000
D    1   1.00
      0.2250000              1.0000000
F    1   1.00
      0.3200000              1.0000000
****
P     0
S    6   1.00
  19413.3000000              0.0018516
   2909.4200000              0.0142062
    661.3640000              0.0699995
    185.7590000              0.2400790
     59.1943000              0.4847620
     20.0310000              0.3352000
SP   6   1.00
    339.4780000             -0.00278217             0.00456462
     81.0101000             -0.0360499              0.03369360
     25.8780000             -0.1166310              0.13975500
      9.4522100              0.0968328              0.33936200
      3.6656600              0.6144180              0.45092100
      1.4674600              0.4037980              0.23858600
SP   3   1.00
      2.1562300             -0.2529230             -0.01776530
      0.7489970              0.0328517              0.27405800
      0.2831450              1.0812500              0.78542100
SP   1   1.00
      0.0998317              1.0000000              1.00000000
D    1   1.00
      1.1000000              1.0000000
D    1   1.00
      0.2750000              1.0000000
F    1   1.00
      0.4500000              1.0000000
****
S     0
S    6   1.00
  21917.1000000              0.0018690
   3301.4900000              0.0142300
    754.1460000              0.0696960
    212.7110000              0.2384870
     67.9896000              0.4833070
     23.0515000              0.3380740
SP   6   1.00
    423.7350000             -0.0023767              0.0040610
    100.7100000             -0.0316930              0.0306810
     32.1599000             -0.1133170              0.1304520
     11.8079000              0.0560900              0.3272050
      4.6311000              0.5922550              0.4528510
      1.8702500              0.4550060              0.2560420
SP   3   1.00
      2.6158400             -0.2503740             -0.0145110
      0.9221670              0.0669570              0.3102630
      0.3412870              1.0545100              0.7544830
SP   1   1.00
      0.1171670              1.0000000              1.0000000
D    1   1.00
      1.3000000              1.0000000
D    1   1.00
      0.3250000              1.0000000
F    1   1.00
      0.5500000              1.0000000
****
Cl     0
S    6   1.00
  25180.1000000              0.0018330
   3780.3500000              0.0140340
    860.4740000              0.0690970
    242.1450000              0.2374520
     77.3349000              0.4830340
     26.2470000              0.3398560
SP   6   1.00
    491.7650000             -0.0022974              0.0039894
    116.9840000             -0.0307140              0.0303180
     37.4153000             -0.1125280              0.1298800
     13.7834000              0.0450160              0.3279510
      5.4521500              0.5893530              0.4535270
      2.2258800              0.4652060              0.2521540
SP   3   1.00
      3.1864900             -0.2518300             -0.0142990
      1.1442700              0.0615890              0.3235720
      0.4203770              1.0601800              0.7435070
SP   1   1.00
      0.1426570              1.0000000              1.0000000
D    1   1.00
      1.5000000              1.0000000
D    1   1.00
      0.3750000              1.0000000
F    1   1.00
      0.7000000              1.0000000
****
}


set {
reference rhf                          
freeze_core true
e_convergence 10                       
d_convergence 10                      
dft_spherical_points 1202
dft_radial_points 99
}

e = energy('b3lyp')

print_out('Grab this energy {0}'.format(e))
--------------------------------------------------------------------------

  Memory set to  13.039 GiB by Python driver.

Scratch directory: /tmp/

*** tstart() called on n058
*** at Tue Nov  9 17:09:47 2021

   => Loading Basis Set <=

    Name: ANONYMOUS63720111
    Role: ORBITAL
    Keyword: BASIS
    atoms 1-3       entry C          line    48 inputblock 6-31g_2dfp_ 
    atoms 4-7, 9-12 entry H          line    15 inputblock 6-31g_2dfp_ 
    atoms 8         entry O          line    90 inputblock 6-31g_2dfp_ 


         ---------------------------------------------------------
                                   SCF
               by Justin Turney, Rob Parrish, Andy Simmonett
                          and Daniel G. A. Smith
                              RKS Reference
                        4 Threads,  13351 MiB Core
         ---------------------------------------------------------

  ==> Geometry <==

    Molecular point group: c1
    Full point group: C1

    Geometry (in Bohr), charge = 0, multiplicity = 1:

       Center              X                  Y                   Z               Mass       
    ------------   -----------------  -----------------  -----------------  -----------------
         C           -2.388740647098    -1.372174648681     0.198123200128    12.000000000000
         C            0.000449023702    -0.023166286581    -0.680775766372    12.000000000000
         C            2.387892655202    -1.373447538681     0.196911235228    12.000000000000
         H           -4.067313791798    -0.368371840781    -0.455575301272     1.007825032230
         H           -2.449882907098    -1.478819882181     2.263365777428     1.007825032230
         H           -2.441741312498    -3.299277991581    -0.540522395772     1.007825032230
         H            0.001993339202     0.075609409519    -2.743203550372     1.007825032230
         O            0.000397080402     2.560185805419     0.106624991928    15.994914619570
         H            0.000065896902     2.559544171119     1.925760440428     1.007825032230
         H            4.061438775002    -0.366610587681    -0.457831674772     1.007825032230
         H            2.451017000802    -3.306175518781    -0.540541790972     1.007825032230
         H            2.442871491302    -1.480414350881     2.258605573528     1.007825032230

  Running in c1 symmetry.

  Rotational constants: A =      0.28306  B =      0.26919  C =      0.15939 [cm^-1]
  Rotational constants: A =   8486.06347  B =   8070.01074  C =   4778.52641 [MHz]
  Nuclear repulsion =  134.691760258827998

  Charge       = 0
  Multiplicity = 1
  Electrons    = 34
  Nalpha       = 17
  Nbeta        = 17

  ==> Algorithm <==

  SCF Algorithm Type is DF.
  DIIS enabled.
  MOM disabled.
  Fractional occupation disabled.
  Guess Type is SAD.
  Energy threshold   = 1.00e-10
  Density threshold  = 1.00e-10
  Integral threshold = 0.00e+00

  ==> Primary Basis <==

  Basis Set: ANONYMOUS63720111
    Blend: 6-31G_2DFP_
    Number of shells: 64
    Number of basis function: 168
    Number of Cartesian functions: 188
    Spherical Harmonics?: true
    Max angular momentum: 3

  ==> DFT Potential <==

   => Composite Functional: B3LYP <= 

    B3LYP Hyb-GGA Exchange-Correlation Functional

    P. J. Stephens, F. J. Devlin, C. F. Chabalowski, and M. J. Frisch, J. Phys. Chem. 98, 11623 (1994)

    Deriv               =              1
    GGA                 =           TRUE
    Meta                =          FALSE

    Exchange Hybrid     =           TRUE
    MP2 Hybrid          =          FALSE

   => Exchange Functionals <=

    0.0800   Slater exchange
    0.7200         Becke 88

   => Exact (HF) Exchange <=

    0.2000               HF 

   => Correlation Functionals <=

    0.1900   Vosko, Wilk & Nusair (VWN5_RPA)
    0.8100   Lee, Yang & Parr

   => Molecular Quadrature <=

    Radial Scheme          =       TREUTLER
    Pruning Scheme         =           NONE
    Nuclear Scheme         =       TREUTLER

    BS radius alpha        =              1
    Pruning alpha          =              1
    Radial Points          =             99
    Spherical Points       =           1202
    Total Points           =        1330655
    Total Blocks           =           8854
    Max Points             =            256
    Max Functions          =            168
    Weights Tolerance      =       1.00E-15

   => Loading Basis Set <=

    Name: (ANONYMOUS63720111 AUX)
    Role: JKFIT
    Keyword: DF_BASIS_SCF
    atoms 1-3       entry C          line   198 file /opt/psi/4/master/share/psi4/basis/def2-universal-jkfit.gbs 
    atoms 4-7, 9-12 entry H          line    18 file /opt/psi/4/master/share/psi4/basis/def2-universal-jkfit.gbs 
    atoms 8         entry O          line   318 file /opt/psi/4/master/share/psi4/basis/def2-universal-jkfit.gbs 

  ==> Integral Setup <==

  DFHelper Memory: AOs need 0.101 GiB; user supplied 4.610 GiB. Using in-core AOs.

  ==> MemDFJK: Density-Fitted J/K Matrices <==

    J tasked:                   Yes
    K tasked:                   Yes
    wK tasked:                   No
    OpenMP threads:               4
    Memory [MiB]:              4721
    Algorithm:                 Core
    Schwarz Cutoff:           1E-12
    Mask sparsity (%):       0.9637
    Fitting Condition:        1E-10

   => Auxiliary Basis Set <=

  Basis Set: (ANONYMOUS63720111 AUX)
    Blend: DEF2-UNIVERSAL-JKFIT
    Number of shells: 148
    Number of basis function: 446
    Number of Cartesian functions: 520
    Spherical Harmonics?: true
    Max angular momentum: 4

  Cached 100.0% of DFT collocation blocks in 5.168 [GiB].

  Minimum eigenvalue in the overlap matrix is 1.3899179857E-03.
  Reciprocal condition number of the overlap matrix is 2.3080157892E-04.
    Using symmetric orthogonalization.

  ==> Pre-Iterations <==

  SCF Guess: Superposition of Atomic Densities via on-the-fly atomic UHF (no occupation information).

   -------------------------
    Irrep   Nso     Nmo    
   -------------------------
     A        168     168 
   -------------------------
    Total     168     168
   -------------------------

  ==> Iterations <==

                           Total Energy        Delta E     RMS |[F,P]|

   @DF-RKS iter SAD:  -193.70415549364824   -1.93704e+02   0.00000e+00 
   @DF-RKS iter   1:  -194.02085397360327   -3.16698e-01   5.02869e-03 DIIS
   @DF-RKS iter   2:  -193.86288299635544    1.57971e-01   6.08171e-03 DIIS
   @DF-RKS iter   3:  -194.37049169304774   -5.07609e-01   5.91142e-04 DIIS
   @DF-RKS iter   4:  -194.37355295716117   -3.06126e-03   2.72462e-04 DIIS
   @DF-RKS iter   5:  -194.37440095825707   -8.48001e-04   5.17321e-05 DIIS
   @DF-RKS iter   6:  -194.37443014525235   -2.91870e-05   1.79051e-05 DIIS
   @DF-RKS iter   7:  -194.37443401480709   -3.86955e-06   2.77515e-06 DIIS
   @DF-RKS iter   8:  -194.37443412176620   -1.06959e-07   6.36957e-07 DIIS
   @DF-RKS iter   9:  -194.37443412809637   -6.33017e-09   4.00006e-08 DIIS
   @DF-RKS iter  10:  -194.37443412811746   -2.10889e-11   1.23566e-08 DIIS
   @DF-RKS iter  11:  -194.37443412811976   -2.30216e-12   2.08192e-09 DIIS
   @DF-RKS iter  12:  -194.37443412812021   -4.54747e-13   6.97456e-10 DIIS
   @DF-RKS iter  13:  -194.37443412811984    3.69482e-13   2.55067e-10 DIIS
   @DF-RKS iter  14:  -194.37443412812036   -5.11591e-13   2.46778e-11 DIIS
  Energy and wave function converged.


  ==> Post-Iterations <==

    Orbital Energies [Eh]
    ---------------------

    Doubly Occupied:                                                      

       1A    -19.132507     2A    -10.226697     3A    -10.168761  
       4A    -10.168715     5A     -1.010695     6A     -0.768031  
       7A     -0.688583     8A     -0.597348     9A     -0.475322  
      10A     -0.465194    11A     -0.423825    12A     -0.409139  
      13A     -0.388742    14A     -0.357305    15A     -0.353475  
      16A     -0.316497    17A     -0.264612  

    Virtual:                                                              

      18A      0.066328    19A      0.108025    20A      0.125079  
      21A      0.135727    22A      0.144767    23A      0.163181  
      24A      0.179818    25A      0.184412    26A      0.217756  
      27A      0.226014    28A      0.250914    29A      0.390961  
      30A      0.415508    31A      0.423665    32A      0.449814  
      33A      0.471627    34A      0.482181    35A      0.491349  
      36A      0.522654    37A      0.546569    38A      0.572413  
      39A      0.592585    40A      0.597502    41A      0.600881  
      42A      0.611378    43A      0.613451    44A      0.622271  
      45A      0.638201    46A      0.662337    47A      0.665651  
      48A      0.747031    49A      0.757716    50A      0.822370  
      51A      0.839865    52A      0.889980    53A      0.908813  
      54A      0.945310    55A      0.956514    56A      1.007243  
      57A      1.012968    58A      1.022329    59A      1.089807  
      60A      1.113691    61A      1.117088    62A      1.172898  
      63A      1.173706    64A      1.187690    65A      1.252064  
      66A      1.276190    67A      1.285069    68A      1.313719  
      69A      1.349034    70A      1.353520    71A      1.364250  
      72A      1.384158    73A      1.415689    74A      1.430256  
      75A      1.431040    76A      1.468846    77A      1.493344  
      78A      1.529405    79A      1.547667    80A      1.590256  
      81A      1.614138    82A      1.658282    83A      1.661629  
      84A      1.737967    85A      1.784972    86A      1.816341  
      87A      1.830943    88A      1.890405    89A      1.996158  
      90A      2.008958    91A      2.017192    92A      2.077686  
      93A      2.099256    94A      2.282445    95A      2.396802  
      96A      2.640261    97A      2.724005    98A      2.831009  
      99A      2.856772   100A      2.881672   101A      2.919381  
     102A      2.943631   103A      2.957314   104A      2.986349  
     105A      3.012342   106A      3.042540   107A      3.079733  
     108A      3.105042   109A      3.169916   110A      3.269243  
     111A      3.317840   112A      3.359772   113A      3.389159  
     114A      3.426297   115A      3.488007   116A      3.494616  
     117A      3.504518   118A      3.527939   119A      3.576419  
     120A      3.595485   121A      3.596570   122A      3.658957  
     123A      3.706968   124A      3.752467   125A      3.758094  
     126A      3.776624   127A      3.851415   128A      3.988258  
     129A      3.993451   130A      4.065039   131A      4.076577  
     132A      4.127934   133A      4.129226   134A      4.152403  
     135A      4.171119   136A      4.212329   137A      4.225501  
     138A      4.244955   139A      4.293009   140A      4.395509  
     141A      4.409998   142A      4.461757   143A      4.467628  
     144A      4.529429   145A      4.541242   146A      4.573877  
     147A      4.580983   148A      4.619668   149A      4.680222  
     150A      4.953356   151A      4.992195   152A      5.103961  
     153A      5.204926   154A      5.232551   155A      5.287670  
     156A      5.297677   157A      5.350068   158A      5.374888  
     159A      5.583401   160A      5.586110   161A      5.777269  
     162A      5.893733   163A      6.396554   164A      6.983726  
     165A      7.044570   166A      7.228808   167A      7.347405  
     168A      7.447257  

    Final Occupation by Irrep:
              A 
    DOCC [    17 ]

  @DF-RKS Final Energy:  -194.37443412812036

   => Energetics <=

    Nuclear Repulsion Energy =            134.6917602588279976
    One-Electron Energy =                -529.4706155036441260
    Two-Electron Energy =                 222.9913956847092606
    DFT Exchange-Correlation Energy =     -22.5869745680135239
    Empirical Dispersion Energy =           0.0000000000000000
    VV10 Nonlocal Energy =                  0.0000000000000000
    Total Energy =                       -194.3744341281203560

Computation Completed


Properties will be evaluated at   0.000000,   0.000000,   0.000000 [a0]

Properties computed using the SCF density matrix

  Nuclear Dipole Moment: [e a0]
     X:    -0.0008      Y:    -3.7958      Z:     0.8486

  Electronic Dipole Moment: [e a0]
     X:     0.0014      Y:     3.3119      Z:    -0.5154

  Dipole Moment: [e a0]
     X:     0.0006      Y:    -0.4838      Z:     0.3332     Total:     0.5875

  Dipole Moment: [D]
     X:     0.0015      Y:    -1.2298      Z:     0.8469     Total:     1.4932


*** tstop() called on n058 at Tue Nov  9 17:10:15 2021
Module time:
	user time   =     108.25 seconds =       1.80 minutes
	system time =       1.67 seconds =       0.03 minutes
	total time  =         28 seconds =       0.47 minutes
Total time:
	user time   =     108.25 seconds =       1.80 minutes
	system time =       1.67 seconds =       0.03 minutes
	total time  =         28 seconds =       0.47 minutes
Grab this energy -194.37443412812036
    Psi4 stopped on: Tuesday, 09 November 2021 05:10PM
    Psi4 wall time for execution: 0:00:28.22

*** Psi4 exiting successfully. Buy a developer a beer!
