
    -----------------------------------------------------------------------
          Psi4: An Open-Source Ab Initio Electronic Structure Package
                               Psi4 1.4a2.dev629 

                         Git: Rev {master} 2938fc2 dirty


    D. G. A. Smith, L. A. Burns, A. C. Simmonett, R. M. Parrish,
    M. C. Schieber, R. Galvelis, P. Kraus, H. Kruse, R. Di Remigio,
    A. Alenaizan, A. M. James, S. Lehtola, J. P. Misiewicz, M. Scheurer,
    R. A. Shaw, J. B. Schriber, Y. Xie, Z. L. Glick, D. A. Sirianni,
    J. S. O'Brien, J. M. Waldrop, A. Kumar, E. G. Hohenstein,
    B. P. Pritchard, B. R. Brooks, H. F. Schaefer III, A. Yu. Sokolov,
    K. Patkowski, A. E. DePrince III, U. Bozkaya, R. A. King,
    F. A. Evangelista, J. M. Turney, T. D. Crawford, C. D. Sherrill,
    J. Chem. Phys. 152(18) 184108 (2020). https://doi.org/10.1063/5.0006002

                            Additional Code Authors
    E. T. Seidl, C. L. Janssen, E. F. Valeev, M. L. Leininger,
    J. F. Gonthier, R. M. Richard, H. R. McAlexander, M. Saitow, X. Wang,
    P. Verma, and M. H. Lechner

             Previous Authors, Complete List of Code Contributors,
                       and Citations for Specific Modules
    https://github.com/psi4/psi4/blob/master/codemeta.json
    https://github.com/psi4/psi4/graphs/contributors
    http://psicode.org/psi4manual/master/introduction.html#citing-psifour

    -----------------------------------------------------------------------


    Psi4 started on: Tuesday, 09 November 2021 04:29PM

    Process ID: 15905
    Host:       n032
    PSIDATADIR: /opt/psi/4/master/share/psi4
    Memory:     500.0 MiB
    Threads:    4
    
  ==> Input File <==

--------------------------------------------------------------------------
import os
memory 14 GB 
 
molecule {
 C   -2.3872492081   -1.3740620520    0.1968853966
 C    0.0025182434   -0.0231669529   -0.6807752417
 C    2.3893858355   -1.3715601791    0.1981469317
 H   -4.0646566072   -0.3690874047   -0.4591832582
 H   -2.4451509413   -1.4805849159    2.2638648043
 H   -2.4486129640   -3.2992853319   -0.5409805607
 H   -0.0014907846    0.0756093726   -2.7431996720
 O   -0.0007212587    2.5601831845    0.1066252677
 H    0.0001630579    2.5595428986    1.9257605334
 H    4.0640954876   -0.3658902664   -0.4542309482
 H    2.4441215400   -3.3061751462   -0.5400876457
 H    2.4475956895   -1.4786437866    2.2581093729
units bohr
}

basis {

assign 6-31g_2dfp_

[ 6-31g_2dfp_ ]

spherical

!----------------------------------------------------------------------
! Basis Set Exchange
! Version v0.8.13
! https://www.basissetexchange.org
!----------------------------------------------------------------------
!   Basis set: 6-31G(2df,p)
! Description: 6-31G(2df,p)
!        Role: orbital
!     Version: 0  (Data from the original Basis Set Exchange)
!----------------------------------------------------------------------


****
H     0
S    3   1.00
     18.7311370              0.03349460
      2.8253937              0.23472695
      0.6401217              0.81375733
S    1   1.00
      0.1612778              1.00000000
P    1   1.00
      1.5000000              1.0000000
P    1   1.00
      0.3750000              1.0000000
****
B     0
S    6   1.00
   2068.8823000              0.0018663
    310.6495700              0.0142515
     70.6830330              0.0695516
     19.8610800              0.2325729
      6.2993048              0.4670787
      2.1270270              0.3634314
SP   3   1.00
      4.7279710             -0.1303938              0.0745976
      1.1903377             -0.1307889              0.3078467
      0.3594117              1.1309444              0.7434568
SP   1   1.00
      0.1267512              1.0000000              1.0000000
D    1   1.00
      0.8020000              1.0000000
D    1   1.00
      0.2005000              1.0000000
F    1   1.00
      0.5000000              1.0000000
****
C     0
S    6   1.00
   3047.5249000              0.0018347
    457.3695100              0.0140373
    103.9486900              0.0688426
     29.2101550              0.2321844
      9.2866630              0.4679413
      3.1639270              0.3623120
SP   3   1.00
      7.8682724             -0.1193324              0.0689991
      1.8812885             -0.1608542              0.3164240
      0.5442493              1.1434564              0.7443083
SP   1   1.00
      0.1687144              1.0000000              1.0000000
D    1   1.00
      1.2520000              1.0000000
D    1   1.00
      0.3130000              1.0000000
F    1   1.00
      0.8000000              1.0000000
****
N     0
S    6   1.00
   4173.5110000              0.0018348
    627.4579000              0.0139950
    142.9021000              0.0685870
     40.2343300              0.2322410
     12.8202100              0.4690700
      4.3904370              0.3604550
SP   3   1.00
     11.6263580             -0.1149610              0.0675800
      2.7162800             -0.1691180              0.3239070
      0.7722180              1.1458520              0.7408950
SP   1   1.00
      0.2120313              1.0000000              1.0000000
D    1   1.00
      1.8260000              1.0000000
D    1   1.00
      0.4565000              1.0000000
F    1   1.00
      1.0000000              1.0000000
****
O     0
S    6   1.00
   5484.6717000              0.0018311
    825.2349500              0.0139501
    188.0469600              0.0684451
     52.9645000              0.2327143
     16.8975700              0.4701930
      5.7996353              0.3585209
SP   3   1.00
     15.5396160             -0.1107775              0.0708743
      3.5999336             -0.1480263              0.3397528
      1.0137618              1.1307670              0.7271586
SP   1   1.00
      0.2700058              1.0000000              1.0000000
D    1   1.00
      2.5840000              1.0000000
D    1   1.00
      0.6460000              1.0000000
F    1   1.00
      1.4000000              1.0000000
****
F     0
S    6   1.00
   7001.7130900              0.0018196169
   1051.3660900              0.0139160796
    239.2856900              0.0684053245
     67.3974453              0.233185760
     21.5199573              0.471267439
      7.40310130             0.356618546
SP   3   1.00
     20.8479528             -0.108506975            0.0716287243
      4.80830834            -0.146451658            0.3459121030
      1.34406986             1.128688580            0.7224699570
SP   1   1.00
      0.358151393            1.0000000              1.0000000
D    1   1.00
      3.5000000              1.0000000
D    1   1.00
      0.8750000              1.0000000
F    1   1.00
      1.8500000              1.0000000
****
Al     0
S    6   1.00
  13983.1000000              0.00194267
   2098.7500000              0.0148599
    477.7050000              0.0728494
    134.3600000              0.2468300
     42.8709000              0.4872580
     14.5189000              0.3234960
SP   6   1.00
    239.6680000             -0.00292619             0.00460285
     57.4419000             -0.0374080              0.0331990
     18.2859000             -0.1144870              0.1362820
      6.5991400              0.1156350              0.3304760
      2.4904900              0.6125950              0.4491460
      0.9445400              0.3937990              0.2657040
SP   3   1.00
      1.2779000             -0.2276060             -0.0175130
      0.3975900              0.00144583             0.2445330
      0.1600950              1.0927900              0.8049340
SP   1   1.00
      0.0556577              1.0000000              1.0000000
D    1   1.00
      0.6500000              1.0000000
D    1   1.00
      0.1625000              1.0000000
F    1   1.00
      0.2500000              1.0000000
****
Si     0
S    6   1.00
  16115.9000000              0.00195948
   2425.5800000              0.01492880
    553.8670000              0.07284780
    156.3400000              0.24613000
     50.0683000              0.48591400
     17.0178000              0.32500200
SP   6   1.00
    292.7180000             -0.00278094             0.00443826
     69.8731000             -0.03571460             0.03266790
     22.3363000             -0.11498500             0.13472100
      8.1503900              0.09356340             0.32867800
      3.1345800              0.60301700             0.44964000
      1.2254300              0.41895900             0.26137200
SP   3   1.00
      1.7273800             -0.24463000            -0.01779510
      0.5729220              0.00431572             0.25353900
      0.2221920              1.09818000             0.80066900
SP   1   1.00
      0.0778369              1.00000000             1.00000000
D    1   1.00
      0.9000000              1.0000000
D    1   1.00
      0.2250000              1.0000000
F    1   1.00
      0.3200000              1.0000000
****
P     0
S    6   1.00
  19413.3000000              0.0018516
   2909.4200000              0.0142062
    661.3640000              0.0699995
    185.7590000              0.2400790
     59.1943000              0.4847620
     20.0310000              0.3352000
SP   6   1.00
    339.4780000             -0.00278217             0.00456462
     81.0101000             -0.0360499              0.03369360
     25.8780000             -0.1166310              0.13975500
      9.4522100              0.0968328              0.33936200
      3.6656600              0.6144180              0.45092100
      1.4674600              0.4037980              0.23858600
SP   3   1.00
      2.1562300             -0.2529230             -0.01776530
      0.7489970              0.0328517              0.27405800
      0.2831450              1.0812500              0.78542100
SP   1   1.00
      0.0998317              1.0000000              1.00000000
D    1   1.00
      1.1000000              1.0000000
D    1   1.00
      0.2750000              1.0000000
F    1   1.00
      0.4500000              1.0000000
****
S     0
S    6   1.00
  21917.1000000              0.0018690
   3301.4900000              0.0142300
    754.1460000              0.0696960
    212.7110000              0.2384870
     67.9896000              0.4833070
     23.0515000              0.3380740
SP   6   1.00
    423.7350000             -0.0023767              0.0040610
    100.7100000             -0.0316930              0.0306810
     32.1599000             -0.1133170              0.1304520
     11.8079000              0.0560900              0.3272050
      4.6311000              0.5922550              0.4528510
      1.8702500              0.4550060              0.2560420
SP   3   1.00
      2.6158400             -0.2503740             -0.0145110
      0.9221670              0.0669570              0.3102630
      0.3412870              1.0545100              0.7544830
SP   1   1.00
      0.1171670              1.0000000              1.0000000
D    1   1.00
      1.3000000              1.0000000
D    1   1.00
      0.3250000              1.0000000
F    1   1.00
      0.5500000              1.0000000
****
Cl     0
S    6   1.00
  25180.1000000              0.0018330
   3780.3500000              0.0140340
    860.4740000              0.0690970
    242.1450000              0.2374520
     77.3349000              0.4830340
     26.2470000              0.3398560
SP   6   1.00
    491.7650000             -0.0022974              0.0039894
    116.9840000             -0.0307140              0.0303180
     37.4153000             -0.1125280              0.1298800
     13.7834000              0.0450160              0.3279510
      5.4521500              0.5893530              0.4535270
      2.2258800              0.4652060              0.2521540
SP   3   1.00
      3.1864900             -0.2518300             -0.0142990
      1.1442700              0.0615890              0.3235720
      0.4203770              1.0601800              0.7435070
SP   1   1.00
      0.1426570              1.0000000              1.0000000
D    1   1.00
      1.5000000              1.0000000
D    1   1.00
      0.3750000              1.0000000
F    1   1.00
      0.7000000              1.0000000
****
}


set {
reference rhf                          
freeze_core true
e_convergence 10                       
d_convergence 10                      
dft_spherical_points 1202
dft_radial_points 99
}

e = energy('b3lyp')

print_out('Grab this energy {0}'.format(e))
--------------------------------------------------------------------------

  Memory set to  13.039 GiB by Python driver.

Scratch directory: /tmp/

*** tstart() called on n032
*** at Tue Nov  9 16:29:03 2021

   => Loading Basis Set <=

    Name: ANONYMOUS3EE2CCCD
    Role: ORBITAL
    Keyword: BASIS
    atoms 1-3       entry C          line    48 inputblock 6-31g_2dfp_ 
    atoms 4-7, 9-12 entry H          line    15 inputblock 6-31g_2dfp_ 
    atoms 8         entry O          line    90 inputblock 6-31g_2dfp_ 


         ---------------------------------------------------------
                                   SCF
               by Justin Turney, Rob Parrish, Andy Simmonett
                          and Daniel G. A. Smith
                              RKS Reference
                        4 Threads,  13351 MiB Core
         ---------------------------------------------------------

  ==> Geometry <==

    Molecular point group: c1
    Full point group: C1

    Geometry (in Bohr), charge = 0, multiplicity = 1:

       Center              X                  Y                   Z               Mass       
    ------------   -----------------  -----------------  -----------------  -----------------
         C           -2.387921158324    -1.374061245846     0.196885714045    12.000000000000
         C            0.001846293176    -0.023166146746    -0.680774924255    12.000000000000
         C            2.388713885276    -1.371559372946     0.198147249145    12.000000000000
         H           -4.065328557424    -0.369086598546    -0.459182940755     1.007825032230
         H           -2.445822891524    -1.480584109746     2.263865121745     1.007825032230
         H           -2.449284914224    -3.299284525746    -0.540980243255     1.007825032230
         H           -0.002162734824     0.075610178754    -2.743199354555     1.007825032230
         O           -0.001393208924     2.560183990654     0.106625585145    15.994914619570
         H           -0.000508892324     2.559543704754     1.925760850845     1.007825032230
         H            4.063423537376    -0.365889460246    -0.454230630755     1.007825032230
         H            2.443449589776    -3.306174340046    -0.540087328255     1.007825032230
         H            2.446923739276    -1.478642980446     2.258109690345     1.007825032230

  Running in c1 symmetry.

  Rotational constants: A =      0.28306  B =      0.26919  C =      0.15939 [cm^-1]
  Rotational constants: A =   8486.06456  B =   8070.01636  C =   4778.52960 [MHz]
  Nuclear repulsion =  134.691807872417343

  Charge       = 0
  Multiplicity = 1
  Electrons    = 34
  Nalpha       = 17
  Nbeta        = 17

  ==> Algorithm <==

  SCF Algorithm Type is DF.
  DIIS enabled.
  MOM disabled.
  Fractional occupation disabled.
  Guess Type is SAD.
  Energy threshold   = 1.00e-10
  Density threshold  = 1.00e-10
  Integral threshold = 0.00e+00

  ==> Primary Basis <==

  Basis Set: ANONYMOUS3EE2CCCD
    Blend: 6-31G_2DFP_
    Number of shells: 64
    Number of basis function: 168
    Number of Cartesian functions: 188
    Spherical Harmonics?: true
    Max angular momentum: 3

  ==> DFT Potential <==

   => Composite Functional: B3LYP <= 

    B3LYP Hyb-GGA Exchange-Correlation Functional

    P. J. Stephens, F. J. Devlin, C. F. Chabalowski, and M. J. Frisch, J. Phys. Chem. 98, 11623 (1994)

    Deriv               =              1
    GGA                 =           TRUE
    Meta                =          FALSE

    Exchange Hybrid     =           TRUE
    MP2 Hybrid          =          FALSE

   => Exchange Functionals <=

    0.0800   Slater exchange
    0.7200         Becke 88

   => Exact (HF) Exchange <=

    0.2000               HF 

   => Correlation Functionals <=

    0.1900   Vosko, Wilk & Nusair (VWN5_RPA)
    0.8100   Lee, Yang & Parr

   => Molecular Quadrature <=

    Radial Scheme          =       TREUTLER
    Pruning Scheme         =           NONE
    Nuclear Scheme         =       TREUTLER

    BS radius alpha        =              1
    Pruning alpha          =              1
    Radial Points          =             99
    Spherical Points       =           1202
    Total Points           =        1330659
    Total Blocks           =           8892
    Max Points             =            256
    Max Functions          =            168
    Weights Tolerance      =       1.00E-15

   => Loading Basis Set <=

    Name: (ANONYMOUS3EE2CCCD AUX)
    Role: JKFIT
    Keyword: DF_BASIS_SCF
    atoms 1-3       entry C          line   198 file /opt/psi/4/master/share/psi4/basis/def2-universal-jkfit.gbs 
    atoms 4-7, 9-12 entry H          line    18 file /opt/psi/4/master/share/psi4/basis/def2-universal-jkfit.gbs 
    atoms 8         entry O          line   318 file /opt/psi/4/master/share/psi4/basis/def2-universal-jkfit.gbs 

  ==> Integral Setup <==

  DFHelper Memory: AOs need 0.101 GiB; user supplied 4.611 GiB. Using in-core AOs.

  ==> MemDFJK: Density-Fitted J/K Matrices <==

    J tasked:                   Yes
    K tasked:                   Yes
    wK tasked:                   No
    OpenMP threads:               4
    Memory [MiB]:              4721
    Algorithm:                 Core
    Schwarz Cutoff:           1E-12
    Mask sparsity (%):       0.9637
    Fitting Condition:        1E-10

   => Auxiliary Basis Set <=

  Basis Set: (ANONYMOUS3EE2CCCD AUX)
    Blend: DEF2-UNIVERSAL-JKFIT
    Number of shells: 148
    Number of basis function: 446
    Number of Cartesian functions: 520
    Spherical Harmonics?: true
    Max angular momentum: 4

  Cached 100.0% of DFT collocation blocks in 5.168 [GiB].

  Minimum eigenvalue in the overlap matrix is 1.3899185445E-03.
  Reciprocal condition number of the overlap matrix is 2.3080179684E-04.
    Using symmetric orthogonalization.

  ==> Pre-Iterations <==

  SCF Guess: Superposition of Atomic Densities via on-the-fly atomic UHF (no occupation information).

   -------------------------
    Irrep   Nso     Nmo    
   -------------------------
     A        168     168 
   -------------------------
    Total     168     168
   -------------------------

  ==> Iterations <==

                           Total Energy        Delta E     RMS |[F,P]|

   @DF-RKS iter SAD:  -193.70415044546178   -1.93704e+02   0.00000e+00 
   @DF-RKS iter   1:  -194.02084300767029   -3.16693e-01   5.02872e-03 DIIS
   @DF-RKS iter   2:  -193.86287135197216    1.57972e-01   6.08173e-03 DIIS
   @DF-RKS iter   3:  -194.37048429003372   -5.07613e-01   5.91144e-04 DIIS
   @DF-RKS iter   4:  -194.37354554385925   -3.06125e-03   2.72467e-04 DIIS
   @DF-RKS iter   5:  -194.37439357633673   -8.48032e-04   5.17323e-05 DIIS
   @DF-RKS iter   6:  -194.37442276364308   -2.91873e-05   1.79050e-05 DIIS
   @DF-RKS iter   7:  -194.37442663314778   -3.86950e-06   2.77525e-06 DIIS
   @DF-RKS iter   8:  -194.37442674011282   -1.06965e-07   6.37051e-07 DIIS
   @DF-RKS iter   9:  -194.37442674644427   -6.33145e-09   4.02154e-08 DIIS
   @DF-RKS iter  10:  -194.37442674646570   -2.14300e-11   1.30425e-08 DIIS
   @DF-RKS iter  11:  -194.37442674646886   -3.15481e-12   2.97072e-09 DIIS
   @DF-RKS iter  12:  -194.37442674646849    3.69482e-13   1.35606e-09 DIIS
   @DF-RKS iter  13:  -194.37442674646849    0.00000e+00   1.97080e-10 DIIS
   @DF-RKS iter  14:  -194.37442674646857   -8.52651e-14   2.20422e-11 DIIS
  Energy and wave function converged.


  ==> Post-Iterations <==

    Orbital Energies [Eh]
    ---------------------

    Doubly Occupied:                                                      

       1A    -19.132507     2A    -10.226697     3A    -10.168755  
       4A    -10.168721     5A     -1.010695     6A     -0.768032  
       7A     -0.688584     8A     -0.597349     9A     -0.475324  
      10A     -0.465194    11A     -0.423826    12A     -0.409136  
      13A     -0.388746    14A     -0.357287    15A     -0.353491  
      16A     -0.316496    17A     -0.264612  

    Virtual:                                                              

      18A      0.066326    19A      0.108024    20A      0.125079  
      21A      0.135725    22A      0.144767    23A      0.163181  
      24A      0.179818    25A      0.184418    26A      0.217753  
      27A      0.226011    28A      0.250917    29A      0.390961  
      30A      0.415505    31A      0.423668    32A      0.449815  
      33A      0.471625    34A      0.482179    35A      0.491352  
      36A      0.522648    37A      0.546573    38A      0.572414  
      39A      0.592584    40A      0.597490    41A      0.600908  
      42A      0.611327    43A      0.613480    44A      0.622270  
      45A      0.638213    46A      0.662330    47A      0.665663  
      48A      0.747034    49A      0.757716    50A      0.822371  
      51A      0.839865    52A      0.889982    53A      0.908812  
      54A      0.945354    55A      0.956472    56A      1.007239  
      57A      1.012973    58A      1.022325    59A      1.089815  
      60A      1.113693    61A      1.117090    62A      1.172710  
      63A      1.173885    64A      1.187685    65A      1.252050  
      66A      1.276191    67A      1.285084    68A      1.313726  
      69A      1.348968    70A      1.353576    71A      1.364268  
      72A      1.384149    73A      1.415679    74A      1.430267  
      75A      1.431028    76A      1.468851    77A      1.493351  
      78A      1.529410    79A      1.547651    80A      1.590247  
      81A      1.614156    82A      1.658311    83A      1.661609  
      84A      1.737943    85A      1.784954    86A      1.816343  
      87A      1.830953    88A      1.890408    89A      1.996172  
      90A      2.008829    91A      2.017322    92A      2.077685  
      93A      2.099263    94A      2.282457    95A      2.396803  
      96A      2.640261    97A      2.724000    98A      2.831008  
      99A      2.856766   100A      2.881664   101A      2.919381  
     102A      2.943643   103A      2.957327   104A      2.986332  
     105A      3.012356   106A      3.042540   107A      3.079722  
     108A      3.105056   109A      3.169917   110A      3.269254  
     111A      3.317824   112A      3.359802   113A      3.389163  
     114A      3.426285   115A      3.488047   116A      3.494556  
     117A      3.504586   118A      3.527886   119A      3.576424  
     120A      3.595595   121A      3.596460   122A      3.658945  
     123A      3.707004   124A      3.752464   125A      3.758096  
     126A      3.776617   127A      3.851429   128A      3.988244  
     129A      3.993443   130A      4.064999   131A      4.076609  
     132A      4.127381   133A      4.129626   134A      4.152355  
     135A      4.171242   136A      4.212329   137A      4.225462  
     138A      4.245037   139A      4.293035   140A      4.395531  
     141A      4.410009   142A      4.461679   143A      4.467704  
     144A      4.529446   145A      4.541223   146A      4.573894  
     147A      4.580956   148A      4.619666   149A      4.680262  
     150A      4.953346   151A      4.992200   152A      5.103954  
     153A      5.204827   154A      5.232562   155A      5.287608  
     156A      5.297697   157A      5.350200   158A      5.374921  
     159A      5.583396   160A      5.586117   161A      5.777267  
     162A      5.893735   163A      6.396555   164A      6.983726  
     165A      7.044570   166A      7.228808   167A      7.347407  
     168A      7.447257  

    Final Occupation by Irrep:
              A 
    DOCC [    17 ]

  @DF-RKS Final Energy:  -194.37442674646857

   => Energetics <=

    Nuclear Repulsion Energy =            134.6918078724173427
    One-Electron Energy =                -529.4706890898934262
    Two-Electron Energy =                 222.9914322673209597
    DFT Exchange-Correlation Energy =     -22.5869777963134801
    Empirical Dispersion Energy =           0.0000000000000000
    VV10 Nonlocal Energy =                  0.0000000000000000
    Total Energy =                       -194.3744267464685720

Computation Completed


Properties will be evaluated at   0.000000,   0.000000,   0.000000 [a0]

Properties computed using the SCF density matrix

  Nuclear Dipole Moment: [e a0]
     X:    -0.0046      Y:    -3.7958      Z:     0.8486

  Electronic Dipole Moment: [e a0]
     X:     0.0061      Y:     3.3119      Z:    -0.5154

  Dipole Moment: [e a0]
     X:     0.0015      Y:    -0.4838      Z:     0.3332     Total:     0.5875

  Dipole Moment: [D]
     X:     0.0039      Y:    -1.2298      Z:     0.8469     Total:     1.4932


*** tstop() called on n032 at Tue Nov  9 16:29:38 2021
Module time:
	user time   =     134.75 seconds =       2.25 minutes
	system time =       1.25 seconds =       0.02 minutes
	total time  =         35 seconds =       0.58 minutes
Total time:
	user time   =     134.75 seconds =       2.25 minutes
	system time =       1.25 seconds =       0.02 minutes
	total time  =         35 seconds =       0.58 minutes
Grab this energy -194.37442674646857
    Psi4 stopped on: Tuesday, 09 November 2021 04:29PM
    Psi4 wall time for execution: 0:00:34.83

*** Psi4 exiting successfully. Buy a developer a beer!
