
 Primary working directories    : /tmp/943420.313.gen4.q
 Secondary working directories  : /tmp/943420.313.gen4.q
 Wavefunction directory         : /home/vulcan/mel64643/wfu/
 Main file repository           : /tmp/943420.313.gen4.q/

 ARCHNAME  : Linux/x86_64
 FC        : /opt/intel/compilers_and_libraries_2016.1.150/linux/bin/intel64/ifort
 FCVERSION : 16.0.1
 BLASLIB   : -mkl
 id        : ccgc

 Nodes     nprocs
 n056         1
 ga_uses_ma=false, calling ma_init with nominal heap.
 GA-space will be limited to   8.0 MW (determined by -G option)

 Using customized tuning parameters: mindgm=10; mindgv=16; mindgc=4; mindgr=1; noblas=0; mincuda=1000; minvec=7
 default implementation of scratch files=df  

 ***,Optimization of nh3_nitrosmethane
 memory,1000,m
 gthresh,energy=1.0d-12,orbital=1.0d-10,oneint=1.0d-16,twoint=1.0d-16,optgrad=1.0d-6,compress=1.0d-13
 geomtyp=xyz
 
 bohr
 geometry = {
  N   -5.2247348994   -0.1830049822    0.0008951293
  H   -6.3000345605    0.2289859840   -1.5335527373
  H   -3.7606685374    1.0604003959   -0.0022927240
  H   -6.2982733328    0.2347794064    1.5350097303
  H   -0.9184886636   -2.3924405134   -0.0039304862
  H    1.8827525995   -3.4345568241   -1.6637893500
  H    1.8854951164   -3.4436734584    1.6697142499
  C    1.1416945011   -2.4718319840   -0.0025426704
  N    2.2630369428    0.0999860730    0.0001681944
  O    0.6933393240    1.7784129117    0.0003206639
 }
 
 basis=aug-cc-pvdz, H=cc-pvdz
 {rhf;maxit,200}
 {ccsd(t);maxit,200}

 Variables initialized (661), CPU time= 0.00 sec
 Commands  initialized (458), CPU time= 0.00 sec, 486 directives.
 Default parameters read. Elapsed time= 0.04 sec

 Checking input...
 Passed
1


                                         ***  PROGRAM SYSTEM MOLPRO  ***
                         Copyright, University College Cardiff Consultants Limited, 2008

                                    Version 2010.1 linked May 16 2016 07:17:05


 **********************************************************************************************************************************
 LABEL *   Optimization of nh3_nitrosmethane                                             
 Linux-4.4.3/n056(x86_64) 64 bit mpp version                                             DATE: 26-Oct-23          TIME: 07:53:34  
 **********************************************************************************************************************************

 SHA1:             9e8077add272b0f3cad6f7df79ec5211205f459d
 **********************************************************************************************************************************

 THRESHOLDS:

 ZERO    =  1.00D-12  ONEINT  =  1.00D-16  TWOINT  =  1.00D-16  PREFAC  =  1.00D-14  LOCALI  =  1.00D-09  EORDER  =  1.00D-04
 ENERGY  =  1.00D-12  ETEST   =  0.00D+00  EDENS   =  0.00D+00  THRDEDEF=  1.00D-06  GRADIENT=  1.00D-02  STEP    =  1.00D-03
 ORBITAL =  1.00D-10  CIVEC   =  1.00D-05  COEFF   =  1.00D-04  PRINTCI =  5.00D-02  PUNCHCI =  9.90D+01  OPTGRAD =  1.00D-06
 OPTENERG=  1.00D-06  OPTSTEP =  3.00D-04  THRGRAD =  1.00D-10  COMPRESS=  1.00D-13  VARMIN  =  1.00D-07  VARMAX  =  1.00D-03
 THRDOUB =  0.00D+00  THRDIV  =  1.00D-05  THRRED  =  1.00D-07  THRPSP  =  1.00D+00  THRDC   =  1.00D-10  THRCS   =  1.00D-10
 THRNRM  =  1.00D-08  THREQ   =  0.00D+00  THRDE   =  1.00D+00  THRREF  =  1.00D-05  SPARFAC =  1.00D+00  THRDLP  =  1.00D-07
 THRDIA  =  1.00D-10  THRDLS  =  1.00D-07  THRGPS  =  0.00D+00  THRKEX  =  0.00D+00  THRDIS  =  2.00D-01  THRVAR  =  1.00D-10
 THRLOC  =  1.00D-06  THRGAP  =  1.00D-06  THRLOCT = -1.00D+00  THRGAPT = -1.00D+00  THRORB  =  1.00D-06  THRMLTP =  0.00D+00
 THRCPQCI=  1.00D-10  KEXTA   =  0.00D+00  THRCOARS=  0.00D+00  SYMTOL  =  1.00D-06  GRADTOL =  1.00D-06  THROVL  =  1.00D-08
 THRORTH =  1.00D-08  GRID    =  1.00D-06  GRIDMAX =  1.00D-03  DTMAX   =  0.00D+00

 SETTING GEOMTYP        =    XYZ
 ZUNIT=BOHR
 

 Variable memory set to 1000000000 words,  buffer space   230000 words

 SETTING BASIS          =    AUG-CC-PVDZ,H=CC-PVDZ


 Recomputing integrals since basis changed


 Using spherical harmonics

 Library entry N      S aug-cc-pVDZ          selected for orbital group  1
 Library entry N      P aug-cc-pVDZ          selected for orbital group  1
 Library entry N      D aug-cc-pVDZ          selected for orbital group  1
 Library entry H      S cc-pVDZ              selected for orbital group  2
 Library entry H      P cc-pVDZ              selected for orbital group  2
 Library entry C      S aug-cc-pVDZ          selected for orbital group  3
 Library entry C      P aug-cc-pVDZ          selected for orbital group  3
 Library entry C      D aug-cc-pVDZ          selected for orbital group  3
 Library entry O      S aug-cc-pVDZ          selected for orbital group  5
 Library entry O      P aug-cc-pVDZ          selected for orbital group  5
 Library entry O      D aug-cc-pVDZ          selected for orbital group  5

1PROGRAM * SEWARD (Integral evaluation for generally contracted gaussian basis sets)     Author: Roland Lindh, 1990

 Geometry written to block  1 of record 700


 Point group  C1  



 ATOMIC COORDINATES

 NR  ATOM    CHARGE       X              Y              Z

   1  N       7.00   -5.224734899   -0.183004982    0.000895129
   2  H       1.00   -6.300034561    0.228985984   -1.533552737
   3  H       1.00   -3.760668537    1.060400396   -0.002292724
   4  H       1.00   -6.298273333    0.234779406    1.535009730
   5  H       1.00   -0.918488664   -2.392440513   -0.003930486
   6  H       1.00    1.882752600   -3.434556824   -1.663789350
   7  H       1.00    1.885495116   -3.443673458    1.669714250
   8  C       6.00    1.141694501   -2.471831984   -0.002542670
   9  N       7.00    2.263036943    0.099986073    0.000168194
  10  O       8.00    0.693339324    1.778412912    0.000320664

 Bond lengths in Bohr (Angstrom)

 1-2  1.918472354  1-3  1.920822066  1-4  1.918472354  5-8  2.061712784  6-8  2.058092990
     ( 1.015211846)     ( 1.016455260)     ( 1.015211846)     ( 1.091011417)     ( 1.089095904)

  7- 8  2.072235125   8- 9  2.805648648   9-10  2.298057286
       ( 1.096579600)       ( 1.484685321)       ( 1.216079541)

 Bond angles

  2-1-3  106.67095379   2-1-4  106.21107417   3-1-4  106.67095379   5-8-6  112.16484658

  5-8-7  112.16484676   5-8-9  111.35091825   6-8-7  107.62329700   6-8-9  106.59824352

  7- 8- 9  106.59824360   8- 9-10  113.35946296

 NUCLEAR CHARGE:                   34
 NUMBER OF PRIMITIVE AOS:         190
 NUMBER OF SYMMETRY AOS:          182
 NUMBER OF CONTRACTIONS:          122   ( 122A   )
 NUMBER OF CORE ORBITALS:           4   (   4A   )
 NUMBER OF VALENCE ORBITALS:       22   (  22A   )


 NUCLEAR REPULSION ENERGY  117.40192030


 Eigenvalues of metric

         1 0.465E-03 0.142E-02 0.195E-02 0.431E-02 0.523E-02 0.749E-02 0.801E-02 0.856E-02


 Contracted 2-electron integrals neglected if value below      1.0D-16
 AO integral compression algorithm  1   Integral accuracy      1.0D-16

     232.522 MB (compressed) written to integral file ( 86.5%)

     Node minimum: 232.522 MB, node maximum: 232.522 MB


 NUMBER OF SORTED TWO-ELECTRON INTEGRALS:   28151256.     BUFFER LENGTH:  32768
 NUMBER OF SEGMENTS:   2  SEGMENT LENGTH:   15997996      RECORD LENGTH: 524288

 Memory used in sort:      16.56 MW

 SORT1 READ    33603370. AND WROTE    27856033. INTEGRALS IN     81 RECORDS. CPU TIME:     0.35 SEC, REAL TIME:     0.50 SEC
 SORT2 READ    27856033. AND WROTE    28151256. INTEGRALS IN    887 RECORDS. CPU TIME:     0.26 SEC, REAL TIME:     0.38 SEC

 FILE SIZES:   FILE 1:   200.2 MBYTE,  FILE 4:   339.8 MBYTE,   TOTAL:    539.9 MBYTE

 OPERATOR DM      FOR CENTER  0  COORDINATES:    0.000000    0.000000    0.000000


 **********************************************************************************************************************************
 DATASETS  * FILE   NREC   LENGTH (MB)   RECORD NAMES
              1      19      200.36       500      610      700      900      950      970     1000      129      960     1100   
                                          VAR    BASINP    GEOM    SYMINP    ZMAT    AOBASIS   BASIS     P2S    ABASIS      S 
                                         1400     1410     1200     1210     1080     1600     1650     1300     1700   
                                           T        V       H0       H01     AOSYM     SMH    MOLCAS    ERIS     OPER   

 PROGRAMS   *        TOTAL       INT
 CPU TIMES  *         2.16      2.13
 REAL TIME  *         2.73 SEC
 DISK USED  *       773.26 MB      
 GA USED    *         0.00 MB       (max)       0.00 MB       (current)
 **********************************************************************************************************************************

1PROGRAM * RHF-SCF (CLOSED SHELL)       Authors: W. Meyer, H.-J. Werner


 NUMBER OF ELECTRONS:      17+   17-    SPACE SYMMETRY=1    SPIN SYMMETRY: Singlet 
 CONVERGENCE THRESHOLDS:    1.00E-10 (Density)    1.00E-13 (Energy)
 MAX. NUMBER OF ITERATIONS:      200
 INTERPOLATION TYPE:            DIIS
 INTERPOLATION STEPS:              2 (START)      1 (STEP)
 LEVEL SHIFTS:                  0.00 (CLOSED)  0.00 (OPEN) 



 Orbital guess generated from atomic densities. Full valence occupancy:   26

 Molecular orbital dump at record        2100.2

 ITERATION    DDIFF          GRAD             ENERGY        2-EL.EN.            DIPOLE MOMENTS         DIIS
    1      0.000D+00      0.000D+00      -224.96505091    393.109576    0.07555   -0.57272    0.00131    0
    2      0.000D+00      0.709D-02      -225.02586282    392.743535   -0.57635   -0.37685   -0.00184    1
    3      0.132D-01      0.495D-02      -225.05964056    393.287527   -0.23099   -0.55444   -0.00208    2
    4      0.572D-02      0.994D-03      -225.06190877    393.121946   -0.30932   -0.45734   -0.00236    3
    5      0.147D-02      0.393D-03      -225.06233299    393.133943   -0.30690   -0.48682   -0.00255    4
    6      0.638D-03      0.951D-04      -225.06237522    393.161102   -0.31227   -0.48402   -0.00261    5
    7      0.217D-03      0.363D-04      -225.06238126    393.145048   -0.31389   -0.48413   -0.00261    6
    8      0.863D-04      0.148D-04      -225.06238226    393.151512   -0.31491   -0.48405   -0.00261    7
    9      0.331D-04      0.633D-05      -225.06238247    393.150348   -0.31518   -0.48375   -0.00261    8
   10      0.184D-04      0.193D-05      -225.06238249    393.150061   -0.31527   -0.48357   -0.00261    8
   11      0.562D-05      0.649D-06      -225.06238249    393.150166   -0.31528   -0.48348   -0.00261    8
   12      0.183D-05      0.198D-06      -225.06238249    393.150131   -0.31528   -0.48345   -0.00261    8
   13      0.686D-06      0.629D-07      -225.06238249    393.150125   -0.31529   -0.48345   -0.00261    8
   14      0.167D-06      0.330D-07      -225.06238249    393.150128   -0.31529   -0.48345   -0.00261    9
   15      0.825D-07      0.896D-08      -225.06238249    393.150128   -0.31529   -0.48345   -0.00261    8
   16      0.245D-07      0.671D-08      -225.06238249    393.150128   -0.31529   -0.48345   -0.00261    7
   17      0.444D-07      0.337D-08      -225.06238249    393.150128   -0.31529   -0.48345   -0.00261    8
   18      0.321D-07      0.106D-08      -225.06238249    393.150127   -0.31529   -0.48345   -0.00261    9
   19      0.747D-08      0.256D-09      -225.06238249    393.150128   -0.31529   -0.48345   -0.00261    9
   20      0.910D-09      0.827D-10      -225.06238249    393.150128   -0.31529   -0.48345   -0.00261    9
   21      0.229D-09      0.252D-10      -225.06238249    393.150128   -0.31529   -0.48345   -0.00261    9
   22      0.650D-10      0.751D-11      -225.06238249    393.150128   -0.31529   -0.48345   -0.00261    8
   23      0.199D-10      0.303D-11      -225.06238249    393.150128   -0.31529   -0.48345   -0.00261    9
   24      0.737D-11      0.133D-11      -225.06238249    393.150128   -0.31529   -0.48345   -0.00261    8
   25      0.291D-11      0.837D-12      -225.06238249    393.150128   -0.31529   -0.48345   -0.00261    8
   26      0.243D-11      0.295D-12      -225.06238249    393.150128   -0.31529   -0.48345   -0.00261    9
   27      0.148D-11      0.975D-13      -225.06238249    393.150128   -0.31529   -0.48345   -0.00261    9
   28      0.812D-12      0.532D-13      -225.06238249    393.150128   -0.31529   -0.48345   -0.00261    9
   29      0.718D-12      0.389D-13      -225.06238249    393.150128   -0.31529   -0.48345   -0.00261    9
   30      0.363D-12      0.434D-13      -225.06238249    393.150128   -0.31529   -0.48345   -0.00261    9
   31      0.240D-12      0.293D-13      -225.06238249    393.150128   -0.31529   -0.48345   -0.00261    9
   32      0.188D-12      0.336D-13      -225.06238249    393.150128   -0.31529   -0.48345   -0.00261    9
   33      0.200D-12      0.240D-13      -225.06238249    393.150128   -0.31529   -0.48345   -0.00261    9
   34      0.148D-12      0.373D-13      -225.06238249    393.150128   -0.31529   -0.48345   -0.00261    0

 Final occupancy:  17

 !RHF STATE 1.1 Energy               -225.062382494679
 Nuclear energy                       117.40192030
 One-electron energy                 -539.03936657
 Two-electron energy                  196.57506377
 Virial quotient                       -1.00219686
 !RHF STATE 1.1 Dipole moment          -0.31528593    -0.48344920    -0.00260822
 Dipole moment /Debye                  -0.80132442    -1.22872481    -0.00662901

 Orbital energies:

         1.1          2.1          3.1          4.1          5.1          6.1          7.1          8.1          9.1         10.1
    -20.640535   -15.714725   -15.548752   -11.271297    -1.515245    -1.139913    -1.076179    -0.862579    -0.691729    -0.675927

        11.1         12.1         13.1         14.1         15.1         16.1         17.1         18.1         19.1
     -0.636230    -0.623760    -0.623100    -0.555733    -0.534689    -0.428039    -0.406187     0.077472     0.084319


 **********************************************************************************************************************************
 DATASETS  * FILE   NREC   LENGTH (MB)   RECORD NAMES
              1      19      200.36       500      610      700      900      950      970     1000      129      960     1100   
                                          VAR    BASINP    GEOM    SYMINP    ZMAT    AOBASIS   BASIS     P2S    ABASIS      S 
                                         1400     1410     1200     1210     1080     1600     1650     1300     1700   
                                           T        V       H0       H01     AOSYM     SMH    MOLCAS    ERIS     OPER   

              2       3        0.72       700     1000     2100   
                                         GEOM     BASIS     RHF  

 PROGRAMS   *        TOTAL       RHF       INT
 CPU TIMES  *        10.08      7.92      2.13
 REAL TIME  *        11.46 SEC
 DISK USED  *       773.26 MB      
 GA USED    *         0.00 MB       (max)       0.00 MB       (current)
 **********************************************************************************************************************************


1PROGRAM * CCSD (Closed-shell coupled cluster)     Authors: C. Hampel, H.-J. Werner, 1991, M. Deegan, P.J. Knowles, 1992


 Convergence thresholds:  THRVAR = 1.00D-08  THRDEN = 1.00D-12

 CCSD(T)     terms to be evaluated (factor= 1.000)


 Number of core orbitals:           4 (   4 )
 Number of closed-shell orbitals:  13 (  13 )
 Number of external orbitals:     105 ( 105 )

 Molecular orbitals read from record     2100.2  Type=RHF/CANONICAL (state 1.1)

 Number of N-1 electron functions:              13
 Number of N-2 electron functions:              91
 Number of singly external CSFs:              1365
 Number of doubly external CSFs:            932295
 Total number of CSFs:                      933661

 Length of J-op  integral file:               0.00 MB
 Length of K-op  integral file:               1.06 MB
 Length of 3-ext integral record:             0.00 MB

 Memory could be reduced to 20.68 Mwords without degradation in triples

 Integral transformation finished. Total CPU:   1.27 sec, npass=  1  Memory used:  15.40 MW

 Reference energy:                   -225.06238249

 MP2 singlet pair energy:              -0.44859300
 MP2 triplet pair energy:              -0.26463069
 MP2 correlation energy:               -0.71322369
 MP2 total energy:                   -225.77560618

 SCS-MP2 correlation energy:           -0.70297069   (PS=  1.200000  PT=  0.333333)
 SCS-MP2 total energy:               -225.76535319

 ITER.      SQ.NORM     CORR.ENERGY   TOTAL ENERGY   ENERGY CHANGE        DEN1      VAR(S)    VAR(P)  DIIS     TIME
   1      1.24159314    -0.74721592  -225.80959842    -0.03399224    -0.01022589  0.52D-02  0.49D-02  1  1     3.90
   2      1.26337522    -0.75030392  -225.81268642    -0.00308800    -0.02111037  0.17D-03  0.87D-03  2  2     6.57
   3      1.27338173    -0.75100935  -225.81339185    -0.00070543    -0.00461175  0.12D-03  0.62D-04  3  3     9.24
   4      1.27753797    -0.75097488  -225.81335737     0.00003448    -0.00137367  0.11D-04  0.11D-04  4  4    11.91
   5      1.27919267    -0.75099294  -225.81337543    -0.00001806    -0.00036084  0.19D-05  0.17D-05  5  5    14.60
   6      1.27965322    -0.75096212  -225.81334462     0.00003081    -0.00005491  0.15D-06  0.33D-06  6  6    17.28
   7      1.27975406    -0.75095932  -225.81334182     0.00000280    -0.00000377  0.33D-07  0.87D-07  6  2    19.96
   8      1.27977789    -0.75096009  -225.81334258    -0.00000076    -0.00000033  0.44D-08  0.20D-07  6  1    22.63
   9      1.27977817    -0.75095947  -225.81334197     0.00000061     0.00000436  0.26D-08  0.32D-08  6  4    25.32
  10      1.27978050    -0.75096027  -225.81334276    -0.00000080    -0.00000122  0.53D-09  0.44D-09  6  3    28.01
  11      1.27977842    -0.75096048  -225.81334297    -0.00000021     0.00000043  0.17D-09  0.79D-10  6  5    30.70
  12      1.27977691    -0.75096055  -225.81334305    -0.00000007     0.00000032  0.40D-10  0.17D-10  6  6    33.38
  13      1.27977529    -0.75096067  -225.81334317    -0.00000012     0.00000040  0.61D-11  0.40D-11  6  1    36.06
  14      1.27977460    -0.75096068  -225.81334318    -0.00000001     0.00000018  0.17D-11  0.60D-12  6  2    38.74
  15      1.27977434    -0.75096069  -225.81334319    -0.00000001     0.00000005  0.53D-12  0.12D-12  6  4    41.41
  16      1.27977428    -0.75096070  -225.81334319    -0.00000000     0.00000001  0.30D-12  0.46D-13  6  3    44.10
  17      1.27977425    -0.75096069  -225.81334319     0.00000000    -0.00000000  0.18D-12  0.21D-13  6  6    46.79
  18      1.27977425    -0.75096070  -225.81334319    -0.00000000    -0.00000000  0.93D-13  0.11D-13  6  5    49.47
  19      1.27977426    -0.75096069  -225.81334319     0.00000000    -0.00000000  0.37D-13  0.65D-14  6  2    52.16
  20      1.27977426    -0.75096069  -225.81334319    -0.00000000     0.00000000  0.95D-14  0.25D-14  6  1    54.84
  21      1.27977426    -0.75096069  -225.81334319     0.00000000    -0.00000000  0.12D-14  0.77D-15  6  3    57.52
  22      1.27977426    -0.75096069  -225.81334319     0.00000000     0.00000000  0.17D-15  0.17D-15  6  4    60.20
  23      1.27977426    -0.75096069  -225.81334319    -0.00000000    -0.00000000  0.24D-16  0.33D-16  6  5    62.87
  24      1.27977426    -0.75096069  -225.81334319     0.00000000    -0.00000000  0.68D-17  0.98D-17  6  6    65.55
  25      1.27977426    -0.75096069  -225.81334319     0.00000000    -0.00000000  0.20D-17  0.32D-17  6  2    68.25
  26      1.27977426    -0.75096069  -225.81334319    -0.00000000     0.00000000  0.48D-18  0.11D-17  6  4    70.93
  27      1.27977426    -0.75096069  -225.81334319    -0.00000000     0.00000000  0.24D-18  0.15D-18  6  1    73.62
  28      1.27977426    -0.75096069  -225.81334319    -0.00000000     0.00000000  0.13D-18  0.32D-19  6  3    76.31

 Norm of t1 vector:      0.11116151      S-energy:    -0.00000000      T1 diagnostic:  0.01541533
                                                                       D1 diagnostic:  0.04946002

 Doubles amplitudes (print threshold =  0.500E-01):

         I         J         SYM. A    SYM. B    A         B      T(IJ, AB)

        11        11         1         1         2         2     -0.05791889


 Total CPU time for triples:     38.99 sec


 RESULTS
 =======

  Reference energy                   -225.062382494680
  CCSD singlet pair energy             -0.516894063058
  CCSD triplet pair energy             -0.234066631603
  CCSD correlation energy              -0.750960694663

  Triples (T) contribution             -0.026300540420
  Total correlation energy             -0.777261235083

  CCSD total energy                  -225.813343189343
  CCSD[T] energy                     -225.841252040900
  CCSD-T energy                      -225.839151890677
 !CCSD(T) total energy               -225.839643729763

 Timing summary (sec):

 STEP                 CPU(USER)    SYS     CPU(TOT)    WALL
 Transformation          1.32      0.13      1.45      1.44
 CCSD iterations        74.99      2.03     77.02     77.26
 Triples                38.99      0.73     39.72     39.74

 Program statistics:

 Available memory in ccsd:               999999224
 Min. memory needed in ccsd:               2510565
 Max. memory used in ccsd:                 3320127
 Max. memory used in cckext:               2903072 (28 integral passes)



 **********************************************************************************************************************************
 DATASETS  * FILE   NREC   LENGTH (MB)   RECORD NAMES
              1      20      277.76       500      610      700      900      950      970     1000      129      960     1100   
                                          VAR    BASINP    GEOM    SYMINP    ZMAT    AOBASIS   BASIS     P2S    ABASIS      S 
                                         1400     1410     1200     1210     1080     1600     1650     1300     1700     1380   
                                           T        V       H0       H01     AOSYM     SMH    MOLCAS    ERIS     OPER     JKOP   

              2       3        0.72       700     1000     2100   
                                         GEOM     BASIS     RHF  

 PROGRAMS   *        TOTAL   CCSD(T)       RHF       INT
 CPU TIMES  *       125.39    115.31      7.92      2.13
 REAL TIME  *       129.95 SEC
 DISK USED  *       773.26 MB      
 GA USED    *         0.00 MB       (max)       0.00 MB       (current)
 **********************************************************************************************************************************

        CCSD(T)         RHF-SCF 
   -225.83964373   -225.06238249
 **********************************************************************************************************************************
 Variable memory released
