
 Primary working directories    : /tmp/1049102.1637.gen4.q
 Secondary working directories  : /tmp/1049102.1637.gen4.q
 Wavefunction directory         : /home/vulcan/mel64643/wfu/
 Main file repository           : /tmp/1049102.1637.gen4.q/

 ARCHNAME  : Linux/x86_64
 FC        : /opt/intel/compilers_and_libraries_2016.1.150/linux/bin/intel64/ifort
 FCVERSION : 16.0.1
 BLASLIB   : -mkl
 id        : ccgc

 Nodes     nprocs
 n065         1
 ga_uses_ma=false, calling ma_init with nominal heap.
 GA-space will be limited to   8.0 MW (determined by -G option)

 Using customized tuning parameters: mindgm=10; mindgv=16; mindgc=4; mindgr=1; noblas=0; mincuda=1000; minvec=7
 default implementation of scratch files=df  

 ***,Optimization of h2o_3
 memory,1000,m
 gthresh,energy=1.0d-12,orbital=1.0d-10,oneint=1.0d-16,twoint=1.0d-16,optgrad=1.0d-6,compress=1.0d-13
 geomtyp=xyz
 
 
 
 bohr
 geometry = {
  C    0.9147903677    1.4063430162   -2.2727313775
  C    0.7423987286    2.7111478776    0.0184408348
  C    1.0001763797    1.4080684293    2.3027300793
  C    1.4287474106   -1.1998654691    2.2958492376
  C    1.6018671796   -2.5041800452    0.0047186432
  C    1.3441484797   -1.2008769819   -2.2793665789
  H    0.7058943582    2.4153381528   -4.0427351941
  H    0.3947353904    4.7292611683    0.0238272542
  H    0.8613196480    2.4188715331    4.0788025568
  H    1.6259102445   -2.2099024826    4.0670195891
  H    1.9320184070   -4.5257112871   -0.0006491162
  H    1.4759119908   -2.2122833954   -4.0559221614
  N   -5.4421068149   -0.3623635908   -0.0687852173
  H   -5.5808841114   -1.5652752044   -1.5570857495
  H   -6.0601726662   -1.3357976487    1.4646948966
  H   -3.5638231255   -0.0645636702    0.2012699803
 }
 
 basis=aug-cc-pvdz, H=cc-pvdz
 {rhf;maxit,200}
 {ccsd(t)}

 Variables initialized (661), CPU time= 0.00 sec
 Commands  initialized (458), CPU time= 0.01 sec, 486 directives.
 Default parameters read. Elapsed time= 0.05 sec

 Checking input...
 Passed
1


                                         ***  PROGRAM SYSTEM MOLPRO  ***
                         Copyright, University College Cardiff Consultants Limited, 2008

                                    Version 2010.1 linked May 16 2016 07:17:05


 **********************************************************************************************************************************
 LABEL *   Optimization of h2o_3                                                         
 Linux-4.4.3/n065(x86_64) 64 bit mpp version                                             DATE: 21-Mar-24          TIME: 12:37:52  
 **********************************************************************************************************************************

 SHA1:             9e8077add272b0f3cad6f7df79ec5211205f459d
 **********************************************************************************************************************************

 THRESHOLDS:

 ZERO    =  1.00D-12  ONEINT  =  1.00D-16  TWOINT  =  1.00D-16  PREFAC  =  1.00D-14  LOCALI  =  1.00D-09  EORDER  =  1.00D-04
 ENERGY  =  1.00D-12  ETEST   =  0.00D+00  EDENS   =  0.00D+00  THRDEDEF=  1.00D-06  GRADIENT=  1.00D-02  STEP    =  1.00D-03
 ORBITAL =  1.00D-10  CIVEC   =  1.00D-05  COEFF   =  1.00D-04  PRINTCI =  5.00D-02  PUNCHCI =  9.90D+01  OPTGRAD =  1.00D-06
 OPTENERG=  1.00D-06  OPTSTEP =  3.00D-04  THRGRAD =  1.00D-10  COMPRESS=  1.00D-13  VARMIN  =  1.00D-07  VARMAX  =  1.00D-03
 THRDOUB =  0.00D+00  THRDIV  =  1.00D-05  THRRED  =  1.00D-07  THRPSP  =  1.00D+00  THRDC   =  1.00D-10  THRCS   =  1.00D-10
 THRNRM  =  1.00D-08  THREQ   =  0.00D+00  THRDE   =  1.00D+00  THRREF  =  1.00D-05  SPARFAC =  1.00D+00  THRDLP  =  1.00D-07
 THRDIA  =  1.00D-10  THRDLS  =  1.00D-07  THRGPS  =  0.00D+00  THRKEX  =  0.00D+00  THRDIS  =  2.00D-01  THRVAR  =  1.00D-10
 THRLOC  =  1.00D-06  THRGAP  =  1.00D-06  THRLOCT = -1.00D+00  THRGAPT = -1.00D+00  THRORB  =  1.00D-06  THRMLTP =  0.00D+00
 THRCPQCI=  1.00D-10  KEXTA   =  0.00D+00  THRCOARS=  0.00D+00  SYMTOL  =  1.00D-06  GRADTOL =  1.00D-06  THROVL  =  1.00D-08
 THRORTH =  1.00D-08  GRID    =  1.00D-06  GRIDMAX =  1.00D-03  DTMAX   =  0.00D+00

 SETTING GEOMTYP        =    XYZ
 ZUNIT=BOHR
 

 Variable memory set to 1000000000 words,  buffer space   230000 words

 SETTING BASIS          =    AUG-CC-PVDZ,H=CC-PVDZ


 Recomputing integrals since basis changed


 Using spherical harmonics

 Library entry C      S aug-cc-pVDZ          selected for orbital group  1
 Library entry C      P aug-cc-pVDZ          selected for orbital group  1
 Library entry C      D aug-cc-pVDZ          selected for orbital group  1
 Library entry H      S cc-pVDZ              selected for orbital group  2
 Library entry H      P cc-pVDZ              selected for orbital group  2
 Library entry N      S aug-cc-pVDZ          selected for orbital group  3
 Library entry N      P aug-cc-pVDZ          selected for orbital group  3
 Library entry N      D aug-cc-pVDZ          selected for orbital group  3

1PROGRAM * SEWARD (Integral evaluation for generally contracted gaussian basis sets)     Author: Roland Lindh, 1990

 Geometry written to block  1 of record 700


 Point group  C1  



 ATOMIC COORDINATES

 NR  ATOM    CHARGE       X              Y              Z

   1  C       6.00    0.914790368    1.406343016   -2.272731377
   2  C       6.00    0.742398729    2.711147878    0.018440835
   3  C       6.00    1.000176380    1.408068429    2.302730079
   4  C       6.00    1.428747411   -1.199865469    2.295849238
   5  C       6.00    1.601867180   -2.504180045    0.004718643
   6  C       6.00    1.344148480   -1.200876982   -2.279366579
   7  H       1.00    0.705894358    2.415338153   -4.042735194
   8  H       1.00    0.394735390    4.729261168    0.023827254
   9  H       1.00    0.861319648    2.418871533    4.078802557
  10  H       1.00    1.625910244   -2.209902483    4.067019589
  11  H       1.00    1.932018407   -4.525711287   -0.000649116
  12  H       1.00    1.475911991   -2.212283395   -4.055922161
  13  N       7.00   -5.442106815   -0.362363591   -0.068785217
  14  H       1.00   -5.580884111   -1.565275204   -1.557085749
  15  H       1.00   -6.060172666   -1.335797649    1.464694897
  16  H       1.00   -3.563823125   -0.064563670    0.201269980

 Bond lengths in Bohr (Angstrom)

 1-2  2.642291564  1-6  2.642345271  1-7  2.048077694  2-3  2.642431214  2-8  2.047847666
     ( 1.398240475)     ( 1.398268896)     ( 1.083796038)     ( 1.398314375)     ( 1.083674313)

  3- 4  2.642922567   3- 9  2.048276727   4- 5  2.642061008   4-10  2.048436566   5- 6  2.642359382
       ( 1.398574387)       ( 1.083901362)       ( 1.398118470)       ( 1.083985945)       ( 1.398276363)

  5-11  2.048320582   6-12  2.048524907  13-14  1.918669842  13-15  1.918629855  13-16  1.920823839
       ( 1.083924569)       ( 1.084032693)       ( 1.015316352)       ( 1.015295192)       ( 1.016456198)

 Bond angles

  1- 2- 3  119.98067237   1- 2- 8  120.00017354   1- 6- 5  120.02353233   1- 6-12  119.98613467

  2-1-6  120.00199144   2-1-7  119.96358302   2-3-4  120.01167872   2-3-9  119.97429909

  3- 2- 8  120.01747709   3- 4- 5  120.00136334   3- 4-10  119.99378355   4- 3- 9  120.01369047

  4- 5- 6  119.98073386   4- 5-11  120.00333305   5- 4-10  120.00484840   5- 6-12  119.99031846

  6- 1- 7  120.03368563   6- 5-11  120.01581909  14-13-15  106.17607466  14-13-16  106.08043079

 15-13-16  106.33745771

 NUCLEAR CHARGE:                   52
 NUMBER OF PRIMITIVE AOS:         322
 NUMBER OF SYMMETRY AOS:          308
 NUMBER OF CONTRACTIONS:          206   ( 206A   )
 NUMBER OF CORE ORBITALS:           7   (   7A   )
 NUMBER OF VALENCE ORBITALS:       37   (  37A   )


 NUCLEAR REPULSION ENERGY  273.72960020


 Eigenvalues of metric

         1 0.861E-05 0.184E-04 0.228E-04 0.532E-04 0.643E-04 0.644E-04 0.107E-03 0.107E-03


 Contracted 2-electron integrals neglected if value below      1.0D-16
 AO integral compression algorithm  1   Integral accuracy      1.0D-16

     1892.942 MB (compressed) written to integral file ( 94.5%)

     Node minimum: 1892.942 MB, node maximum: 1892.942 MB


 NUMBER OF SORTED TWO-ELECTRON INTEGRALS:  227303181.     BUFFER LENGTH:  32768
 NUMBER OF SEGMENTS:  15  SEGMENT LENGTH:   15999503      RECORD LENGTH: 524288

 Memory used in sort:      16.56 MW

 SORT1 READ   250230697. AND WROTE   226412754. INTEGRALS IN    654 RECORDS. CPU TIME:     2.50 SEC, REAL TIME:     4.29 SEC
 SORT2 READ   226412754. AND WROTE   227303181. INTEGRALS IN   7221 RECORDS. CPU TIME:     1.47 SEC, REAL TIME:     2.45 SEC

 FILE SIZES:   FILE 1:  1743.6 MBYTE,  FILE 4:  2743.1 MBYTE,   TOTAL:   4486.7 MBYTE

 OPERATOR DM      FOR CENTER  0  COORDINATES:    0.000000    0.000000    0.000000


 **********************************************************************************************************************************
 DATASETS  * FILE   NREC   LENGTH (MB)   RECORD NAMES
              1      19     1744.09       500      610      700      900      950      970     1000      129      960     1100   
                                          VAR    BASINP    GEOM    SYMINP    ZMAT    AOBASIS   BASIS     P2S    ABASIS      S 
                                         1400     1410     1200     1210     1080     1600     1650     1300     1700   
                                           T        V       H0       H01     AOSYM     SMH    MOLCAS    ERIS     OPER   

 PROGRAMS   *        TOTAL       INT
 CPU TIMES  *        14.78     14.74
 REAL TIME  *        18.60 SEC
 DISK USED  *         6.38 GB      
 GA USED    *         0.01 MB       (max)       0.00 MB       (current)
 **********************************************************************************************************************************

1PROGRAM * RHF-SCF (CLOSED SHELL)       Authors: W. Meyer, H.-J. Werner


 NUMBER OF ELECTRONS:      26+   26-    SPACE SYMMETRY=1    SPIN SYMMETRY: Singlet 
 CONVERGENCE THRESHOLDS:    1.00E-10 (Density)    1.00E-13 (Energy)
 MAX. NUMBER OF ITERATIONS:      200
 INTERPOLATION TYPE:            DIIS
 INTERPOLATION STEPS:              2 (START)      1 (STEP)
 LEVEL SHIFTS:                  0.00 (CLOSED)  0.00 (OPEN) 



 Orbital guess generated from atomic densities. Full valence occupancy:   44

 Molecular orbital dump at record        2100.2

 ITERATION    DDIFF          GRAD             ENERGY        2-EL.EN.            DIPOLE MOMENTS         DIIS
    1      0.000D+00      0.000D+00      -286.85325184    740.915441    0.52617   -0.76494    0.13109    0
    2      0.000D+00      0.322D-02      -286.92080641    735.129348    0.44023   -0.38355    0.05985    1
    3      0.826D-02      0.133D-02      -286.93013051    737.759379    0.45699   -0.52129    0.08893    2
    4      0.218D-02      0.381D-03      -286.93134813    737.239793    0.45565   -0.49477    0.08137    3
    5      0.783D-03      0.525D-04      -286.93137190    737.228572    0.46146   -0.50477    0.08526    4
    6      0.135D-03      0.176D-04      -286.93137432    737.243481    0.46033   -0.49931    0.08321    5
    7      0.510D-04      0.553D-05      -286.93137459    737.240364    0.46099   -0.50152    0.08395    6
    8      0.148D-04      0.129D-05      -286.93137461    737.239369    0.46114   -0.50116    0.08381    7
    9      0.416D-05      0.541D-06      -286.93137461    737.239826    0.46117   -0.50125    0.08384    7
   10      0.147D-05      0.143D-06      -286.93137461    737.239774    0.46118   -0.50126    0.08384    7
   11      0.513D-06      0.406D-07      -286.93137461    737.239760    0.46119   -0.50125    0.08384    7
   12      0.140D-06      0.171D-07      -286.93137461    737.239774    0.46119   -0.50126    0.08384    8
   13      0.597D-07      0.742D-08      -286.93137461    737.239768    0.46119   -0.50126    0.08384    8
   14      0.325D-07      0.355D-08      -286.93137461    737.239771    0.46119   -0.50126    0.08384    8
   15      0.197D-07      0.137D-08      -286.93137461    737.239770    0.46119   -0.50126    0.08384    8
   16      0.711D-08      0.453D-09      -286.93137461    737.239770    0.46119   -0.50126    0.08384    9
   17      0.215D-08      0.124D-09      -286.93137461    737.239770    0.46119   -0.50126    0.08384    9
   18      0.393D-09      0.380D-10      -286.93137461    737.239770    0.46119   -0.50126    0.08384    8
   19      0.231D-09      0.156D-10      -286.93137461    737.239770    0.46119   -0.50126    0.08384    9
   20      0.137D-09      0.834D-11      -286.93137461    737.239770    0.46119   -0.50126    0.08384    9
   21      0.128D-09      0.404D-11      -286.93137461    737.239770    0.46119   -0.50126    0.08384    9
   22      0.135D-09      0.134D-11      -286.93137461    737.239770    0.46119   -0.50126    0.08384    9
   23      0.214D-09      0.678D-12      -286.93137461    737.239770    0.46119   -0.50126    0.08384    9
   24      0.713D-10      0.524D-12      -286.93137461    737.239770    0.46119   -0.50126    0.08384    9
   25      0.476D-10      0.497D-12      -286.93137461    737.239770    0.46119   -0.50126    0.08384    9
   26      0.254D-10      0.539D-12      -286.93137461    737.239770    0.46119   -0.50126    0.08384    9
   27      0.225D-10      0.517D-12      -286.93137461    737.239770    0.46119   -0.50126    0.08384    9
   28      0.182D-10      0.529D-12      -286.93137461    737.239770    0.46119   -0.50126    0.08384    9
   29      0.243D-10      0.559D-12      -286.93137461    737.239770    0.46119   -0.50126    0.08384    9
   30      0.198D-10      0.426D-12      -286.93137461    737.239770    0.46119   -0.50126    0.08384    9
   31      0.198D-10      0.479D-12      -286.93137461    737.239770    0.46119   -0.50126    0.08384    9
   32      0.124D-10      0.503D-12      -286.93137461    737.239770    0.46119   -0.50126    0.08384    0

 Final occupancy:  26

 !RHF STATE 1.1 Energy               -286.931374613278
 Nuclear energy                       273.72960020
 One-electron energy                 -929.28085975
 Two-electron energy                  368.61988494
 Virial quotient                       -1.00146527
 !RHF STATE 1.1 Dipole moment           0.46118809    -0.50125598     0.08384023
 Dipole moment /Debye                   1.17214643    -1.27398218     0.21308664

 Orbital energies:

         1.1          2.1          3.1          4.1          5.1          6.1          7.1          8.1          9.1         10.1
    -15.534966   -11.250671   -11.250069   -11.249725   -11.248845   -11.248711   -11.247887    -1.157550    -1.125525    -1.022101

        11.1         12.1         13.1         14.1         15.1         16.1         17.1         18.1         19.1         20.1
     -1.022000    -0.830684    -0.830587    -0.714550    -0.650502    -0.623969    -0.611647    -0.609785    -0.593624    -0.593504

        21.1         22.1         23.1         24.1         25.1         26.1         27.1         28.1
     -0.504972    -0.500147    -0.500074    -0.413386    -0.343018    -0.342047     0.063872     0.066400


 **********************************************************************************************************************************
 DATASETS  * FILE   NREC   LENGTH (MB)   RECORD NAMES
              1      19     1744.09       500      610      700      900      950      970     1000      129      960     1100   
                                          VAR    BASINP    GEOM    SYMINP    ZMAT    AOBASIS   BASIS     P2S    ABASIS      S 
                                         1400     1410     1200     1210     1080     1600     1650     1300     1700   
                                           T        V       H0       H01     AOSYM     SMH    MOLCAS    ERIS     OPER   

              2       3        1.40       700     1000     2100   
                                         GEOM     BASIS     RHF  

 PROGRAMS   *        TOTAL       RHF       INT
 CPU TIMES  *        70.46     55.67     14.74
 REAL TIME  *        80.31 SEC
 DISK USED  *         6.38 GB      
 GA USED    *         0.01 MB       (max)       0.00 MB       (current)
 **********************************************************************************************************************************


1PROGRAM * CCSD (Closed-shell coupled cluster)     Authors: C. Hampel, H.-J. Werner, 1991, M. Deegan, P.J. Knowles, 1992


 Convergence thresholds:  THRVAR = 1.00D-08  THRDEN = 1.00D-12

 CCSD(T)     terms to be evaluated (factor= 1.000)


 Number of core orbitals:           7 (   7 )
 Number of closed-shell orbitals:  19 (  19 )
 Number of external orbitals:     180 ( 180 )

 Molecular orbitals read from record     2100.2  Type=RHF/CANONICAL (state 1.1)

 Number of N-1 electron functions:              19
 Number of N-2 electron functions:             190
 Number of singly external CSFs:              3420
 Number of doubly external CSFs:           5849910
 Total number of CSFs:                     5853331

 Length of J-op  integral file:               0.00 MB
 Length of K-op  integral file:               2.96 MB
 Length of 3-ext integral record:             0.00 MB

 Memory could be reduced to 140.12 Mwords without degradation in triples

 Integral transformation finished. Total CPU:  13.96 sec, npass=  1  Memory used: 101.90 MW

 Reference energy:                   -286.93137461

 MP2 singlet pair energy:              -0.62063194
 MP2 triplet pair energy:              -0.38983650
 MP2 correlation energy:               -1.01046844
 MP2 total energy:                   -287.94184305

 SCS-MP2 correlation energy:           -0.98732326   (PS=  1.200000  PT=  0.333333)
 SCS-MP2 total energy:               -287.91869787

 ITER.      SQ.NORM     CORR.ENERGY   TOTAL ENERGY   ENERGY CHANGE        DEN1      VAR(S)    VAR(P)  DIIS     TIME
   1      1.38488182    -1.05476035  -287.98613497    -0.04429191    -0.01721321  0.36D-02  0.80D-02  1  1    50.85
   2      1.41439442    -1.06062292  -287.99199753    -0.00586256    -0.02705297  0.63D-04  0.10D-02  2  2    88.27
   3      1.42352529    -1.06071862  -287.99209323    -0.00009570    -0.00464340  0.27D-04  0.84D-04  3  3   125.69
   4      1.42746244    -1.06088734  -287.99226195    -0.00016872    -0.00121412  0.22D-05  0.11D-04  4  4   163.09
   5      1.42867594    -1.06091829  -287.99229290    -0.00003095    -0.00027319  0.27D-06  0.13D-05  5  5   200.56
   6      1.42897847    -1.06090805  -287.99228267     0.00001024    -0.00004348  0.23D-07  0.79D-07  6  6   238.02
   7      1.42901921    -1.06090968  -287.99228430    -0.00000163    -0.00000103  0.35D-08  0.82D-08  6  2   275.49
   8      1.42902839    -1.06090954  -287.99228416     0.00000014    -0.00000117  0.75D-09  0.76D-09  6  1   312.95
   9      1.42902822    -1.06090968  -287.99228429    -0.00000014     0.00000123  0.21D-09  0.92D-10  6  4   350.43
  10      1.42902941    -1.06090969  -287.99228430    -0.00000001    -0.00000018  0.57D-10  0.15D-10  6  3   387.93
  11      1.42902936    -1.06090971  -287.99228432    -0.00000002     0.00000013  0.14D-10  0.36D-11  6  5   425.44
  12      1.42902932    -1.06090971  -287.99228432    -0.00000000     0.00000003  0.15D-11  0.10D-11  6  6   462.94
  13      1.42902914    -1.06090971  -287.99228433    -0.00000000     0.00000006  0.70D-13  0.20D-12  6  2   500.42
  14      1.42902904    -1.06090971  -287.99228433    -0.00000000     0.00000002  0.81D-14  0.40D-13  6  1   537.91
  15      1.42902898    -1.06090971  -287.99228433    -0.00000000     0.00000001  0.89D-15  0.53D-14  6  3   575.42
  16      1.42902896    -1.06090971  -287.99228433    -0.00000000     0.00000000  0.12D-15  0.37D-15  6  4   612.93
  17      1.42902896    -1.06090971  -287.99228433    -0.00000000     0.00000000  0.31D-16  0.44D-16  6  5   650.43
  18      1.42902896    -1.06090971  -287.99228433    -0.00000000     0.00000000  0.81D-17  0.70D-17  6  6   687.92
  19      1.42902896    -1.06090971  -287.99228433    -0.00000000     0.00000000  0.24D-17  0.76D-18  6  2   725.40
  20      1.42902895    -1.06090971  -287.99228433    -0.00000000     0.00000000  0.76D-18  0.18D-18  6  1   762.88
  21      1.42902895    -1.06090971  -287.99228433    -0.00000000     0.00000000  0.29D-18  0.77D-19  6  3   800.36
  22      1.42902895    -1.06090971  -287.99228433    -0.00000000     0.00000000  0.11D-18  0.35D-19  6  4   837.84
  23      1.42902895    -1.06090971  -287.99228433    -0.00000000     0.00000000  0.54D-19  0.21D-19  6  6   875.33

 Norm of t1 vector:      0.08385665      S-energy:    -0.00000000      T1 diagnostic:  0.00961902
                                                                       D1 diagnostic:  0.02619516

 Doubles amplitudes (print threshold =  0.500E-01):

         I         J         SYM. A    SYM. B    A         B      T(IJ, AB)

        18        18         1         1         6         6     -0.05163454
        19        19         1         1         7         7     -0.05478886


 Total CPU time for triples:    733.43 sec


 RESULTS
 =======

  Reference energy                   -286.931374613278
  CCSD singlet pair energy             -0.711155416612
  CCSD triplet pair energy             -0.349754296756
  CCSD correlation energy              -1.060909713368

  Triples (T) contribution             -0.045603343690
  Total correlation energy             -1.106513057058

  CCSD total energy                  -287.992284326646
  CCSD[T] energy                     -288.038757892754
  CCSD-T energy                      -288.037499118529
 !CCSD(T) total energy               -288.037887670336

 Timing summary (sec):

 STEP                 CPU(USER)    SYS     CPU(TOT)    WALL
 Transformation         14.37      0.86     15.23     15.22
 CCSD iterations       860.98     12.29    873.27    873.45
 Triples               733.43     11.56    744.99    745.04

 Program statistics:

 Available memory in ccsd:               999998456
 Min. memory needed in ccsd:              14392275
 Max. memory used in ccsd:                19775697
 Max. memory used in cckext:              16737545 (23 integral passes)



 **********************************************************************************************************************************
 DATASETS  * FILE   NREC   LENGTH (MB)   RECORD NAMES
              1      20     2287.70       500      610      700      900      950      970     1000      129      960     1100   
                                          VAR    BASINP    GEOM    SYMINP    ZMAT    AOBASIS   BASIS     P2S    ABASIS      S 
                                         1400     1410     1200     1210     1080     1600     1650     1300     1700     1380   
                                           T        V       H0       H01     AOSYM     SMH    MOLCAS    ERIS     OPER     JKOP   

              2       3        1.40       700     1000     2100   
                                         GEOM     BASIS     RHF  

 PROGRAMS   *        TOTAL   CCSD(T)       RHF       INT
 CPU TIMES  *      1679.26   1608.79     55.67     14.74
 REAL TIME  *      1714.13 SEC
 DISK USED  *         6.38 GB      
 GA USED    *         0.01 MB       (max)       0.00 MB       (current)
 **********************************************************************************************************************************

        CCSD(T)         RHF-SCF 
   -288.03788767   -286.93137461
 **********************************************************************************************************************************
 Variable memory released
