
 Primary working directories    : /tmp/1049102.1000.gen4.q
 Secondary working directories  : /tmp/1049102.1000.gen4.q
 Wavefunction directory         : /home/vulcan/mel64643/wfu/
 Main file repository           : /tmp/1049102.1000.gen4.q/

 ARCHNAME  : Linux/x86_64
 FC        : /opt/intel/compilers_and_libraries_2016.1.150/linux/bin/intel64/ifort
 FCVERSION : 16.0.1
 BLASLIB   : -mkl
 id        : ccgc

 Nodes     nprocs
 n061         1
 ga_uses_ma=false, calling ma_init with nominal heap.
 GA-space will be limited to   8.0 MW (determined by -G option)

 Using customized tuning parameters: mindgm=10; mindgv=16; mindgc=4; mindgr=1; noblas=0; mincuda=1000; minvec=7
 default implementation of scratch files=df  

 ***,Optimization of h2o_3
 memory,1000,m
 gthresh,energy=1.0d-12,orbital=1.0d-10,oneint=1.0d-16,twoint=1.0d-16,optgrad=1.0d-6,compress=1.0d-13
 geomtyp=xyz
 
 
 
 bohr
 geometry = {
  C    0.9159246188    1.4041275944   -2.2700709480
  C    0.7390375078    2.7124197709    0.0187687671
  C    0.9982558110    1.4043511642    2.3000414625
  C    1.4313262001   -1.2028475498    2.2978974300
  C    1.6073105587   -2.5014352926    0.0037340206
  C    1.3495875742   -1.2023574053   -2.2827564367
  H    0.7064701718    2.4134056401   -4.0398474594
  H    0.3879682113    4.7299419586    0.0246539418
  H    0.8565508681    2.4142808722    4.0763858114
  H    1.6290537733   -2.2131860779    4.0688328415
  H    1.9408789150   -4.5224040699   -0.0021448097
  H    1.4842059410   -2.2129008821   -4.0595890317
  N   -5.4433585695   -0.3570091651   -0.0670752817
  H   -5.5957455755   -1.5714102591   -1.5538456872
  H   -6.0644320526   -1.3130817762    1.4672812259
  H   -3.5621020865   -0.0736841203    0.1978118306
 }
 
 basis=aug-cc-pvdz, H=cc-pvdz
 {rhf;maxit,200}
 {ccsd(t)}

 Variables initialized (661), CPU time= 0.01 sec
 Commands  initialized (458), CPU time= 0.00 sec, 486 directives.
 Default parameters read. Elapsed time= 0.04 sec

 Checking input...
 Passed
1


                                         ***  PROGRAM SYSTEM MOLPRO  ***
                         Copyright, University College Cardiff Consultants Limited, 2008

                                    Version 2010.1 linked May 16 2016 07:17:05


 **********************************************************************************************************************************
 LABEL *   Optimization of h2o_3                                                         
 Linux-4.4.3/n061(x86_64) 64 bit mpp version                                             DATE: 20-Mar-24          TIME: 07:14:21  
 **********************************************************************************************************************************

 SHA1:             9e8077add272b0f3cad6f7df79ec5211205f459d
 **********************************************************************************************************************************

 THRESHOLDS:

 ZERO    =  1.00D-12  ONEINT  =  1.00D-16  TWOINT  =  1.00D-16  PREFAC  =  1.00D-14  LOCALI  =  1.00D-09  EORDER  =  1.00D-04
 ENERGY  =  1.00D-12  ETEST   =  0.00D+00  EDENS   =  0.00D+00  THRDEDEF=  1.00D-06  GRADIENT=  1.00D-02  STEP    =  1.00D-03
 ORBITAL =  1.00D-10  CIVEC   =  1.00D-05  COEFF   =  1.00D-04  PRINTCI =  5.00D-02  PUNCHCI =  9.90D+01  OPTGRAD =  1.00D-06
 OPTENERG=  1.00D-06  OPTSTEP =  3.00D-04  THRGRAD =  1.00D-10  COMPRESS=  1.00D-13  VARMIN  =  1.00D-07  VARMAX  =  1.00D-03
 THRDOUB =  0.00D+00  THRDIV  =  1.00D-05  THRRED  =  1.00D-07  THRPSP  =  1.00D+00  THRDC   =  1.00D-10  THRCS   =  1.00D-10
 THRNRM  =  1.00D-08  THREQ   =  0.00D+00  THRDE   =  1.00D+00  THRREF  =  1.00D-05  SPARFAC =  1.00D+00  THRDLP  =  1.00D-07
 THRDIA  =  1.00D-10  THRDLS  =  1.00D-07  THRGPS  =  0.00D+00  THRKEX  =  0.00D+00  THRDIS  =  2.00D-01  THRVAR  =  1.00D-10
 THRLOC  =  1.00D-06  THRGAP  =  1.00D-06  THRLOCT = -1.00D+00  THRGAPT = -1.00D+00  THRORB  =  1.00D-06  THRMLTP =  0.00D+00
 THRCPQCI=  1.00D-10  KEXTA   =  0.00D+00  THRCOARS=  0.00D+00  SYMTOL  =  1.00D-06  GRADTOL =  1.00D-06  THROVL  =  1.00D-08
 THRORTH =  1.00D-08  GRID    =  1.00D-06  GRIDMAX =  1.00D-03  DTMAX   =  0.00D+00

 SETTING GEOMTYP        =    XYZ
 ZUNIT=BOHR
 

 Variable memory set to 1000000000 words,  buffer space   230000 words

 SETTING BASIS          =    AUG-CC-PVDZ,H=CC-PVDZ


 Recomputing integrals since basis changed


 Using spherical harmonics

 Library entry C      S aug-cc-pVDZ          selected for orbital group  1
 Library entry C      P aug-cc-pVDZ          selected for orbital group  1
 Library entry C      D aug-cc-pVDZ          selected for orbital group  1
 Library entry H      S cc-pVDZ              selected for orbital group  2
 Library entry H      P cc-pVDZ              selected for orbital group  2
 Library entry N      S aug-cc-pVDZ          selected for orbital group  3
 Library entry N      P aug-cc-pVDZ          selected for orbital group  3
 Library entry N      D aug-cc-pVDZ          selected for orbital group  3

1PROGRAM * SEWARD (Integral evaluation for generally contracted gaussian basis sets)     Author: Roland Lindh, 1990

 Geometry written to block  1 of record 700


 Point group  C1  



 ATOMIC COORDINATES

 NR  ATOM    CHARGE       X              Y              Z

   1  C       6.00    0.915924619    1.404127594   -2.270070948
   2  C       6.00    0.739037508    2.712419771    0.018768767
   3  C       6.00    0.998255811    1.404351164    2.300041462
   4  C       6.00    1.431326200   -1.202847550    2.297897430
   5  C       6.00    1.607310559   -2.501435293    0.003734021
   6  C       6.00    1.349587574   -1.202357405   -2.282756437
   7  H       1.00    0.706470172    2.413405640   -4.039847459
   8  H       1.00    0.387968211    4.729941959    0.024653942
   9  H       1.00    0.856550868    2.414280872    4.076385811
  10  H       1.00    1.629053773   -2.213186078    4.068832841
  11  H       1.00    1.940878915   -4.522404070   -0.002144810
  12  H       1.00    1.484205941   -2.212900882   -4.059589032
  13  N       7.00   -5.443358569   -0.357009165   -0.067075282
  14  H       1.00   -5.595745575   -1.571410259   -1.553845687
  15  H       1.00   -6.064432053   -1.313081776    1.467281226
  16  H       1.00   -3.562102086   -0.073684120    0.197811831

 Bond lengths in Bohr (Angstrom)

 1-2  2.642291564  1-6  2.642345272  1-7  2.048077694  2-3  2.642431214  2-8  2.047847666
     ( 1.398240475)     ( 1.398268896)     ( 1.083796038)     ( 1.398314375)     ( 1.083674312)

  3- 4  2.642922567   3- 9  2.048276727   4- 5  2.642061008   4-10  2.048436566   5- 6  2.642359382
       ( 1.398574387)       ( 1.083901362)       ( 1.398118470)       ( 1.083985945)       ( 1.398276363)

  5-11  2.048320582   6-12  2.048524907  13-14  1.925740911  13-15  1.911558788  13-16  1.920823838
       ( 1.083924569)       ( 1.084032693)       ( 1.019058200)       ( 1.011553344)       ( 1.016456198)

 Bond angles

  1- 2- 3  119.74677736   1- 2- 8  120.11711708   1- 6- 5  119.78961390   1- 6-12  120.10309385

  2-1-6  120.23590054   2-1-7  119.84663022   2-3-4  120.24559727   2-3-9  119.85734059

  3- 2- 8  120.13442064   3- 4- 5  119.76745363   3- 4-10  120.11073839   4- 3- 9  119.89673197

  4- 5- 6  120.21462937   4- 5-11  119.88638556   5- 4-10  120.12180324   5- 6-12  120.10727764

  6- 1- 7  119.91673283   6- 5-11  119.89887160  14-13-15  106.17607583  14-13-16  106.08043224

 15-13-16  106.33745550

 NUCLEAR CHARGE:                   52
 NUMBER OF PRIMITIVE AOS:         322
 NUMBER OF SYMMETRY AOS:          308
 NUMBER OF CONTRACTIONS:          206   ( 206A   )
 NUMBER OF CORE ORBITALS:           7   (   7A   )
 NUMBER OF VALENCE ORBITALS:       37   (  37A   )


 NUCLEAR REPULSION ENERGY  273.70782405


 Eigenvalues of metric

         1 0.861E-05 0.184E-04 0.228E-04 0.533E-04 0.643E-04 0.644E-04 0.107E-03 0.107E-03


 Contracted 2-electron integrals neglected if value below      1.0D-16
 AO integral compression algorithm  1   Integral accuracy      1.0D-16

     1891.893 MB (compressed) written to integral file ( 94.5%)

     Node minimum: 1891.893 MB, node maximum: 1891.893 MB


 NUMBER OF SORTED TWO-ELECTRON INTEGRALS:  227303181.     BUFFER LENGTH:  32768
 NUMBER OF SEGMENTS:  15  SEGMENT LENGTH:   15999503      RECORD LENGTH: 524288

 Memory used in sort:      16.56 MW

 SORT1 READ   250230373. AND WROTE   226407813. INTEGRALS IN    654 RECORDS. CPU TIME:     2.39 SEC, REAL TIME:     4.45 SEC
 SORT2 READ   226407813. AND WROTE   227303181. INTEGRALS IN   7217 RECORDS. CPU TIME:     1.46 SEC, REAL TIME:     2.32 SEC

 FILE SIZES:   FILE 1:  1742.9 MBYTE,  FILE 4:  2743.1 MBYTE,   TOTAL:   4486.0 MBYTE

 OPERATOR DM      FOR CENTER  0  COORDINATES:    0.000000    0.000000    0.000000


 **********************************************************************************************************************************
 DATASETS  * FILE   NREC   LENGTH (MB)   RECORD NAMES
              1      19     1743.44       500      610      700      900      950      970     1000      129      960     1100   
                                          VAR    BASINP    GEOM    SYMINP    ZMAT    AOBASIS   BASIS     P2S    ABASIS      S 
                                         1400     1410     1200     1210     1080     1600     1650     1300     1700   
                                           T        V       H0       H01     AOSYM     SMH    MOLCAS    ERIS     OPER   

 PROGRAMS   *        TOTAL       INT
 CPU TIMES  *        14.66     14.61
 REAL TIME  *        18.62 SEC
 DISK USED  *         6.38 GB      
 GA USED    *         0.01 MB       (max)       0.00 MB       (current)
 **********************************************************************************************************************************

1PROGRAM * RHF-SCF (CLOSED SHELL)       Authors: W. Meyer, H.-J. Werner


 NUMBER OF ELECTRONS:      26+   26-    SPACE SYMMETRY=1    SPIN SYMMETRY: Singlet 
 CONVERGENCE THRESHOLDS:    1.00E-10 (Density)    1.00E-13 (Energy)
 MAX. NUMBER OF ITERATIONS:      200
 INTERPOLATION TYPE:            DIIS
 INTERPOLATION STEPS:              2 (START)      1 (STEP)
 LEVEL SHIFTS:                  0.00 (CLOSED)  0.00 (OPEN) 



 Orbital guess generated from atomic densities. Full valence occupancy:   44

 Molecular orbital dump at record        2100.2

 ITERATION    DDIFF          GRAD             ENERGY        2-EL.EN.            DIPOLE MOMENTS         DIIS
    1      0.000D+00      0.000D+00      -286.85320867    740.877004    0.52053   -0.76849    0.12947    0
    2      0.000D+00      0.322D-02      -286.92076715    735.087726    0.43540   -0.38434    0.06188    1
    3      0.827D-02      0.133D-02      -286.93009499    737.719137    0.45198   -0.52299    0.09029    2
    4      0.218D-02      0.381D-03      -286.93131296    737.199523    0.45048   -0.49618    0.08329    3
    5      0.786D-03      0.526D-04      -286.93133675    737.188289    0.45629   -0.50630    0.08713    4
    6      0.135D-03      0.176D-04      -286.93133918    737.203196    0.45514   -0.50079    0.08514    5
    7      0.510D-04      0.553D-05      -286.93133946    737.200106    0.45579   -0.50301    0.08587    6
    8      0.149D-04      0.129D-05      -286.93133947    737.199105    0.45594   -0.50265    0.08574    7
    9      0.417D-05      0.544D-06      -286.93133948    737.199564    0.45597   -0.50274    0.08577    7
   10      0.149D-05      0.147D-06      -286.93133948    737.199512    0.45598   -0.50275    0.08577    7
   11      0.538D-06      0.450D-07      -286.93133948    737.199498    0.45599   -0.50275    0.08577    7
   12      0.163D-06      0.200D-07      -286.93133948    737.199512    0.45598   -0.50275    0.08577    8
   13      0.773D-07      0.935D-08      -286.93133948    737.199506    0.45598   -0.50275    0.08577    8
   14      0.468D-07      0.417D-08      -286.93133948    737.199509    0.45598   -0.50275    0.08577    8
   15      0.241D-07      0.147D-08      -286.93133948    737.199508    0.45598   -0.50275    0.08577    8
   16      0.714D-08      0.473D-09      -286.93133948    737.199508    0.45598   -0.50275    0.08577    9
   17      0.205D-08      0.124D-09      -286.93133948    737.199508    0.45598   -0.50275    0.08577    9
   18      0.445D-09      0.393D-10      -286.93133948    737.199508    0.45598   -0.50275    0.08577    8
   19      0.218D-09      0.160D-10      -286.93133948    737.199508    0.45598   -0.50275    0.08577    9
   20      0.163D-09      0.856D-11      -286.93133948    737.199508    0.45598   -0.50275    0.08577    9
   21      0.138D-09      0.419D-11      -286.93133948    737.199508    0.45598   -0.50275    0.08577    9
   22      0.146D-09      0.128D-11      -286.93133948    737.199508    0.45598   -0.50275    0.08577    9
   23      0.141D-09      0.780D-12      -286.93133948    737.199508    0.45598   -0.50275    0.08577    9
   24      0.123D-09      0.680D-12      -286.93133948    737.199508    0.45598   -0.50275    0.08577    9
   25      0.791D-10      0.724D-12      -286.93133948    737.199508    0.45598   -0.50275    0.08577    0

 Final occupancy:  26

 !RHF STATE 1.1 Energy               -286.931339478361
 Nuclear energy                       273.70782405
 One-electron energy                 -929.23891749
 Two-electron energy                  368.59975396
 Virial quotient                       -1.00146480
 !RHF STATE 1.1 Dipole moment           0.45598328    -0.50274809     0.08576919
 Dipole moment /Debye                   1.15891798    -1.27777449     0.21798925

 Orbital energies:

         1.1          2.1          3.1          4.1          5.1          6.1          7.1          8.1          9.1         10.1
    -15.535003   -11.250630   -11.250018   -11.249681   -11.248803   -11.248664   -11.247827    -1.157504    -1.125570    -1.022055

        11.1         12.1         13.1         14.1         15.1         16.1         17.1         18.1         19.1         20.1
     -1.021951    -0.830634    -0.830537    -0.714505    -0.650451    -0.623918    -0.612341    -0.609154    -0.593592    -0.593456

        21.1         22.1         23.1         24.1         25.1         26.1         27.1         28.1
     -0.504909    -0.500084    -0.500019    -0.413435    -0.342974    -0.341990     0.063889     0.066416


 **********************************************************************************************************************************
 DATASETS  * FILE   NREC   LENGTH (MB)   RECORD NAMES
              1      19     1743.44       500      610      700      900      950      970     1000      129      960     1100   
                                          VAR    BASINP    GEOM    SYMINP    ZMAT    AOBASIS   BASIS     P2S    ABASIS      S 
                                         1400     1410     1200     1210     1080     1600     1650     1300     1700   
                                           T        V       H0       H01     AOSYM     SMH    MOLCAS    ERIS     OPER   

              2       3        1.40       700     1000     2100   
                                         GEOM     BASIS     RHF  

 PROGRAMS   *        TOTAL       RHF       INT
 CPU TIMES  *        58.47     43.81     14.61
 REAL TIME  *        67.31 SEC
 DISK USED  *         6.38 GB      
 GA USED    *         0.01 MB       (max)       0.00 MB       (current)
 **********************************************************************************************************************************


1PROGRAM * CCSD (Closed-shell coupled cluster)     Authors: C. Hampel, H.-J. Werner, 1991, M. Deegan, P.J. Knowles, 1992


 Convergence thresholds:  THRVAR = 1.00D-08  THRDEN = 1.00D-12

 CCSD(T)     terms to be evaluated (factor= 1.000)


 Number of core orbitals:           7 (   7 )
 Number of closed-shell orbitals:  19 (  19 )
 Number of external orbitals:     180 ( 180 )

 Molecular orbitals read from record     2100.2  Type=RHF/CANONICAL (state 1.1)

 Number of N-1 electron functions:              19
 Number of N-2 electron functions:             190
 Number of singly external CSFs:              3420
 Number of doubly external CSFs:           5849910
 Total number of CSFs:                     5853331

 Length of J-op  integral file:               0.00 MB
 Length of K-op  integral file:               2.96 MB
 Length of 3-ext integral record:             0.00 MB

 Memory could be reduced to 140.12 Mwords without degradation in triples

 Integral transformation finished. Total CPU:  13.91 sec, npass=  1  Memory used: 101.90 MW

 Reference energy:                   -286.93133948

 MP2 singlet pair energy:              -0.62063230
 MP2 triplet pair energy:              -0.38983355
 MP2 correlation energy:               -1.01046586
 MP2 total energy:                   -287.94180534

 SCS-MP2 correlation energy:           -0.98732186   (PS=  1.200000  PT=  0.333333)
 SCS-MP2 total energy:               -287.91866134

 ITER.      SQ.NORM     CORR.ENERGY   TOTAL ENERGY   ENERGY CHANGE        DEN1      VAR(S)    VAR(P)  DIIS     TIME
   1      1.38488276    -1.05475843  -287.98609791    -0.04429258    -0.01721384  0.36D-02  0.80D-02  1  1    50.85
   2      1.41439665    -1.06062120  -287.99196067    -0.00586276    -0.02705375  0.63D-04  0.10D-02  2  2    88.24
   3      1.42352762    -1.06071685  -287.99205633    -0.00009565    -0.00464311  0.27D-04  0.84D-04  3  3   125.65
   4      1.42746427    -1.06088562  -287.99222510    -0.00016877    -0.00121379  0.22D-05  0.11D-04  4  4   163.09
   5      1.42867771    -1.06091658  -287.99225606    -0.00003096    -0.00027315  0.27D-06  0.13D-05  5  5   200.53
   6      1.42898059    -1.06090634  -287.99224582     0.00001024    -0.00004356  0.23D-07  0.79D-07  6  6   237.99
   7      1.42902141    -1.06090797  -287.99224745    -0.00000163    -0.00000106  0.35D-08  0.82D-08  6  2   275.47
   8      1.42903061    -1.06090783  -287.99224730     0.00000014    -0.00000118  0.76D-09  0.76D-09  6  1   312.95
   9      1.42903044    -1.06090796  -287.99224744    -0.00000013     0.00000123  0.21D-09  0.92D-10  6  4   350.40
  10      1.42903164    -1.06090797  -287.99224745    -0.00000001    -0.00000018  0.57D-10  0.15D-10  6  3   387.88
  11      1.42903159    -1.06090799  -287.99224747    -0.00000002     0.00000013  0.14D-10  0.37D-11  6  5   425.36
  12      1.42903154    -1.06090799  -287.99224747    -0.00000000     0.00000003  0.15D-11  0.10D-11  6  6   462.84
  13      1.42903137    -1.06090799  -287.99224747    -0.00000000     0.00000006  0.69D-13  0.20D-12  6  2   500.33
  14      1.42903127    -1.06090800  -287.99224747    -0.00000000     0.00000003  0.81D-14  0.40D-13  6  1   537.79
  15      1.42903121    -1.06090800  -287.99224747    -0.00000000     0.00000001  0.90D-15  0.54D-14  6  3   575.26
  16      1.42903119    -1.06090800  -287.99224747    -0.00000000     0.00000000  0.12D-15  0.37D-15  6  4   612.75
  17      1.42903118    -1.06090800  -287.99224747    -0.00000000     0.00000000  0.32D-16  0.44D-16  6  5   650.21
  18      1.42903118    -1.06090800  -287.99224747    -0.00000000     0.00000000  0.83D-17  0.70D-17  6  6   687.66
  19      1.42903118    -1.06090800  -287.99224747    -0.00000000     0.00000000  0.24D-17  0.77D-18  6  2   725.11
  20      1.42903118    -1.06090800  -287.99224747    -0.00000000     0.00000000  0.76D-18  0.18D-18  6  1   762.56
  21      1.42903118    -1.06090800  -287.99224747    -0.00000000     0.00000000  0.29D-18  0.76D-19  6  3   800.05
  22      1.42903118    -1.06090800  -287.99224747    -0.00000000     0.00000000  0.12D-18  0.36D-19  6  4   837.55
  23      1.42903118    -1.06090800  -287.99224747    -0.00000000     0.00000000  0.50D-19  0.20D-19  6  6   875.01

 Norm of t1 vector:      0.08385902      S-energy:    -0.00000000      T1 diagnostic:  0.00961929
                                                                       D1 diagnostic:  0.02619848

 Doubles amplitudes (print threshold =  0.500E-01):

         I         J         SYM. A    SYM. B    A         B      T(IJ, AB)

        18        18         1         1         6         6     -0.05098868
        19        19         1         1         7         7     -0.05444472


 Total CPU time for triples:    733.63 sec


 RESULTS
 =======

  Reference energy                   -286.931339478361
  CCSD singlet pair energy             -0.711156808663
  CCSD triplet pair energy             -0.349751187394
  CCSD correlation energy              -1.060907996058

  Triples (T) contribution             -0.045602883023
  Total correlation energy             -1.106510879081

  CCSD total energy                  -287.992247474420
  CCSD[T] energy                     -288.038720583488
  CCSD-T energy                      -288.037461812326
 !CCSD(T) total energy               -288.037850357442

 Timing summary (sec):

 STEP                 CPU(USER)    SYS     CPU(TOT)    WALL
 Transformation         14.32      0.86     15.18     15.18
 CCSD iterations       860.72     12.33    873.05    873.33
 Triples               733.63     11.39    745.02    745.10

 Program statistics:

 Available memory in ccsd:               999998456
 Min. memory needed in ccsd:              14392275
 Max. memory used in ccsd:                19775697
 Max. memory used in cckext:              16737545 (23 integral passes)



 **********************************************************************************************************************************
 DATASETS  * FILE   NREC   LENGTH (MB)   RECORD NAMES
              1      20     2287.05       500      610      700      900      950      970     1000      129      960     1100   
                                          VAR    BASINP    GEOM    SYMINP    ZMAT    AOBASIS   BASIS     P2S    ABASIS      S 
                                         1400     1410     1200     1210     1080     1600     1650     1300     1700     1380   
                                           T        V       H0       H01     AOSYM     SMH    MOLCAS    ERIS     OPER     JKOP   

              2       3        1.40       700     1000     2100   
                                         GEOM     BASIS     RHF  

 PROGRAMS   *        TOTAL   CCSD(T)       RHF       INT
 CPU TIMES  *      1667.16   1608.68     43.81     14.61
 REAL TIME  *      1701.04 SEC
 DISK USED  *         6.38 GB      
 GA USED    *         0.01 MB       (max)       0.00 MB       (current)
 **********************************************************************************************************************************

        CCSD(T)         RHF-SCF 
   -288.03785036   -286.93133948
 **********************************************************************************************************************************
 Variable memory released
