
 Primary working directories    : /tmp/985636.74.gen4.q
 Secondary working directories  : /tmp/985636.74.gen4.q
 Wavefunction directory         : /home/vulcan/jj04645/wfu/
 Main file repository           : /tmp/985636.74.gen4.q/

 ARCHNAME  : Linux/x86_64
 FC        : /opt/intel/compilers_and_libraries_2016.1.150/linux/bin/intel64/ifort
 FCVERSION : 16.0.1
 BLASLIB   : -mkl
 id        : ccgc

 Nodes     nprocs
 n021         1
 ga_uses_ma=false, calling ma_init with nominal heap.
 GA-space will be limited to   8.0 MW (determined by -G option)

 Using customized tuning parameters: mindgm=10; mindgv=16; mindgc=4; mindgr=1; noblas=0; mincuda=1000; minvec=7
 default implementation of scratch files=df  

 ***,Optimization of tetrahydrothiopyran
 memory,1000,m
 gthresh,energy=1.0d-12,orbital=1.0d-10,oneint=1.0d-16,twoint=1.0d-16,optgrad=1.0d-6,compress=1.0d-13
 geomtyp=xyz
 
 bohr
 geometry = {
  S    0.3529603083    2.7040288489   -0.0009559951
  C   -0.3304074828   -3.3691814300    0.0023687972
  C   -0.6629802924    0.6695478540   -2.5844316917
  C   -0.6638858118    0.6724795163    2.5844697270
  C    0.4732664047   -1.9847711698   -2.4154687975
  C    0.4724194839   -1.9820292300    2.4189158689
  H   -2.7292277385    0.5713843786   -2.5886322084
  H   -2.7301346228    0.5743204712    2.5880576637
  H   -0.0734798366    1.6238665999   -4.3151543238
  H   -0.0749915557    1.6287609657    4.3143151623
  H    2.5346694500   -1.8326966669   -2.4864234516
  H    2.5350723562   -1.8439030291    2.4815897437
  H   -0.1269969504   -3.0714130218   -4.0711492144
  H   -0.1271829872   -3.0808488546    4.0667801110
  H    0.4650403064   -5.2759595090    0.0035896253
  H   -2.3928760480   -3.5834071404    0.0021289833
 }
 
 basis=VDZ
 {rhf;maxit,200}
 {ccsd(t);maxit,200}

 Variables initialized (661), CPU time= 0.00 sec
 Commands  initialized (458), CPU time= 0.00 sec, 486 directives.
 Default parameters read. Elapsed time= 0.08 sec

 Checking input...
 Passed
1


                                         ***  PROGRAM SYSTEM MOLPRO  ***
                         Copyright, University College Cardiff Consultants Limited, 2008

                                    Version 2010.1 linked May 16 2016 07:17:05


 **********************************************************************************************************************************
 LABEL *   Optimization of tetrahydrothiopyran                                           
 Linux-4.4.3/n021(x86_64) 64 bit mpp version                                             DATE: 26-Jan-24          TIME: 10:25:16  
 **********************************************************************************************************************************

 SHA1:             9e8077add272b0f3cad6f7df79ec5211205f459d
 **********************************************************************************************************************************

 THRESHOLDS:

 ZERO    =  1.00D-12  ONEINT  =  1.00D-16  TWOINT  =  1.00D-16  PREFAC  =  1.00D-14  LOCALI  =  1.00D-09  EORDER  =  1.00D-04
 ENERGY  =  1.00D-12  ETEST   =  0.00D+00  EDENS   =  0.00D+00  THRDEDEF=  1.00D-06  GRADIENT=  1.00D-02  STEP    =  1.00D-03
 ORBITAL =  1.00D-10  CIVEC   =  1.00D-05  COEFF   =  1.00D-04  PRINTCI =  5.00D-02  PUNCHCI =  9.90D+01  OPTGRAD =  1.00D-06
 OPTENERG=  1.00D-06  OPTSTEP =  3.00D-04  THRGRAD =  1.00D-10  COMPRESS=  1.00D-13  VARMIN  =  1.00D-07  VARMAX  =  1.00D-03
 THRDOUB =  0.00D+00  THRDIV  =  1.00D-05  THRRED  =  1.00D-07  THRPSP  =  1.00D+00  THRDC   =  1.00D-10  THRCS   =  1.00D-10
 THRNRM  =  1.00D-08  THREQ   =  0.00D+00  THRDE   =  1.00D+00  THRREF  =  1.00D-05  SPARFAC =  1.00D+00  THRDLP  =  1.00D-07
 THRDIA  =  1.00D-10  THRDLS  =  1.00D-07  THRGPS  =  0.00D+00  THRKEX  =  0.00D+00  THRDIS  =  2.00D-01  THRVAR  =  1.00D-10
 THRLOC  =  1.00D-06  THRGAP  =  1.00D-06  THRLOCT = -1.00D+00  THRGAPT = -1.00D+00  THRORB  =  1.00D-06  THRMLTP =  0.00D+00
 THRCPQCI=  1.00D-10  KEXTA   =  0.00D+00  THRCOARS=  0.00D+00  SYMTOL  =  1.00D-06  GRADTOL =  1.00D-06  THROVL  =  1.00D-08
 THRORTH =  1.00D-08  GRID    =  1.00D-06  GRIDMAX =  1.00D-03  DTMAX   =  0.00D+00

 SETTING GEOMTYP        =    XYZ
 ZUNIT=BOHR
 

 Variable memory set to 1000000000 words,  buffer space   230000 words

 SETTING BASIS          =    VDZ


 Recomputing integrals since basis changed


 Using spherical harmonics

 Library entry S      S cc-pVDZ              selected for orbital group  1
 Library entry S      P cc-pVDZ              selected for orbital group  1
 Library entry S      D cc-pVDZ              selected for orbital group  1
 Library entry C      S cc-pVDZ              selected for orbital group  2
 Library entry C      P cc-pVDZ              selected for orbital group  2
 Library entry C      D cc-pVDZ              selected for orbital group  2
 Library entry H      S cc-pVDZ              selected for orbital group  3
 Library entry H      P cc-pVDZ              selected for orbital group  3

1PROGRAM * SEWARD (Integral evaluation for generally contracted gaussian basis sets)     Author: Roland Lindh, 1990

 Geometry written to block  1 of record 700


 Point group  C1  



 ATOMIC COORDINATES

 NR  ATOM    CHARGE       X              Y              Z

   1  S      16.00    0.352960308    2.704028849   -0.000955995
   2  C       6.00   -0.330407483   -3.369181430    0.002368797
   3  C       6.00   -0.662980292    0.669547854   -2.584431692
   4  C       6.00   -0.663885812    0.672479516    2.584469727
   5  C       6.00    0.473266405   -1.984771170   -2.415468797
   6  C       6.00    0.472419484   -1.982029230    2.418915869
   7  H       1.00   -2.729227739    0.571384379   -2.588632208
   8  H       1.00   -2.730134623    0.574320471    2.588057664
   9  H       1.00   -0.073479837    1.623866600   -4.315154324
  10  H       1.00   -0.074991556    1.628760966    4.314315162
  11  H       1.00    2.534669450   -1.832696667   -2.486423452
  12  H       1.00    2.535072356   -1.843903029    2.481589744
  13  H       1.00   -0.126996950   -3.071413022   -4.071149214
  14  H       1.00   -0.127182987   -3.080848855    4.066780111
  15  H       1.00    0.465040306   -5.275959509    0.003589625
  16  H       1.00   -2.392876048   -3.583407140    0.002128983

 Bond lengths in Bohr (Angstrom)

  1- 3  3.441743003   1- 4  3.441743001   2- 5  2.899727939   2- 6  2.899727938   2-15  2.066044849
       ( 1.821291956)       ( 1.821291956)       ( 1.534469938)       ( 1.534469937)       ( 1.093303847)

  2-16  2.073564394   3- 5  2.892233479   3- 7  2.068582176   3- 9  2.062434456   4- 6  2.892233478
       ( 1.097283019)       ( 1.530504040)       ( 1.094646543)       ( 1.091393309)       ( 1.530504039)

  4- 8  2.068582176   4-10  2.062434456   5-11  2.068222361   5-13  2.069392242   6-12  2.068222361
       ( 1.094646543)       ( 1.091393309)       ( 1.094456136)       ( 1.095075211)       ( 1.094456136)

  6-14  2.069392242
       ( 1.095075211)

 Bond angles

  1-3-5  112.49960078   1-3-7  108.93070315   1-3-9  105.78400602   1-4-6  112.49959901

  1- 4- 8  108.93070353   1- 4-10  105.78400640   2- 5- 3  112.20875067   2- 5-11  109.87393003

  2- 5-13  109.63503780   2- 6- 4  112.20875273   2- 6-12  109.47036669   2- 6-14  109.23147447

  3- 1- 4   97.33913430   3- 5-11  108.78883325   3- 5-13  108.73614982   4- 6-12  109.19555458

  4- 6-14  109.14287117   5- 2- 6  112.93921857   5- 2-15  109.53661040   5- 2-16  108.95950404

  5- 3- 7  110.42528697   5- 3- 9  111.18527454   6- 2-15  109.53661041   6- 2-16  108.95950404

  6- 4- 8  110.42528731   6- 4-10  111.18527491   7- 3- 9  107.80381706   8- 4-10  107.80381745

 11- 5-13  107.47399489  12- 6-14  107.47557388  15- 2-16  106.71439451

 NUCLEAR CHARGE:                   56
 NUMBER OF PRIMITIVE AOS:         247
 NUMBER OF SYMMETRY AOS:          241
 NUMBER OF CONTRACTIONS:          138   ( 138A   )
 NUMBER OF CORE ORBITALS:          10   (  10A   )
 NUMBER OF VALENCE ORBITALS:       34   (  34A   )


 NUCLEAR REPULSION ENERGY  311.78758938


 Eigenvalues of metric

         1 0.288E-02 0.307E-02 0.428E-02 0.637E-02 0.708E-02 0.152E-01 0.157E-01 0.196E-01


 Contracted 2-electron integrals neglected if value below      1.0D-16
 AO integral compression algorithm  1   Integral accuracy      1.0D-16

     374.079 MB (compressed) written to integral file ( 94.1%)

     Node minimum: 374.079 MB, node maximum: 374.079 MB


 NUMBER OF SORTED TWO-ELECTRON INTEGRALS:   45998436.     BUFFER LENGTH:  32768
 NUMBER OF SEGMENTS:   3  SEGMENT LENGTH:   15998004      RECORD LENGTH: 524288

 Memory used in sort:      16.56 MW

 SORT1 READ    49669030. AND WROTE    45795252. INTEGRALS IN    132 RECORDS. CPU TIME:     0.53 SEC, REAL TIME:     0.81 SEC
 SORT2 READ    45795252. AND WROTE    45998436. INTEGRALS IN   1427 RECORDS. CPU TIME:     0.40 SEC, REAL TIME:     0.61 SEC

 FILE SIZES:   FILE 1:   349.4 MBYTE,  FILE 4:   553.7 MBYTE,   TOTAL:    903.1 MBYTE

 OPERATOR DM      FOR CENTER  0  COORDINATES:    0.000000    0.000000    0.000000


 **********************************************************************************************************************************
 DATASETS  * FILE   NREC   LENGTH (MB)   RECORD NAMES
              1      19      349.62       500      610      700      900      950      970     1000      129      960     1100   
                                          VAR    BASINP    GEOM    SYMINP    ZMAT    AOBASIS   BASIS     P2S    ABASIS      S 
                                         1400     1410     1200     1210     1080     1600     1650     1300     1700   
                                           T        V       H0       H01     AOSYM     SMH    MOLCAS    ERIS     OPER   

 PROGRAMS   *        TOTAL       INT
 CPU TIMES  *         5.88      5.82
 REAL TIME  *         6.77 SEC
 DISK USED  *         1.28 GB      
 GA USED    *         0.01 MB       (max)       0.00 MB       (current)
 **********************************************************************************************************************************

1PROGRAM * RHF-SCF (CLOSED SHELL)       Authors: W. Meyer, H.-J. Werner


 NUMBER OF ELECTRONS:      28+   28-    SPACE SYMMETRY=1    SPIN SYMMETRY: Singlet 
 CONVERGENCE THRESHOLDS:    1.00E-10 (Density)    1.00E-13 (Energy)
 MAX. NUMBER OF ITERATIONS:      200
 INTERPOLATION TYPE:            DIIS
 INTERPOLATION STEPS:              2 (START)      1 (STEP)
 LEVEL SHIFTS:                  0.00 (CLOSED)  0.00 (OPEN) 



 Orbital guess generated from atomic densities. Full valence occupancy:   44

 Molecular orbital dump at record        2100.2

 ITERATION    DDIFF          GRAD             ENERGY        2-EL.EN.            DIPOLE MOMENTS         DIIS
    1      0.000D+00      0.000D+00      -592.64406829   1056.120895   -0.40878   -0.80653   -0.00085    0
    2      0.000D+00      0.395D-02      -592.70495105   1053.586167   -0.20814   -0.74002   -0.00014    1
    3      0.775D-02      0.132D-02      -592.71085963   1054.995009   -0.28116   -0.67859   -0.00016    2
    4      0.268D-02      0.536D-03      -592.71185687   1054.386433   -0.25344   -0.71135   -0.00008    3
    5      0.925D-03      0.766D-04      -592.71188227   1054.448028   -0.24966   -0.70289   -0.00008    4
    6      0.180D-03      0.263D-04      -592.71188473   1054.417303   -0.25135   -0.70322   -0.00008    5
    7      0.497D-04      0.619D-05      -592.71188494   1054.420564   -0.25069   -0.70310   -0.00009    6
    8      0.163D-04      0.173D-05      -592.71188496   1054.419693   -0.25067   -0.70297   -0.00009    7
    9      0.537D-05      0.451D-06      -592.71188496   1054.419579   -0.25066   -0.70292   -0.00009    7
   10      0.126D-05      0.162D-06      -592.71188496   1054.419616   -0.25065   -0.70292   -0.00009    7
   11      0.478D-06      0.343D-07      -592.71188496   1054.419602   -0.25065   -0.70292   -0.00009    7
   12      0.114D-06      0.688D-08      -592.71188496   1054.419607   -0.25065   -0.70292   -0.00009    7
   13      0.183D-07      0.287D-08      -592.71188496   1054.419604   -0.25065   -0.70292   -0.00009    7
   14      0.631D-08      0.852D-09      -592.71188496   1054.419605   -0.25065   -0.70292   -0.00009    7
   15      0.228D-08      0.278D-09      -592.71188496   1054.419605   -0.25065   -0.70292   -0.00009    7
   16      0.666D-09      0.898D-10      -592.71188496   1054.419605   -0.25065   -0.70292   -0.00009    8
   17      0.215D-09      0.227D-10      -592.71188496   1054.419605   -0.25065   -0.70292   -0.00009    7
   18      0.609D-10      0.758D-11      -592.71188496   1054.419605   -0.25065   -0.70292   -0.00009    0

 Final occupancy:  28

 !RHF STATE 1.1 Energy               -592.711884961458
 Nuclear energy                       311.78758938
 One-electron energy                -1431.70927687
 Two-electron energy                  527.20980253
 Virial quotient                       -1.00023574
 !RHF STATE 1.1 Dipole moment          -0.25064748    -0.70291882    -0.00009156
 Dipole moment /Debye                  -0.63704063    -1.78652442    -0.00023272

 Orbital energies:

         1.1          2.1          3.1          4.1          5.1          6.1          7.1          8.1          9.1         10.1
    -91.929989   -11.255417   -11.255253   -11.231452   -11.231346   -11.229518    -8.933777    -6.615667    -6.614237    -6.612039

        11.1         12.1         13.1         14.1         15.1         16.1         17.1         18.1         19.1         20.1
     -1.118433    -1.019293    -1.005849    -0.842327    -0.835701    -0.755697    -0.646076    -0.614082    -0.609567    -0.578254

        21.1         22.1         23.1         24.1         25.1         26.1         27.1         28.1         29.1         30.1
     -0.546735    -0.522946    -0.497852    -0.495290    -0.473092    -0.434605    -0.411597    -0.328747     0.176898     0.190046


 **********************************************************************************************************************************
 DATASETS  * FILE   NREC   LENGTH (MB)   RECORD NAMES
              1      19      349.62       500      610      700      900      950      970     1000      129      960     1100   
                                          VAR    BASINP    GEOM    SYMINP    ZMAT    AOBASIS   BASIS     P2S    ABASIS      S 
                                         1400     1410     1200     1210     1080     1600     1650     1300     1700   
                                           T        V       H0       H01     AOSYM     SMH    MOLCAS    ERIS     OPER   

              2       3        0.92       700     1000     2100   
                                         GEOM     BASIS     RHF  

 PROGRAMS   *        TOTAL       RHF       INT
 CPU TIMES  *        12.62      6.74      5.82
 REAL TIME  *        14.26 SEC
 DISK USED  *         1.28 GB      
 GA USED    *         0.01 MB       (max)       0.00 MB       (current)
 **********************************************************************************************************************************


1PROGRAM * CCSD (Closed-shell coupled cluster)     Authors: C. Hampel, H.-J. Werner, 1991, M. Deegan, P.J. Knowles, 1992


 Convergence thresholds:  THRVAR = 1.00D-08  THRDEN = 1.00D-12

 CCSD(T)     terms to be evaluated (factor= 1.000)


 Number of core orbitals:          10 (  10 )
 Number of closed-shell orbitals:  18 (  18 )
 Number of external orbitals:     110 ( 110 )

 Molecular orbitals read from record     2100.2  Type=RHF/CANONICAL (state 1.1)

 Number of N-1 electron functions:              18
 Number of N-2 electron functions:             171
 Number of singly external CSFs:              1980
 Number of doubly external CSFs:           1961190
 Total number of CSFs:                     1963171

 Length of J-op  integral file:               0.00 MB
 Length of K-op  integral file:               1.35 MB
 Length of 3-ext integral record:             0.00 MB

 Memory could be reduced to 32.58 Mwords without degradation in triples

 Integral transformation finished. Total CPU:   3.18 sec, npass=  1  Memory used:  30.89 MW

 Reference energy:                   -592.71188496

 MP2 singlet pair energy:              -0.53959828
 MP2 triplet pair energy:              -0.30426524
 MP2 correlation energy:               -0.84386352
 MP2 total energy:                   -593.55574848

 SCS-MP2 correlation energy:           -0.83683853   (PS=  1.200000  PT=  0.333333)
 SCS-MP2 total energy:               -593.54872349

 ITER.      SQ.NORM     CORR.ENERGY   TOTAL ENERGY   ENERGY CHANGE        DEN1      VAR(S)    VAR(P)  DIIS     TIME
   1      1.33999859    -0.91089997  -593.62278493    -0.06703645    -0.04305613  0.26D-02  0.55D-02  1  1    14.23
   2      1.36704313    -0.91625885  -593.62814382    -0.00535889    -0.02580126  0.69D-04  0.46D-03  2  2    25.48
   3      1.37239412    -0.91638804  -593.62827300    -0.00012919    -0.00304541  0.16D-04  0.28D-04  3  3    36.64
   4      1.37389398    -0.91644628  -593.62833125    -0.00005824    -0.00059627  0.77D-06  0.20D-05  4  4    47.89
   5      1.37413619    -0.91645297  -593.62833793    -0.00000668    -0.00007127  0.17D-06  0.17D-06  5  5    59.04
   6      1.37418213    -0.91644850  -593.62833346     0.00000447    -0.00001401  0.30D-07  0.14D-07  6  6    70.37
   7      1.37418974    -0.91644839  -593.62833335     0.00000011     0.00000064  0.53D-08  0.23D-08  6  2    81.60
   8      1.37419585    -0.91644808  -593.62833304     0.00000031    -0.00000125  0.73D-09  0.27D-09  6  1    92.77
   9      1.37419667    -0.91644801  -593.62833297     0.00000006     0.00000051  0.65D-10  0.44D-10  6  4   104.04
  10      1.37419756    -0.91644798  -593.62833294     0.00000003    -0.00000011  0.47D-11  0.35D-11  6  3   115.30
  11      1.37419756    -0.91644798  -593.62833294    -0.00000000     0.00000004  0.11D-11  0.54D-12  6  5   126.63
  12      1.37419753    -0.91644798  -593.62833294    -0.00000000     0.00000002  0.17D-12  0.77D-13  6  6   137.90
  13      1.37419748    -0.91644798  -593.62833294    -0.00000000     0.00000002  0.24D-13  0.11D-13  6  1   149.17
  14      1.37419747    -0.91644798  -593.62833295    -0.00000000     0.00000000  0.32D-14  0.12D-14  6  2   160.44
  15      1.37419747    -0.91644798  -593.62833295     0.00000000    -0.00000000  0.69D-15  0.31D-15  6  4   171.60
  16      1.37419747    -0.91644798  -593.62833294     0.00000000    -0.00000000  0.33D-16  0.24D-16  6  5   182.80
  17      1.37419747    -0.91644798  -593.62833294     0.00000000    -0.00000000  0.60D-17  0.25D-17  6  3   194.16
  18      1.37419747    -0.91644798  -593.62833294     0.00000000    -0.00000000  0.15D-17  0.43D-18  6  5   205.41
  19      1.37419747    -0.91644798  -593.62833294     0.00000000    -0.00000000  0.19D-18  0.67D-19  6  6   216.57
  20      1.37419747    -0.91644798  -593.62833294     0.00000000     0.00000000  0.15D-19  0.68D-20  6  1   227.75
  21      1.37419747    -0.91644798  -593.62833294    -0.00000000     0.00000000  0.25D-20  0.10D-20  6  2   238.92

 Norm of t1 vector:      0.07018707      S-energy:    -0.00000000      T1 diagnostic:  0.00827163
                                                                       D1 diagnostic:  0.02115831


 Total CPU time for triples:    159.86 sec


 RESULTS
 =======

  Reference energy                   -592.711884961458
  CCSD singlet pair energy             -0.634451109295
  CCSD triplet pair energy             -0.281996874168
  CCSD correlation energy              -0.916447983463

  Triples (T) contribution             -0.029900469218
  Total correlation energy             -0.946348452681

  CCSD total energy                  -593.628332944921
  CCSD[T] energy                     -593.658854098157
  CCSD-T energy                      -593.657921203627
 !CCSD(T) total energy               -593.658233414139

 Timing summary (sec):

 STEP                 CPU(USER)    SYS     CPU(TOT)    WALL
 Transformation          3.35      0.24      3.59      3.62
 CCSD iterations       235.58      2.94    238.52    238.62
 Triples               159.86      2.08    161.94    161.97

 Program statistics:

 Available memory in ccsd:               999998604
 Min. memory needed in ccsd:               5123362
 Max. memory used in ccsd:                 6867976
 Max. memory used in cckext:               6836871 (21 integral passes)



 **********************************************************************************************************************************
 DATASETS  * FILE   NREC   LENGTH (MB)   RECORD NAMES
              1      20      485.99       500      610      700      900      950      970     1000      129      960     1100   
                                          VAR    BASINP    GEOM    SYMINP    ZMAT    AOBASIS   BASIS     P2S    ABASIS      S 
                                         1400     1410     1200     1210     1080     1600     1650     1300     1700     1380   
                                           T        V       H0       H01     AOSYM     SMH    MOLCAS    ERIS     OPER     JKOP   

              2       3        0.92       700     1000     2100   
                                         GEOM     BASIS     RHF  

 PROGRAMS   *        TOTAL   CCSD(T)       RHF       INT
 CPU TIMES  *       411.44    398.82      6.74      5.82
 REAL TIME  *       418.53 SEC
 DISK USED  *         1.28 GB      
 GA USED    *         0.01 MB       (max)       0.00 MB       (current)
 **********************************************************************************************************************************

        CCSD(T)         RHF-SCF 
   -593.65823341   -592.71188496
 **********************************************************************************************************************************
 Variable memory released
