
 Primary working directories    : /tmp/1093664.120.gen4.q
 Secondary working directories  : /tmp/1093664.120.gen4.q
 Wavefunction directory         : /home/vulcan/mel64643/wfu/
 Main file repository           : /tmp/1093664.120.gen4.q/

 ARCHNAME  : Linux/x86_64
 FC        : /opt/intel/compilers_and_libraries_2016.1.150/linux/bin/intel64/ifort
 FCVERSION : 16.0.1
 BLASLIB   : -mkl
 id        : ccgc

 Nodes     nprocs
 n021         1
 ga_uses_ma=false, calling ma_init with nominal heap.
 GA-space will be limited to   8.0 MW (determined by -G option)

 Using customized tuning parameters: mindgm=10; mindgv=16; mindgc=4; mindgr=1; noblas=0; mincuda=1000; minvec=7
 default implementation of scratch files=df  

 ***,Optimization of h2o_2
 memory,1000,m
 gthresh,energy=1.0d-12,orbital=1.0d-10,oneint=1.0d-16,twoint=1.0d-16,optgrad=1.0d-6,compress=1.0d-13
 geomtyp=xyz
 
 
 
 bohr
 geometry = {
  O   -2.8123362130   -0.2018496544    0.0000000000
  H   -3.5754363630    1.4456159461   -0.0000000000
  H   -1.0100060701    0.1078098855    0.0000000000
  O    2.6796113705    0.1921206856   -0.0000000000
  H    3.3415776418   -0.7018715544   -1.4388270840
  H    3.3415776418   -0.7018715544    1.4388270840
 }
 
 basis=aug-cc-pvtz, H=cc-pvtz
 {rhf;maxit,200}
 {ccsd(t);maxit,200}

 Variables initialized (661), CPU time= 0.00 sec
 Commands  initialized (458), CPU time= 0.01 sec, 486 directives.
 Default parameters read. Elapsed time= 0.07 sec

 Checking input...
 Passed
1


                                         ***  PROGRAM SYSTEM MOLPRO  ***
                         Copyright, University College Cardiff Consultants Limited, 2008

                                    Version 2010.1 linked May 16 2016 07:17:05


 **********************************************************************************************************************************
 LABEL *   Optimization of h2o_2                                                         
 Linux-4.4.3/n021(x86_64) 64 bit mpp version                                             DATE: 12-Jun-24          TIME: 09:46:35  
 **********************************************************************************************************************************

 SHA1:             9e8077add272b0f3cad6f7df79ec5211205f459d
 **********************************************************************************************************************************

 THRESHOLDS:

 ZERO    =  1.00D-12  ONEINT  =  1.00D-16  TWOINT  =  1.00D-16  PREFAC  =  1.00D-14  LOCALI  =  1.00D-09  EORDER  =  1.00D-04
 ENERGY  =  1.00D-12  ETEST   =  0.00D+00  EDENS   =  0.00D+00  THRDEDEF=  1.00D-06  GRADIENT=  1.00D-02  STEP    =  1.00D-03
 ORBITAL =  1.00D-10  CIVEC   =  1.00D-05  COEFF   =  1.00D-04  PRINTCI =  5.00D-02  PUNCHCI =  9.90D+01  OPTGRAD =  1.00D-06
 OPTENERG=  1.00D-06  OPTSTEP =  3.00D-04  THRGRAD =  1.00D-10  COMPRESS=  1.00D-13  VARMIN  =  1.00D-07  VARMAX  =  1.00D-03
 THRDOUB =  0.00D+00  THRDIV  =  1.00D-05  THRRED  =  1.00D-07  THRPSP  =  1.00D+00  THRDC   =  1.00D-10  THRCS   =  1.00D-10
 THRNRM  =  1.00D-08  THREQ   =  0.00D+00  THRDE   =  1.00D+00  THRREF  =  1.00D-05  SPARFAC =  1.00D+00  THRDLP  =  1.00D-07
 THRDIA  =  1.00D-10  THRDLS  =  1.00D-07  THRGPS  =  0.00D+00  THRKEX  =  0.00D+00  THRDIS  =  2.00D-01  THRVAR  =  1.00D-10
 THRLOC  =  1.00D-06  THRGAP  =  1.00D-06  THRLOCT = -1.00D+00  THRGAPT = -1.00D+00  THRORB  =  1.00D-06  THRMLTP =  0.00D+00
 THRCPQCI=  1.00D-10  KEXTA   =  0.00D+00  THRCOARS=  0.00D+00  SYMTOL  =  1.00D-06  GRADTOL =  1.00D-06  THROVL  =  1.00D-08
 THRORTH =  1.00D-08  GRID    =  1.00D-06  GRIDMAX =  1.00D-03  DTMAX   =  0.00D+00

 SETTING GEOMTYP        =    XYZ
 ZUNIT=BOHR
 

 Variable memory set to 1000000000 words,  buffer space   230000 words

 SETTING BASIS          =    AUG-CC-PVTZ,H=CC-PVTZ


 Recomputing integrals since basis changed


 Using spherical harmonics

 Library entry O      S aug-cc-pVTZ          selected for orbital group  1
 Library entry O      P aug-cc-pVTZ          selected for orbital group  1
 Library entry O      D aug-cc-pVTZ          selected for orbital group  1
 Library entry O      F aug-cc-pVTZ          selected for orbital group  1
 Library entry H      S cc-pVTZ              selected for orbital group  2
 Library entry H      P cc-pVTZ              selected for orbital group  2
 Library entry H      D cc-pVTZ              selected for orbital group  2

1PROGRAM * SEWARD (Integral evaluation for generally contracted gaussian basis sets)     Author: Roland Lindh, 1990

 Geometry written to block  1 of record 700


 Point group  Cs  



 ATOMIC COORDINATES

 NR  ATOM    CHARGE       X              Y              Z

   1  O       8.00   -2.812336213   -0.201849654    0.000000000
   2  H       1.00   -3.575436363    1.445615946    0.000000000
   3  H       1.00   -1.010006070    0.107809885    0.000000000
   4  O       8.00    2.679611370    0.192120686    0.000000000
   5  H       1.00    3.341577642   -0.701871554   -1.438827084
   6  H       1.00    3.341577642   -0.701871554    1.438827084

 Bond lengths in Bohr (Angstrom)

 1-2  1.815616904  1-3  1.828738083  4-5  1.818693170  4-6  1.818693170
     ( 0.960783086)     ( 0.967726515)     ( 0.962410976)     ( 0.962410976)

 Bond angles

  2-1-3  105.10455824   5-4-6  104.58292373

 NUCLEAR CHARGE:                   20
 NUMBER OF PRIMITIVE AOS:         202
 NUMBER OF SYMMETRY AOS:          180
 NUMBER OF CONTRACTIONS:          148   (  94A'  +  54A"  )
 NUMBER OF CORE ORBITALS:           2   (   2A'  +   0A"  )
 NUMBER OF VALENCE ORBITALS:       12   (   9A'  +   3A"  )


 NUCLEAR REPULSION ENERGY   36.54111395


 Eigenvalues of metric

         1 0.530E-03 0.584E-03 0.925E-03 0.264E-02 0.321E-02 0.447E-02 0.473E-02 0.611E-02
         2 0.101E-02 0.621E-02 0.134E-01 0.222E-01 0.258E-01 0.378E-01 0.413E-01 0.487E-01


 Contracted 2-electron integrals neglected if value below      1.0D-16
 AO integral compression algorithm  1   Integral accuracy      1.0D-16

     251.920 MB (compressed) written to integral file ( 84.1%)

     Node minimum: 251.920 MB, node maximum: 251.920 MB


 NUMBER OF SORTED TWO-ELECTRON INTEGRALS:   30965275.     BUFFER LENGTH:  32768
 NUMBER OF SEGMENTS:   2  SEGMENT LENGTH:   15989665      RECORD LENGTH: 524288

 Memory used in sort:      16.55 MW

 SORT1 READ    37483000. AND WROTE    29728751. INTEGRALS IN     87 RECORDS. CPU TIME:     0.44 SEC, REAL TIME:     0.62 SEC
 SORT2 READ    29728751. AND WROTE    30965275. INTEGRALS IN    961 RECORDS. CPU TIME:     0.33 SEC, REAL TIME:     0.49 SEC

 FILE SIZES:   FILE 1:   219.4 MBYTE,  FILE 4:   364.9 MBYTE,   TOTAL:    584.3 MBYTE

 OPERATOR DM      FOR CENTER  0  COORDINATES:    0.000000    0.000000    0.000000


 **********************************************************************************************************************************
 DATASETS  * FILE   NREC   LENGTH (MB)   RECORD NAMES
              1      19      219.55       500      610      700      900      950      970     1000      129      960     1100   
                                          VAR    BASINP    GEOM    SYMINP    ZMAT    AOBASIS   BASIS     P2S    ABASIS      S 
                                         1400     1410     1200     1210     1080     1600     1650     1300     1700   
                                           T        V       H0       H01     AOSYM     SMH    MOLCAS    ERIS     OPER   

 PROGRAMS   *        TOTAL       INT
 CPU TIMES  *         2.78      2.72
 REAL TIME  *         3.43 SEC
 DISK USED  *       836.93 MB      
 GA USED    *         0.00 MB       (max)       0.00 MB       (current)
 **********************************************************************************************************************************

1PROGRAM * RHF-SCF (CLOSED SHELL)       Authors: W. Meyer, H.-J. Werner


 NUMBER OF ELECTRONS:      10+   10-
 CONVERGENCE THRESHOLDS:    1.00E-10 (Density)    1.00E-13 (Energy)
 MAX. NUMBER OF ITERATIONS:      200
 INTERPOLATION TYPE:            DIIS
 INTERPOLATION STEPS:              2 (START)      1 (STEP)
 LEVEL SHIFTS:                  0.00 (CLOSED)  0.00 (OPEN) 



 Orbital guess generated from atomic densities. Full valence occupancy:   11   3

 Molecular orbital dump at record        2100.2

 Initial alpha occupancy:   8   2
 Initial beta  occupancy:   8   2
 Wave function symmetry:    1

 ITERATION    DDIFF          GRAD             ENERGY        2-EL.EN.            DIPOLE MOMENTS         DIIS
    1      0.000D+00      0.000D+00      -152.05713874    191.496175    1.36975    0.09242    0.00000    0
    2      0.000D+00      0.753D-02      -152.10738142    184.845915    1.00868    0.02330    0.00000    1
    3      0.129D-01      0.452D-02      -152.12548561    187.711183    1.07255    0.05223    0.00000    2
    4      0.435D-02      0.459D-03      -152.12586565    187.535293    1.05970    0.05048    0.00000    3
    5      0.648D-03      0.118D-03      -152.12589958    187.554973    1.05528    0.05165    0.00000    4
    6      0.186D-03      0.266D-04      -152.12590171    187.555007    1.05427    0.05101    0.00000    5
    7      0.530D-04      0.116D-04      -152.12590192    187.554033    1.05404    0.05139    0.00000    6
    8      0.153D-04      0.282D-05      -152.12590195    187.554282    1.05392    0.05133    0.00000    7
    9      0.692D-05      0.460D-06      -152.12590195    187.554233    1.05389    0.05133    0.00000    6
   10      0.105D-05      0.886D-07      -152.12590195    187.554263    1.05389    0.05133    0.00000    7
   11      0.200D-06      0.252D-07      -152.12590195    187.554256    1.05389    0.05133    0.00000    7
   12      0.549D-07      0.707D-08      -152.12590195    187.554258    1.05389    0.05133    0.00000    7
   13      0.163D-07      0.139D-08      -152.12590195    187.554257    1.05389    0.05133    0.00000    6
   14      0.306D-08      0.340D-09      -152.12590195    187.554257    1.05389    0.05133    0.00000    6
   15      0.816D-09      0.115D-09      -152.12590195    187.554257    1.05389    0.05133    0.00000    7
   16      0.222D-09      0.537D-10      -152.12590195    187.554257    1.05389    0.05133    0.00000    7
   17      0.859D-10      0.162D-10      -152.12590195    187.554257    1.05389    0.05133    0.00000    7
   18      0.398D-10      0.405D-11      -152.12590195    187.554257    1.05389    0.05133    0.00000    7
   19      0.970D-11      0.974D-12      -152.12590195    187.554257    1.05389    0.05133    0.00000    7
   20      0.239D-11      0.229D-12      -152.12590195    187.554257    1.05389    0.05133    0.00000    7
   21      0.769D-12      0.756D-13      -152.12590195    187.554257    1.05389    0.05133    0.00000    7
   22      0.298D-12      0.417D-13      -152.12590195    187.554257    1.05389    0.05133    0.00000    8
   23      0.394D-12      0.278D-13      -152.12590195    187.554257    1.05389    0.05133    0.00000    9
   24      0.176D-12      0.240D-13      -152.12590195    187.554257    1.05389    0.05133    0.00000    8
   25      0.867D-13      0.283D-13      -152.12590195    187.554257    1.05389    0.05133    0.00000    0

 Final occupancy:   8   2

 !RHF STATE 1.1 Energy               -152.125901948618
 Nuclear energy                        36.54111395
 One-electron energy                 -282.44414455
 Two-electron energy                   93.77712865
 Virial quotient                       -1.00143235
 !RHF STATE 1.1 Dipole moment           1.05388750     0.05133364     0.00000000
 Dipole moment /Debye                   2.67853940     0.13046856     0.00000000

 Orbital energies:

         1.1          2.1          3.1          4.1          5.1          6.1          7.1          8.1          9.1         10.1
    -20.592445   -20.535983    -1.378366    -1.320579    -0.694058    -0.613605    -0.557922    -0.530543     0.091642     0.125208

         1.2          2.2          3.2          4.2
     -0.740446    -0.480997     0.134769     0.200096


 **********************************************************************************************************************************
 DATASETS  * FILE   NREC   LENGTH (MB)   RECORD NAMES
              1      19      219.55       500      610      700      900      950      970     1000      129      960     1100   
                                          VAR    BASINP    GEOM    SYMINP    ZMAT    AOBASIS   BASIS     P2S    ABASIS      S 
                                         1400     1410     1200     1210     1080     1600     1650     1300     1700   
                                           T        V       H0       H01     AOSYM     SMH    MOLCAS    ERIS     OPER   

              2       3        0.60       700     1000     2100   
                                         GEOM     BASIS     RHF  

 PROGRAMS   *        TOTAL       RHF       INT
 CPU TIMES  *         7.38      4.60      2.72
 REAL TIME  *         8.65 SEC
 DISK USED  *       836.93 MB      
 GA USED    *         0.00 MB       (max)       0.00 MB       (current)
 **********************************************************************************************************************************


1PROGRAM * CCSD (Closed-shell coupled cluster)     Authors: C. Hampel, H.-J. Werner, 1991, M. Deegan, P.J. Knowles, 1992


 Convergence thresholds:  THRVAR = 1.00D-08  THRDEN = 1.00D-12

 CCSD(T)     terms to be evaluated (factor= 1.000)


 Number of core orbitals:           2 (   2   0 )
 Number of closed-shell orbitals:   8 (   6   2 )
 Number of external orbitals:     138 (  86  52 )

 Molecular orbitals read from record     2100.2  Type=RHF/CANONICAL (state 1.1)

 Number of N-1 electron functions:               8
 Number of N-2 electron functions:              36
 Number of singly external CSFs:               620
 Number of doubly external CSFs:            309880
 Total number of CSFs:                      310501

 Length of J-op  integral file:               0.00 MB
 Length of K-op  integral file:               0.85 MB
 Length of 3-ext integral record:             0.00 MB

 Memory could be reduced to 15.13 Mwords without degradation in triples

 Integral transformation finished. Total CPU:   0.69 sec, npass=  1  Memory used:   4.93 MW

 Reference energy:                   -152.12590195

 MP2 singlet pair energy:              -0.34084825
 MP2 triplet pair energy:              -0.19737455
 MP2 correlation energy:               -0.53822279
 MP2 total energy:                   -152.66412474

 SCS-MP2 correlation energy:           -0.53182873   (PS=  1.200000  PT=  0.333333)
 SCS-MP2 total energy:               -152.65773067

 ITER.      SQ.NORM     CORR.ENERGY   TOTAL ENERGY   ENERGY CHANGE        DEN1      VAR(S)    VAR(P)  DIIS     TIME
   1      1.12609083    -0.54661995  -152.67252190    -0.00839716     0.00263103  0.18D-02  0.19D-02  1  1     1.51
   2      1.13338607    -0.54722738  -152.67312933    -0.00060743    -0.00954898  0.21D-04  0.23D-03  2  2     2.30
   3      1.13603309    -0.54736267  -152.67326462    -0.00013529    -0.00172284  0.21D-04  0.94D-05  3  3     3.10
   4      1.13690565    -0.54735038  -152.67325232     0.00001229    -0.00040893  0.86D-06  0.11D-05  4  4     3.91
   5      1.13708404    -0.54734502  -152.67324697     0.00000536    -0.00005167  0.32D-06  0.62D-07  5  5     4.72
   6      1.13714995    -0.54733884  -152.67324078     0.00000618    -0.00001346  0.22D-07  0.54D-08  6  6     5.52
   7      1.13716212    -0.54733843  -152.67324038     0.00000041    -0.00000108  0.17D-08  0.96D-09  6  1     6.32
   8      1.13716467    -0.54733832  -152.67324027     0.00000010     0.00000028  0.28D-09  0.11D-09  6  2     7.14
   9      1.13716573    -0.54733823  -152.67324018     0.00000009     0.00000012  0.20D-10  0.99D-11  6  3     7.95
  10      1.13716589    -0.54733822  -152.67324017     0.00000001     0.00000000  0.43D-11  0.12D-11  6  4     8.75
  11      1.13716584    -0.54733823  -152.67324018    -0.00000001     0.00000004  0.89D-12  0.22D-12  6  5     9.55
  12      1.13716582    -0.54733823  -152.67324018    -0.00000000     0.00000001  0.18D-12  0.33D-13  6  6    10.39
  13      1.13716580    -0.54733823  -152.67324018    -0.00000000     0.00000001  0.23D-13  0.61D-14  6  1    11.21
  14      1.13716579    -0.54733823  -152.67324018    -0.00000000     0.00000000  0.38D-14  0.12D-14  6  2    12.02
  15      1.13716579    -0.54733823  -152.67324018    -0.00000000    -0.00000000  0.50D-15  0.14D-15  6  3    12.83
  16      1.13716579    -0.54733823  -152.67324018    -0.00000000    -0.00000000  0.68D-16  0.26D-16  6  4    13.64
  17      1.13716579    -0.54733823  -152.67324018     0.00000000    -0.00000000  0.91D-17  0.42D-17  6  5    14.45
  18      1.13716579    -0.54733823  -152.67324018    -0.00000000     0.00000000  0.10D-17  0.51D-18  6  6    15.25
  19      1.13716579    -0.54733823  -152.67324018    -0.00000000     0.00000000  0.15D-18  0.81D-19  6  1    16.06
  20      1.13716579    -0.54733823  -152.67324018     0.00000000    -0.00000000  0.32D-19  0.11D-19  6  2    16.87
  21      1.13716579    -0.54733823  -152.67324018    -0.00000000    -0.00000000  0.57D-20  0.21D-20  6  3    17.68

 Norm of t1 vector:      0.05678493      S-energy:    -0.00000000      T1 diagnostic:  0.01003825
                                                                       D1 diagnostic:  0.02176691


 Total CPU time for triples:     11.39 sec


 RESULTS
 =======

  Reference energy                   -152.125901948618
  CCSD singlet pair energy             -0.371759369912
  CCSD triplet pair energy             -0.175578861525
  CCSD correlation energy              -0.547338231437

  Triples (T) contribution             -0.017580996973
  Total correlation energy             -0.564919228410

  CCSD total energy                  -152.673240180055
  CCSD[T] energy                     -152.691450523699
  CCSD-T energy                      -152.690476675715
 !CCSD(T) total energy               -152.690821177028

 Timing summary (sec):

 STEP                 CPU(USER)    SYS     CPU(TOT)    WALL
 Transformation          0.70      0.08      0.78      0.79
 CCSD iterations        16.98      0.91     17.89     17.94
 Triples                11.39      0.21     11.60     11.60

 Program statistics:

 Available memory in ccsd:               999999644
 Min. memory needed in ccsd:                962213
 Max. memory used in ccsd:                 1225529
 Max. memory used in cckext:               1401808 (21 integral passes)



 **********************************************************************************************************************************
 DATASETS  * FILE   NREC   LENGTH (MB)   RECORD NAMES
              1      20      267.70       500      610      700      900      950      970     1000      129      960     1100   
                                          VAR    BASINP    GEOM    SYMINP    ZMAT    AOBASIS   BASIS     P2S    ABASIS      S 
                                         1400     1410     1200     1210     1080     1600     1650     1300     1700     1380   
                                           T        V       H0       H01     AOSYM     SMH    MOLCAS    ERIS     OPER     JKOP   

              2       3        0.60       700     1000     2100   
                                         GEOM     BASIS     RHF  

 PROGRAMS   *        TOTAL   CCSD(T)       RHF       INT
 CPU TIMES  *        36.47     29.07      4.60      2.72
 REAL TIME  *        39.02 SEC
 DISK USED  *       836.93 MB      
 GA USED    *         0.00 MB       (max)       0.00 MB       (current)
 **********************************************************************************************************************************

        CCSD(T)         RHF-SCF 
   -152.69082118   -152.12590195
 **********************************************************************************************************************************
 Variable memory released
