
 Primary working directories    : /tmp/874282.1.gen4.q
 Secondary working directories  : /tmp/874282.1.gen4.q
 Wavefunction directory         : /home/vulcan/lo21740/wfu/
 Main file repository           : /tmp/874282.1.gen4.q/

 ARCHNAME  : Linux/x86_64
 FC        : /opt/intel/compilers_and_libraries_2016.1.150/linux/bin/intel64/ifort
 FCVERSION : 16.0.1
 BLASLIB   : -mkl
 id        : ccgc

 Nodes     nprocs
 n033         3
 Number of processes for MPI-2 version of Molpro:   nprocs(total)=    4   nprocs(compute)=    3   nprocs(helper)=    1
 ga_uses_ma=false, calling ma_init with nominal heap.
 GA-space will be limited to   8.0 MW (determined by -G option)

 Using customized tuning parameters: mindgm=10; mindgv=16; mindgc=4; mindgr=1; noblas=0; mincuda=1000; minvec=7
 default implementation of scratch files=sf  

 ***,Optimization of formic acid
 memory,1000,m
 gthresh,energy=1.0d-12,orbital=1.0d-10,oneint=1.0d-16,twoint=1.0d-16,optgrad=1.0d-6,compress=1.0d-13
 geomtyp=xyz
 
 bohr
 geometry = {
  C   -3.5002769634   -0.8323060201    0.0019770422
  O   -3.0947710930    1.6252775758   -0.0003203561
  O   -1.8846139144   -2.4862921502   -0.0006212403
  H   -5.5199211982   -1.2724587202   -0.0005930360
  H   -1.2427630741    1.9571102446   -0.0004477083
  C    3.5009297375    0.8292399456    0.0019758616
  O    3.0939085101   -1.6200825022   -0.0003187306
  O    1.8861618215    2.4761615206   -0.0006127221
  H    5.5197618384    1.2742993135   -0.0005974744
  H    1.2415843356   -1.9509492074   -0.0004416361
 }
 
 basis=AVTZ
 {rhf;maxit,200}
 {mp2}

 Variables initialized (661), CPU time= 0.00 sec
 Commands  initialized (458), CPU time= 0.01 sec, 486 directives.
 Default parameters read. Elapsed time= 0.05 sec

 Checking input...
 Passed
1


                                         ***  PROGRAM SYSTEM MOLPRO  ***
                         Copyright, University College Cardiff Consultants Limited, 2008

                                    Version 2010.1 linked May 16 2016 07:17:05


 **********************************************************************************************************************************
 LABEL *   Optimization of formic acid                                                   
 Linux-4.4.3/n033(x86_64) 64 bit mpp version                                             DATE: 16-May-23          TIME: 14:09:52  
 **********************************************************************************************************************************

 SHA1:             9e8077add272b0f3cad6f7df79ec5211205f459d
 **********************************************************************************************************************************

 THRESHOLDS:

 ZERO    =  1.00D-12  ONEINT  =  1.00D-16  TWOINT  =  1.00D-16  PREFAC  =  1.00D-14  LOCALI  =  1.00D-09  EORDER  =  1.00D-04
 ENERGY  =  1.00D-12  ETEST   =  0.00D+00  EDENS   =  0.00D+00  THRDEDEF=  1.00D-06  GRADIENT=  1.00D-02  STEP    =  1.00D-03
 ORBITAL =  1.00D-10  CIVEC   =  1.00D-05  COEFF   =  1.00D-04  PRINTCI =  5.00D-02  PUNCHCI =  9.90D+01  OPTGRAD =  1.00D-06
 OPTENERG=  1.00D-06  OPTSTEP =  3.00D-04  THRGRAD =  1.00D-10  COMPRESS=  1.00D-13  VARMIN  =  1.00D-07  VARMAX  =  1.00D-03
 THRDOUB =  0.00D+00  THRDIV  =  1.00D-05  THRRED  =  1.00D-07  THRPSP  =  1.00D+00  THRDC   =  1.00D-10  THRCS   =  1.00D-10
 THRNRM  =  1.00D-08  THREQ   =  0.00D+00  THRDE   =  1.00D+00  THRREF  =  1.00D-05  SPARFAC =  1.00D+00  THRDLP  =  1.00D-07
 THRDIA  =  1.00D-10  THRDLS  =  1.00D-07  THRGPS  =  0.00D+00  THRKEX  =  0.00D+00  THRDIS  =  2.00D-01  THRVAR  =  1.00D-10
 THRLOC  =  1.00D-06  THRGAP  =  1.00D-06  THRLOCT = -1.00D+00  THRGAPT = -1.00D+00  THRORB  =  1.00D-06  THRMLTP =  0.00D+00
 THRCPQCI=  1.00D-10  KEXTA   =  0.00D+00  THRCOARS=  0.00D+00  SYMTOL  =  1.00D-06  GRADTOL =  1.00D-06  THROVL  =  1.00D-08
 THRORTH =  1.00D-08  GRID    =  1.00D-06  GRIDMAX =  1.00D-03  DTMAX   =  0.00D+00

 SETTING GEOMTYP        =    XYZ
 ZUNIT=BOHR
 

 Variable memory set to 1000000000 words,  buffer space   230000 words

 SETTING BASIS          =    AVTZ


 Recomputing integrals since basis changed


 Using spherical harmonics

 Library entry C      S aug-cc-pVTZ          selected for orbital group  1
 Library entry C      P aug-cc-pVTZ          selected for orbital group  1
 Library entry C      D aug-cc-pVTZ          selected for orbital group  1
 Library entry C      F aug-cc-pVTZ          selected for orbital group  1
 Library entry O      S aug-cc-pVTZ          selected for orbital group  2
 Library entry O      P aug-cc-pVTZ          selected for orbital group  2
 Library entry O      D aug-cc-pVTZ          selected for orbital group  2
 Library entry O      F aug-cc-pVTZ          selected for orbital group  2
 Library entry H      S aug-cc-pVTZ          selected for orbital group  3
 Library entry H      P aug-cc-pVTZ          selected for orbital group  3
 Library entry H      D aug-cc-pVTZ          selected for orbital group  3

1PROGRAM * SEWARD (Integral evaluation for generally contracted gaussian basis sets)     Author: Roland Lindh, 1990

 Geometry written to block  1 of record 700


 Point group  C1  



 ATOMIC COORDINATES

 NR  ATOM    CHARGE       X              Y              Z

   1  C       6.00   -3.500276963   -0.832306020    0.001977042
   2  O       8.00   -3.094771093    1.625277576   -0.000320356
   3  O       8.00   -1.884613914   -2.486292150   -0.000621240
   4  H       1.00   -5.519921198   -1.272458720   -0.000593036
   5  H       1.00   -1.242763074    1.957110245   -0.000447708
   6  C       6.00    3.500929737    0.829239946    0.001975862
   7  O       8.00    3.093908510   -1.620082502   -0.000318731
   8  O       8.00    1.886161822    2.476161521   -0.000612722
   9  H       1.00    5.519761838    1.274299314   -0.000597474
  10  H       1.00    1.241584336   -1.950949207   -0.000441636

 Bond lengths in Bohr (Angstrom)

 1-2  2.490814610  1-3  2.312151370  1-4  2.067051968  2-5  1.881501166  6-7  2.482912000
     ( 1.318082323)     ( 1.223537809)     ( 1.093836791)     ( 0.995647536)     ( 1.313900442)

  6- 8  2.306476273   6- 9  2.067309245   7-10  1.881642272
       ( 1.220534677)       ( 1.093972936)       ( 0.995722206)

 Bond angles

  1-2-5  109.52763964   2-1-3  126.30191758   2-1-4  111.66394863   3-1-4  122.03377287

  6- 7-10  109.56252659   7- 6- 8  126.12965802   7- 6- 9  111.86714868   8- 6- 9  122.00283219

 NUCLEAR CHARGE:                   48
 NUMBER OF PRIMITIVE AOS:         510
 NUMBER OF SYMMETRY AOS:          448
 NUMBER OF CONTRACTIONS:          368   ( 368A   )
 NUMBER OF CORE ORBITALS:           6   (   6A   )
 NUMBER OF VALENCE ORBITALS:       28   (  28A   )


 NUCLEAR REPULSION ENERGY  235.53095641


 Eigenvalues of metric

         1 0.341E-04 0.374E-04 0.557E-04 0.628E-04 0.145E-03 0.169E-03 0.226E-03 0.231E-03


 Contracted 2-electron integrals neglected if value below      1.0D-16
 AO integral compression algorithm  1   Integral accuracy      1.0D-16

     14482.932 MB (compressed) written to integral file ( 71.4%)

     Node minimum: 4523.295 MB, node maximum: 4981.785 MB


 NUMBER OF SORTED TWO-ELECTRON INTEGRALS:  768345084.     BUFFER LENGTH:  32768
 NUMBER OF SEGMENTS:  25  SEGMENT LENGTH:   31997262      RECORD LENGTH: 524288

 Memory used in sort:      32.55 MW

 SORT1 READ  2536126710. AND WROTE   729778625. INTEGRALS IN   2100 RECORDS. CPU TIME:   175.19 SEC, REAL TIME:   208.34 SEC
 SORT2 READ  2190292005. AND WROTE  2304967356. INTEGRALS IN  56967 RECORDS. CPU TIME:     7.64 SEC, REAL TIME:   243.01 SEC

 Node minimum:   768299820.  Node maximum:   768345084. integrals

 OPERATOR DM      FOR CENTER  0  COORDINATES:    0.000000    0.000000    0.000000


 **********************************************************************************************************************************
 DATASETS  * FILE   NREC   LENGTH (MB)   RECORD NAMES
              1      18        7.72       500      610      700      900      950      970     1000      129      960     1100   
                                          VAR    BASINP    GEOM    SYMINP    ZMAT    AOBASIS   BASIS     P2S    ABASIS      S 
                                         1400     1410     1200     1210     1080     1600     1650     1700   
                                           T        V       H0       H01     AOSYM     SMH    MOLCAS    OPER   

 PROGRAMS   *        TOTAL       INT
 CPU TIMES  *       213.76    213.70
 REAL TIME  *       516.06 SEC
 DISK USED  *        40.63 GB      
 GA USED    *         0.01 MB       (max)       0.00 MB       (current)
 **********************************************************************************************************************************

1PROGRAM * RHF-SCF (CLOSED SHELL)       Authors: W. Meyer, H.-J. Werner


 NUMBER OF ELECTRONS:      24+   24-    SPACE SYMMETRY=1    SPIN SYMMETRY: Singlet 
 CONVERGENCE THRESHOLDS:    1.00E-10 (Density)    1.00E-13 (Energy)
 MAX. NUMBER OF ITERATIONS:      200
 INTERPOLATION TYPE:            DIIS
 INTERPOLATION STEPS:              2 (START)      1 (STEP)
 LEVEL SHIFTS:                  0.00 (CLOSED)  0.00 (OPEN) 



 Orbital guess generated from atomic densities. Full valence occupancy:   34

 Molecular orbital dump at record        2100.2

 ITERATION    DDIFF          GRAD             ENERGY        2-EL.EN.            DIPOLE MOMENTS         DIIS
    1      0.000D+00      0.000D+00      -377.56684093    747.032662   -0.00445    0.00038    0.00567    0
    2      0.000D+00      0.322D-02      -377.65472476    743.935829   -0.00122   -0.00086   -0.00000    1
    3      0.526D-02      0.211D-02      -377.70442454    746.291500   -0.00340    0.00110    0.00222    2
    4      0.206D-02      0.283D-03      -377.70600668    745.935959   -0.00247    0.00006    0.00213    3
    5      0.426D-03      0.125D-03      -377.70629161    745.976426   -0.00283    0.00078    0.00210    4
    6      0.165D-03      0.359D-04      -377.70633902    746.022192   -0.00265    0.00054    0.00210    5
    7      0.620D-04      0.154D-04      -377.70634999    746.003236   -0.00268    0.00066    0.00210    6
    8      0.336D-04      0.504D-05      -377.70635136    746.009498   -0.00263    0.00057    0.00210    7
    9      0.131D-04      0.165D-05      -377.70635149    746.008132   -0.00267    0.00066    0.00210    8
   10      0.405D-05      0.499D-06      -377.70635150    746.008289   -0.00263    0.00058    0.00210    8
   11      0.131D-05      0.192D-06      -377.70635150    746.008303   -0.00266    0.00064    0.00210    8
   12      0.384D-06      0.884D-07      -377.70635150    746.008266   -0.00265    0.00061    0.00210    9
   13      0.157D-06      0.165D-07      -377.70635150    746.008267   -0.00265    0.00061    0.00210    8
   14      0.353D-07      0.583D-08      -377.70635150    746.008268   -0.00265    0.00061    0.00210    8
   15      0.979D-08      0.246D-08      -377.70635150    746.008269   -0.00265    0.00061    0.00210    8
   16      0.425D-08      0.695D-09      -377.70635150    746.008268   -0.00265    0.00061    0.00210    8
   17      0.107D-08      0.305D-09      -377.70635150    746.008268   -0.00265    0.00061    0.00210    8
   18      0.476D-09      0.899D-10      -377.70635150    746.008268   -0.00265    0.00061    0.00210    8
   19      0.186D-09      0.376D-10      -377.70635150    746.008268   -0.00265    0.00061    0.00210    8
   20      0.885D-10      0.168D-10      -377.70635150    746.008268   -0.00265    0.00061    0.00210    8
   21      0.404D-10      0.749D-11      -377.70635150    746.008268   -0.00265    0.00061    0.00210    9
   22      0.237D-10      0.270D-11      -377.70635150    746.008268   -0.00265    0.00061    0.00210    9
   23      0.111D-10      0.160D-11      -377.70635150    746.008268   -0.00265    0.00061    0.00210    9
   24      0.619D-11      0.307D-12      -377.70635150    746.008268   -0.00265    0.00061    0.00210    9
   25      0.731D-11      0.170D-12      -377.70635150    746.008268   -0.00265    0.00061    0.00210    9
   26      0.729D-11      0.133D-12      -377.70635150    746.008268   -0.00265    0.00061    0.00210    9
   27      0.443D-11      0.103D-12      -377.70635150    746.008268   -0.00265    0.00061    0.00210    9
   28      0.288D-11      0.125D-12      -377.70635150    746.008268   -0.00265    0.00061    0.00210    9
   29      0.190D-11      0.998D-13      -377.70635150    746.008268   -0.00265    0.00061    0.00210    9
   30      0.134D-11      0.103D-12      -377.70635150    746.008268   -0.00265    0.00061    0.00210    9
   31      0.126D-11      0.104D-12      -377.70635150    746.008268   -0.00265    0.00061    0.00210    9
   32      0.740D-12      0.999D-13      -377.70635150    746.008268   -0.00265    0.00061    0.00210    9
   33      0.130D-11      0.999D-13      -377.70635150    746.008268   -0.00265    0.00061    0.00210    9
   34      0.646D-12      0.846D-13      -377.70635150    746.008268   -0.00265    0.00061    0.00210    9
   35      0.112D-11      0.952D-13      -377.70635150    746.008268   -0.00265    0.00061    0.00210    9
   36      0.130D-11      0.915D-13      -377.70635150    746.008268   -0.00265    0.00061    0.00210    9
   37      0.218D-11      0.109D-12      -377.70635150    746.008268   -0.00265    0.00061    0.00210    9
   38      0.140D-11      0.964D-13      -377.70635150    746.008268   -0.00265    0.00061    0.00210    9
   39      0.171D-11      0.942D-13      -377.70635150    746.008268   -0.00265    0.00061    0.00210    9
   40      0.127D-11      0.971D-13      -377.70635150    746.008268   -0.00265    0.00061    0.00210    9
   41      0.136D-11      0.986D-13      -377.70635150    746.008268   -0.00265    0.00061    0.00210    9
   42      0.819D-12      0.879D-13      -377.70635150    746.008268   -0.00265    0.00061    0.00210    9
   43      0.522D-12      0.916D-13      -377.70635150    746.008268   -0.00265    0.00061    0.00210    9
   44      0.724D-12      0.107D-12      -377.70635150    746.008268   -0.00265    0.00061    0.00210    9
   45      0.129D-11      0.915D-13      -377.70635150    746.008268   -0.00265    0.00061    0.00210    9
   46      0.114D-11      0.991D-13      -377.70635150    746.008268   -0.00265    0.00061    0.00210    9
   47      0.987D-12      0.935D-13      -377.70635150    746.008268   -0.00265    0.00061    0.00210    9
   48      0.179D-11      0.914D-13      -377.70635150    746.008268   -0.00265    0.00061    0.00210    9
   49      0.163D-11      0.115D-12      -377.70635150    746.008268   -0.00265    0.00061    0.00210    0

 Final occupancy:  24

 !RHF STATE 1.1 Energy               -377.706351503149
 Nuclear energy                       235.53095641
 One-electron energy                 -986.24144212
 Two-electron energy                  373.00413420
 Virial quotient                       -1.00182855
 !RHF STATE 1.1 Dipole moment          -0.00264913     0.00061458     0.00210087
 Dipole moment /Debye                  -0.00673298     0.00156201     0.00533954

 Orbital energies:

         1.1          2.1          3.1          4.1          5.1          6.1          7.1          8.1          9.1         10.1
    -20.617840   -20.617468   -20.577747   -20.576786   -11.409807   -11.408441    -1.485640    -1.472707    -1.387580    -1.373547

        11.1         12.1         13.1         14.1         15.1         16.1         17.1         18.1         19.1         20.1
     -0.919620    -0.883966    -0.769486    -0.733752    -0.724924    -0.695865    -0.645550    -0.635089    -0.621905    -0.581381

        21.1         22.1         23.1         24.1         25.1         26.1
     -0.507396    -0.498466    -0.495798    -0.475827     0.029625     0.033632


 **********************************************************************************************************************************
 DATASETS  * FILE   NREC   LENGTH (MB)   RECORD NAMES
              1      18        7.72       500      610      700      900      950      970     1000      129      960     1100   
                                          VAR    BASINP    GEOM    SYMINP    ZMAT    AOBASIS   BASIS     P2S    ABASIS      S 
                                         1400     1410     1200     1210     1080     1600     1650     1700   
                                           T        V       H0       H01     AOSYM     SMH    MOLCAS    OPER   

              2       3        3.18       700     1000     2100   
                                         GEOM     BASIS     RHF  

 PROGRAMS   *        TOTAL       RHF       INT
 CPU TIMES  *       630.38    416.62    213.70
 REAL TIME  *      1021.18 SEC
 DISK USED  *        40.71 GB      
 SF USED    *         0.54 MB      
 GA USED    *         0.01 MB       (max)       0.00 MB       (current)
 **********************************************************************************************************************************


1PROGRAM * MP2 (Closed-shell)     Authors: C. Hampel, H.-J. Werner, 1991, M. Deegan, P.J. Knowles, 1992


 Convergence thresholds:  THRVAR = 1.00D-08  THRDEN = 1.00D-12

 Number of core orbitals:           6 (   6 )
 Number of closed-shell orbitals:  18 (  18 )
 Number of external orbitals:     344 ( 344 )

 Molecular orbitals read from record     2100.2  Type=RHF/CANONICAL (state 1.1)

 Number of N-1 electron functions:              18
 Number of N-2 electron functions:             171
 Number of singly external CSFs:              6192
 Number of doubly external CSFs:          19173528
 Total number of CSFs:                    19179721

 Length of J-op  integral file:               0.00 MB
 Length of K-op  integral file:               9.32 MB

 Integral transformation finished. Total CPU:  59.97 sec, npass=  1  Memory used:  40.69 MW

 Memory needed for MP2:                      0.66 MW

 SCS-MP2 correlation energy:           -1.263901004713   (PS=  1.200000  PT=  0.333333)
 SCS-MP2 total energy:               -378.970252507863


  Reference energy                   -377.706351503149
  MP2 singlet pair energy              -0.794155896032
  MP2 triplet pair energy              -0.499683100943
  MP2 correlation energy               -1.293838996974

 !MP2 total energy                   -379.000190500124


 **********************************************************************************************************************************
 DATASETS  * FILE   NREC   LENGTH (MB)   RECORD NAMES
              1      19      288.54       500      610      700      900      950      970     1000      129      960     1100   
                                          VAR    BASINP    GEOM    SYMINP    ZMAT    AOBASIS   BASIS     P2S    ABASIS      S 
                                         1400     1410     1200     1210     1080     1600     1650     1700     1380   
                                           T        V       H0       H01     AOSYM     SMH    MOLCAS    OPER     JKOP   

              2       3        3.18       700     1000     2100   
                                         GEOM     BASIS     RHF  

 PROGRAMS   *        TOTAL       MP2       RHF       INT
 CPU TIMES  *       691.76     61.38    416.62    213.70
 REAL TIME  *      1084.43 SEC
 DISK USED  *        40.71 GB      
 SF USED    *       698.17 MB      
 GA USED    *         0.01 MB       (max)       0.00 MB       (current)
 **********************************************************************************************************************************

        MP2             RHF-SCF 
   -379.00019050   -377.70635150
 **********************************************************************************************************************************
 Variable memory released
