
 Primary working directories    : /tmp/943186.282.gen6.q
 Secondary working directories  : /tmp/943186.282.gen6.q
 Wavefunction directory         : /home/vulcan/mel64643/wfu/
 Main file repository           : /tmp/943186.282.gen6.q/

 ARCHNAME  : Linux/x86_64
 FC        : /opt/intel/compilers_and_libraries_2016.1.150/linux/bin/intel64/ifort
 FCVERSION : 16.0.1
 BLASLIB   : -mkl
 id        : ccgc

 Nodes     nprocs
 n077         1
 ga_uses_ma=false, calling ma_init with nominal heap.
 GA-space will be limited to   8.0 MW (determined by -G option)

 Using customized tuning parameters: mindgm=10; mindgv=16; mindgc=4; mindgr=1; noblas=0; mincuda=1000; minvec=7
 default implementation of scratch files=df  

 ***,Optimization of h2o_2
 memory,1000,m
 gthresh,energy=1.0d-12,orbital=1.0d-10,oneint=1.0d-16,twoint=1.0d-16,optgrad=1.0d-6,compress=1.0d-13
 geomtyp=xyz
 
 bohr
 geometry = {
  C    0.0007217048   -3.4237947013   -0.0017797528
  H   -0.9712687928   -2.7345307740   -1.6820194375
  H   -0.9689804698   -2.7346583752    1.6798339079
  H    1.9413218393   -2.7330545984   -0.0030744496
  H    0.0018091439   -5.4836062707   -0.0018586744
  C   -0.0006905326    3.4197032306   -0.0015190423
  H   -0.0052569054    5.4844851830   -0.0116508426
  H    0.9724955261    2.7256035267   -1.6729305750
  H    0.9701078608    2.7387462366    1.6889032210
  H   -1.9402593743    2.7411065427    0.0060956456
 }
 
 basis=VDZ
 {rhf;maxit,200}
 {ccsd(t);maxit,200}

 Variables initialized (661), CPU time= 0.00 sec
 Commands  initialized (458), CPU time= 0.01 sec, 486 directives.
 Default parameters read. Elapsed time= 0.03 sec

 Checking input...
 Passed
1


                                         ***  PROGRAM SYSTEM MOLPRO  ***
                         Copyright, University College Cardiff Consultants Limited, 2008

                                    Version 2010.1 linked May 16 2016 07:17:05


 **********************************************************************************************************************************
 LABEL *   Optimization of h2o_2                                                         
 Linux-4.4.3/n077(x86_64) 64 bit mpp version                                             DATE: 23-Oct-23          TIME: 12:37:33  
 **********************************************************************************************************************************

 SHA1:             9e8077add272b0f3cad6f7df79ec5211205f459d
 **********************************************************************************************************************************

 THRESHOLDS:

 ZERO    =  1.00D-12  ONEINT  =  1.00D-16  TWOINT  =  1.00D-16  PREFAC  =  1.00D-14  LOCALI  =  1.00D-09  EORDER  =  1.00D-04
 ENERGY  =  1.00D-12  ETEST   =  0.00D+00  EDENS   =  0.00D+00  THRDEDEF=  1.00D-06  GRADIENT=  1.00D-02  STEP    =  1.00D-03
 ORBITAL =  1.00D-10  CIVEC   =  1.00D-05  COEFF   =  1.00D-04  PRINTCI =  5.00D-02  PUNCHCI =  9.90D+01  OPTGRAD =  1.00D-06
 OPTENERG=  1.00D-06  OPTSTEP =  3.00D-04  THRGRAD =  1.00D-10  COMPRESS=  1.00D-13  VARMIN  =  1.00D-07  VARMAX  =  1.00D-03
 THRDOUB =  0.00D+00  THRDIV  =  1.00D-05  THRRED  =  1.00D-07  THRPSP  =  1.00D+00  THRDC   =  1.00D-10  THRCS   =  1.00D-10
 THRNRM  =  1.00D-08  THREQ   =  0.00D+00  THRDE   =  1.00D+00  THRREF  =  1.00D-05  SPARFAC =  1.00D+00  THRDLP  =  1.00D-07
 THRDIA  =  1.00D-10  THRDLS  =  1.00D-07  THRGPS  =  0.00D+00  THRKEX  =  0.00D+00  THRDIS  =  2.00D-01  THRVAR  =  1.00D-10
 THRLOC  =  1.00D-06  THRGAP  =  1.00D-06  THRLOCT = -1.00D+00  THRGAPT = -1.00D+00  THRORB  =  1.00D-06  THRMLTP =  0.00D+00
 THRCPQCI=  1.00D-10  KEXTA   =  0.00D+00  THRCOARS=  0.00D+00  SYMTOL  =  1.00D-06  GRADTOL =  1.00D-06  THROVL  =  1.00D-08
 THRORTH =  1.00D-08  GRID    =  1.00D-06  GRIDMAX =  1.00D-03  DTMAX   =  0.00D+00

 SETTING GEOMTYP        =    XYZ
 ZUNIT=BOHR
 

 Variable memory set to 1000000000 words,  buffer space   230000 words

 SETTING BASIS          =    VDZ


 Recomputing integrals since basis changed


 Using spherical harmonics

 Library entry C      S cc-pVDZ              selected for orbital group  1
 Library entry C      P cc-pVDZ              selected for orbital group  1
 Library entry C      D cc-pVDZ              selected for orbital group  1
 Library entry H      S cc-pVDZ              selected for orbital group  2
 Library entry H      P cc-pVDZ              selected for orbital group  2

1PROGRAM * SEWARD (Integral evaluation for generally contracted gaussian basis sets)     Author: Roland Lindh, 1990

 Geometry written to block  1 of record 700


 Point group  C1  



 ATOMIC COORDINATES

 NR  ATOM    CHARGE       X              Y              Z

   1  C       6.00    0.000721705   -3.423794701   -0.001779753
   2  H       1.00   -0.971268793   -2.734530774   -1.682019437
   3  H       1.00   -0.968980470   -2.734658375    1.679833908
   4  H       1.00    1.941321839   -2.733054598   -0.003074450
   5  H       1.00    0.001809144   -5.483606271   -0.001858674
   6  C       6.00   -0.000690533    3.419703231   -0.001519042
   7  H       1.00   -0.005256905    5.484485183   -0.011650843
   8  H       1.00    0.972495526    2.725603527   -1.672930575
   9  H       1.00    0.970107861    2.738746237    1.688903221
  10  H       1.00   -1.940259374    2.741106543    0.006095646

 Bond lengths in Bohr (Angstrom)

 1-2  2.059867881  1-3  2.059867881  1-4  2.059867095  1-5  2.059811858  6-7  2.064811860
     ( 1.090035136)     ( 1.090035136)     ( 1.090034720)     ( 1.090005490)     ( 1.092651377)

  6- 8  2.054867883   6- 9  2.064867884   6-10  2.054867086
       ( 1.087389251)       ( 1.092681024)       ( 1.087388829)

 Bond angles

  2-1-3  109.37992579   2-1-4  109.37980975   2-1-5  109.56240831   3-1-4  109.37980975

  3-1-5  109.56240831   4-1-5  109.56250040   7-6-8  109.56246783   7-6-9  109.56246776

  7- 6-10  109.15741768   8- 6- 9  109.37998522   8- 6-10  109.78501141   9- 6-10  109.37986937

 NUCLEAR CHARGE:                   20
 NUMBER OF PRIMITIVE AOS:         110
 NUMBER OF SYMMETRY AOS:          108
 NUMBER OF CONTRACTIONS:           68   (  68A   )
 NUMBER OF CORE ORBITALS:           2   (   2A   )
 NUMBER OF VALENCE ORBITALS:       16   (  16A   )


 NUCLEAR REPULSION ENERGY   41.33791807


 Eigenvalues of metric

         1 0.113E-01 0.127E-01 0.347E-01 0.349E-01 0.357E-01 0.376E-01 0.382E-01 0.384E-01


 Contracted 2-electron integrals neglected if value below      1.0D-16
 AO integral compression algorithm  1   Integral accuracy      1.0D-16

     21.758 MB (compressed) written to integral file ( 86.7%)

     Node minimum: 21.758 MB, node maximum: 21.758 MB


 NUMBER OF SORTED TWO-ELECTRON INTEGRALS:    2753031.     BUFFER LENGTH:  32768
 NUMBER OF SEGMENTS:   1  SEGMENT LENGTH:    2753031      RECORD LENGTH: 524288

 Memory used in sort:       3.31 MW

 SORT1 READ     3104305. AND WROTE     2687795. INTEGRALS IN      8 RECORDS. CPU TIME:     0.03 SEC, REAL TIME:     0.04 SEC
 SORT2 READ     2687795. AND WROTE     2753031. INTEGRALS IN     83 RECORDS. CPU TIME:     0.04 SEC, REAL TIME:     0.06 SEC

 FILE SIZES:   FILE 1:    21.5 MBYTE,  FILE 4:    33.6 MBYTE,   TOTAL:     55.1 MBYTE

 OPERATOR DM      FOR CENTER  0  COORDINATES:    0.000000    0.000000    0.000000


 **********************************************************************************************************************************
 DATASETS  * FILE   NREC   LENGTH (MB)   RECORD NAMES
              1      19       21.57       500      610      700      900      950      970     1000      129      960     1100   
                                          VAR    BASINP    GEOM    SYMINP    ZMAT    AOBASIS   BASIS     P2S    ABASIS      S 
                                         1400     1410     1200     1210     1080     1600     1650     1300     1700   
                                           T        V       H0       H01     AOSYM     SMH    MOLCAS    ERIS     OPER   

 PROGRAMS   *        TOTAL       INT
 CPU TIMES  *         0.40      0.36
 REAL TIME  *         0.61 SEC
 DISK USED  *        77.63 MB      
 GA USED    *         0.00 MB       (max)       0.00 MB       (current)
 **********************************************************************************************************************************

1PROGRAM * RHF-SCF (CLOSED SHELL)       Authors: W. Meyer, H.-J. Werner


 NUMBER OF ELECTRONS:      10+   10-    SPACE SYMMETRY=1    SPIN SYMMETRY: Singlet 
 CONVERGENCE THRESHOLDS:    1.00E-10 (Density)    1.00E-13 (Energy)
 MAX. NUMBER OF ITERATIONS:      200
 INTERPOLATION TYPE:            DIIS
 INTERPOLATION STEPS:              2 (START)      1 (STEP)
 LEVEL SHIFTS:                  0.00 (CLOSED)  0.00 (OPEN) 



 Orbital guess generated from atomic densities. Full valence occupancy:   18

 Molecular orbital dump at record        2100.2

 ITERATION    DDIFF          GRAD             ENERGY        2-EL.EN.            DIPOLE MOMENTS         DIIS
    1      0.000D+00      0.000D+00       -80.35960770    134.822899    0.00043    0.00407    0.00356    0
    2      0.000D+00      0.637D-02       -80.39227993    132.541625   -0.00090    0.00032   -0.00044    1
    3      0.132D-01      0.234D-02       -80.39614241    133.343307   -0.00095    0.00032   -0.00031    2
    4      0.460D-02      0.630D-03       -80.39667110    133.206379   -0.00110   -0.00018   -0.00075    3
    5      0.165D-02      0.664D-04       -80.39667562    133.212389   -0.00112   -0.00025   -0.00080    4
    6      0.233D-03      0.393D-05       -80.39667564    133.212252   -0.00112   -0.00026   -0.00081    5
    7      0.205D-04      0.240D-06       -80.39667564    133.212248   -0.00112   -0.00026   -0.00081    5
    8      0.764D-06      0.417D-07       -80.39667564    133.212250   -0.00112   -0.00026   -0.00081    4
    9      0.107D-06      0.115D-07       -80.39667564    133.212250   -0.00112   -0.00026   -0.00081    4
   10      0.377D-07      0.259D-08       -80.39667564    133.212251   -0.00112   -0.00026   -0.00081    5
   11      0.872D-08      0.395D-09       -80.39667564    133.212251   -0.00112   -0.00026   -0.00081    5
   12      0.947D-09      0.111D-09       -80.39667564    133.212251   -0.00112   -0.00026   -0.00081    6
   13      0.310D-09      0.258D-10       -80.39667564    133.212251   -0.00112   -0.00026   -0.00081    6
   14      0.763D-10      0.489D-11       -80.39667564    133.212251   -0.00112   -0.00026   -0.00081    6
   15      0.179D-10      0.127D-11       -80.39667564    133.212251   -0.00112   -0.00026   -0.00081    0

 Final occupancy:  10

 !RHF STATE 1.1 Energy                -80.396675644218
 Nuclear energy                        41.33791807
 One-electron energy                 -188.34071909
 Two-electron energy                   66.60612538
 Virial quotient                       -1.00229848
 !RHF STATE 1.1 Dipole moment          -0.00112041    -0.00026390    -0.00080900
 Dipole moment /Debye                  -0.00284761    -0.00067071    -0.00205613

 Orbital energies:

         1.1          2.1          3.1          4.1          5.1          6.1          7.1          8.1          9.1         10.1
    -11.215309   -11.215293    -0.944254    -0.938397    -0.549177    -0.546236    -0.545073    -0.538787    -0.537766    -0.533942

        11.1         12.1
      0.172438     0.229232


 **********************************************************************************************************************************
 DATASETS  * FILE   NREC   LENGTH (MB)   RECORD NAMES
              1      19       21.57       500      610      700      900      950      970     1000      129      960     1100   
                                          VAR    BASINP    GEOM    SYMINP    ZMAT    AOBASIS   BASIS     P2S    ABASIS      S 
                                         1400     1410     1200     1210     1080     1600     1650     1300     1700   
                                           T        V       H0       H01     AOSYM     SMH    MOLCAS    ERIS     OPER   

              2       3        0.51       700     1000     2100   
                                         GEOM     BASIS     RHF  

 PROGRAMS   *        TOTAL       RHF       INT
 CPU TIMES  *         0.68      0.28      0.36
 REAL TIME  *         0.92 SEC
 DISK USED  *        77.63 MB      
 GA USED    *         0.00 MB       (max)       0.00 MB       (current)
 **********************************************************************************************************************************


1PROGRAM * CCSD (Closed-shell coupled cluster)     Authors: C. Hampel, H.-J. Werner, 1991, M. Deegan, P.J. Knowles, 1992


 Convergence thresholds:  THRVAR = 1.00D-08  THRDEN = 1.00D-12

 CCSD(T)     terms to be evaluated (factor= 1.000)


 Number of core orbitals:           2 (   2 )
 Number of closed-shell orbitals:   8 (   8 )
 Number of external orbitals:      58 (  58 )

 Molecular orbitals read from record     2100.2  Type=RHF/CANONICAL (state 1.1)

 Number of N-1 electron functions:               8
 Number of N-2 electron functions:              36
 Number of singly external CSFs:               464
 Number of doubly external CSFs:            107880
 Total number of CSFs:                      108345

 Length of J-op  integral file:               0.00 MB
 Length of K-op  integral file:               0.35 MB
 Length of 3-ext integral record:             0.00 MB

 Memory could be reduced to 2.66 Mwords without degradation in triples

 Integral transformation finished. Total CPU:   0.06 sec, npass=  1  Memory used:   1.86 MW

 Reference energy:                    -80.39667564

 MP2 singlet pair energy:              -0.23207653
 MP2 triplet pair energy:              -0.09154680
 MP2 correlation energy:               -0.32362332
 MP2 total energy:                    -80.72029897

 SCS-MP2 correlation energy:           -0.33545428   (PS=  1.200000  PT=  0.333333)
 SCS-MP2 total energy:                -80.73212993

 ITER.      SQ.NORM     CORR.ENERGY   TOTAL ENERGY   ENERGY CHANGE        DEN1      VAR(S)    VAR(P)  DIIS     TIME
   1      1.13420953    -0.36752509   -80.76420074    -0.04390177    -0.03297778  0.50D-03  0.24D-02  1  1     0.18
   2      1.14681955    -0.37032255   -80.76699819    -0.00279745    -0.01276649  0.15D-04  0.96D-04  2  2     0.30
   3      1.14861057    -0.37049363   -80.76716927    -0.00017108    -0.00095422  0.17D-05  0.56D-05  3  3     0.43
   4      1.14897819    -0.37051393   -80.76718957    -0.00002030    -0.00016574  0.25D-07  0.35D-06  4  4     0.55
   5      1.14902415    -0.37051145   -80.76718709     0.00000248    -0.00002394  0.18D-08  0.18D-07  5  5     0.67
   6      1.14902547    -0.37051139   -80.76718703     0.00000006    -0.00000011  0.19D-09  0.12D-08  6  6     0.80
   7      1.14902557    -0.37051165   -80.76718729    -0.00000026     0.00000012  0.13D-10  0.71D-10  6  1     0.93
   8      1.14902575    -0.37051164   -80.76718729     0.00000001    -0.00000013  0.15D-11  0.41D-11  6  2     1.06
   9      1.14902577    -0.37051163   -80.76718727     0.00000001    -0.00000003  0.15D-12  0.26D-12  6  3     1.18
  10      1.14902577    -0.37051163   -80.76718727     0.00000000     0.00000001  0.11D-13  0.23D-13  6  4     1.31
  11      1.14902576    -0.37051163   -80.76718727    -0.00000000     0.00000001  0.80D-15  0.19D-14  6  5     1.43
  12      1.14902575    -0.37051163   -80.76718727    -0.00000000     0.00000000  0.43D-16  0.23D-15  6  6     1.56
  13      1.14902575    -0.37051163   -80.76718727    -0.00000000     0.00000000  0.33D-17  0.28D-16  6  1     1.68
  14      1.14902575    -0.37051163   -80.76718727     0.00000000     0.00000000  0.58D-18  0.37D-17  6  2     1.81
  15      1.14902575    -0.37051163   -80.76718727     0.00000000     0.00000000  0.71D-19  0.37D-18  6  3     1.93
  16      1.14902575    -0.37051163   -80.76718727    -0.00000000     0.00000000  0.15D-20  0.20D-19  6  5     2.06
  17      1.14902575    -0.37051163   -80.76718727    -0.00000000     0.00000000  0.18D-21  0.56D-21  6  4     2.18
  18      1.14902575    -0.37051163   -80.76718727     0.00000000    -0.00000000  0.45D-22  0.51D-22  6  6     2.31

 Norm of t1 vector:      0.03062706      S-energy:     0.00000000      T1 diagnostic:  0.00541415
                                                                       D1 diagnostic:  0.00881863


 Total CPU time for triples:      0.85 sec


 RESULTS
 =======

  Reference energy                    -80.396675644218
  CCSD singlet pair energy             -0.281840502063
  CCSD triplet pair energy             -0.088671127167
  CCSD correlation energy              -0.370511629231

  Triples (T) contribution             -0.007535329533
  Total correlation energy             -0.378046958764

  CCSD total energy                   -80.767187273448
  CCSD[T] energy                      -80.774898803172
  CCSD-T energy                       -80.774628162677
 !CCSD(T) total energy                -80.774722602982

 Timing summary (sec):

 STEP                 CPU(USER)    SYS     CPU(TOT)    WALL
 Transformation          0.07      0.01      0.08      0.08
 CCSD iterations         2.24      0.12      2.36      2.38
 Triples                 0.85      0.02      0.87      0.87

 Program statistics:

 Available memory in ccsd:               999999644
 Min. memory needed in ccsd:                356281
 Max. memory used in ccsd:                  442401
 Max. memory used in cckext:                403930 (18 integral passes)



 **********************************************************************************************************************************
 DATASETS  * FILE   NREC   LENGTH (MB)   RECORD NAMES
              1      20       30.03       500      610      700      900      950      970     1000      129      960     1100   
                                          VAR    BASINP    GEOM    SYMINP    ZMAT    AOBASIS   BASIS     P2S    ABASIS      S 
                                         1400     1410     1200     1210     1080     1600     1650     1300     1700     1380   
                                           T        V       H0       H01     AOSYM     SMH    MOLCAS    ERIS     OPER     JKOP   

              2       3        0.51       700     1000     2100   
                                         GEOM     BASIS     RHF  

 PROGRAMS   *        TOTAL   CCSD(T)       RHF       INT
 CPU TIMES  *         3.85      3.17      0.28      0.36
 REAL TIME  *         4.28 SEC
 DISK USED  *        77.63 MB      
 GA USED    *         0.00 MB       (max)       0.00 MB       (current)
 **********************************************************************************************************************************

        CCSD(T)         RHF-SCF 
    -80.77472260    -80.39667564
 **********************************************************************************************************************************
 Variable memory released
