
 Primary working directories    : /tmp/944438.424.gen6.q
 Secondary working directories  : /tmp/944438.424.gen6.q
 Wavefunction directory         : /home/vulcan/mel64643/wfu/
 Main file repository           : /tmp/944438.424.gen6.q/

 ARCHNAME  : Linux/x86_64
 FC        : /opt/intel/compilers_and_libraries_2016.1.150/linux/bin/intel64/ifort
 FCVERSION : 16.0.1
 BLASLIB   : -mkl
 id        : ccgc

 Nodes     nprocs
 n087         1
 ga_uses_ma=false, calling ma_init with nominal heap.
 GA-space will be limited to   8.0 MW (determined by -G option)

 Using customized tuning parameters: mindgm=10; mindgv=16; mindgc=4; mindgr=1; noblas=0; mincuda=1000; minvec=7
 default implementation of scratch files=df  

 ***,Optimization of min3
 memory,1000,m
 gthresh,energy=1.0d-12,orbital=1.0d-10,oneint=1.0d-16,twoint=1.0d-16,optgrad=1.0d-6,compress=1.0d-13
 geomtyp=xyz
 
 
 
  bohr
  geometry = {
  C   -0.2871057237    2.4001057077   -2.1305147475
  C    0.7665360565   -0.0020974293   -0.8940342637
  C    0.1931646667   -0.0047033564    1.8337507117
  N   -0.2956706363    0.0152281779    3.9768700315
  H    2.8259633086   -0.0017430334   -1.0646658441
  C   -0.2866515267   -2.4021823029   -2.1350070328
  H   -2.3476491527   -2.4534455771   -1.9629178376
  H    0.4814547843   -4.0967907980   -1.2562101778
  H    0.2025659843   -2.4145852060   -4.1357653747
  H   -2.3481129743    2.4506570967   -1.9583302571
  H    0.2021090784    2.4163443690   -4.1312462964
  H    0.4806801647    4.0932123518   -1.2485488241
 }
 
 basis=cc-pvdz
 {rhf;maxit,200}
 {ccsd(t);maxit,200}

 Variables initialized (661), CPU time= 0.01 sec
 Commands  initialized (458), CPU time= 0.00 sec, 486 directives.
 Default parameters read. Elapsed time= 0.04 sec

 Checking input...
 Passed
1


                                         ***  PROGRAM SYSTEM MOLPRO  ***
                         Copyright, University College Cardiff Consultants Limited, 2008

                                    Version 2010.1 linked May 16 2016 07:17:05


 **********************************************************************************************************************************
 LABEL *   Optimization of min3                                                          
 Linux-4.4.3/n087(x86_64) 64 bit mpp version                                             DATE: 27-Oct-23          TIME: 11:02:49  
 **********************************************************************************************************************************

 SHA1:             9e8077add272b0f3cad6f7df79ec5211205f459d
 **********************************************************************************************************************************

 THRESHOLDS:

 ZERO    =  1.00D-12  ONEINT  =  1.00D-16  TWOINT  =  1.00D-16  PREFAC  =  1.00D-14  LOCALI  =  1.00D-09  EORDER  =  1.00D-04
 ENERGY  =  1.00D-12  ETEST   =  0.00D+00  EDENS   =  0.00D+00  THRDEDEF=  1.00D-06  GRADIENT=  1.00D-02  STEP    =  1.00D-03
 ORBITAL =  1.00D-10  CIVEC   =  1.00D-05  COEFF   =  1.00D-04  PRINTCI =  5.00D-02  PUNCHCI =  9.90D+01  OPTGRAD =  1.00D-06
 OPTENERG=  1.00D-06  OPTSTEP =  3.00D-04  THRGRAD =  1.00D-10  COMPRESS=  1.00D-13  VARMIN  =  1.00D-07  VARMAX  =  1.00D-03
 THRDOUB =  0.00D+00  THRDIV  =  1.00D-05  THRRED  =  1.00D-07  THRPSP  =  1.00D+00  THRDC   =  1.00D-10  THRCS   =  1.00D-10
 THRNRM  =  1.00D-08  THREQ   =  0.00D+00  THRDE   =  1.00D+00  THRREF  =  1.00D-05  SPARFAC =  1.00D+00  THRDLP  =  1.00D-07
 THRDIA  =  1.00D-10  THRDLS  =  1.00D-07  THRGPS  =  0.00D+00  THRKEX  =  0.00D+00  THRDIS  =  2.00D-01  THRVAR  =  1.00D-10
 THRLOC  =  1.00D-06  THRGAP  =  1.00D-06  THRLOCT = -1.00D+00  THRGAPT = -1.00D+00  THRORB  =  1.00D-06  THRMLTP =  0.00D+00
 THRCPQCI=  1.00D-10  KEXTA   =  0.00D+00  THRCOARS=  0.00D+00  SYMTOL  =  1.00D-06  GRADTOL =  1.00D-06  THROVL  =  1.00D-08
 THRORTH =  1.00D-08  GRID    =  1.00D-06  GRIDMAX =  1.00D-03  DTMAX   =  0.00D+00

 SETTING GEOMTYP        =    XYZ
 ZUNIT=BOHR
 

 Variable memory set to 1000000000 words,  buffer space   230000 words

 SETTING BASIS          =    CC-PVDZ


 Recomputing integrals since basis changed


 Using spherical harmonics

 Library entry C      S cc-pVDZ              selected for orbital group  1
 Library entry C      P cc-pVDZ              selected for orbital group  1
 Library entry C      D cc-pVDZ              selected for orbital group  1
 Library entry N      S cc-pVDZ              selected for orbital group  2
 Library entry N      P cc-pVDZ              selected for orbital group  2
 Library entry N      D cc-pVDZ              selected for orbital group  2
 Library entry H      S cc-pVDZ              selected for orbital group  3
 Library entry H      P cc-pVDZ              selected for orbital group  3

1PROGRAM * SEWARD (Integral evaluation for generally contracted gaussian basis sets)     Author: Roland Lindh, 1990

 Geometry written to block  1 of record 700


 Point group  C1  



 ATOMIC COORDINATES

 NR  ATOM    CHARGE       X              Y              Z

   1  C       6.00   -0.287105724    2.400105708   -2.130514747
   2  C       6.00    0.766536057   -0.002097429   -0.894034264
   3  C       6.00    0.193164667   -0.004703356    1.833750712
   4  N       7.00   -0.295670636    0.015228178    3.976870031
   5  H       1.00    2.825963309   -0.001743033   -1.064665844
   6  C       6.00   -0.286651527   -2.402182303   -2.135007033
   7  H       1.00   -2.347649153   -2.453445577   -1.962917838
   8  H       1.00    0.481454784   -4.096790798   -1.256210178
   9  H       1.00    0.202565984   -2.414585206   -4.135765375
  10  H       1.00   -2.348112974    2.450657097   -1.958330257
  11  H       1.00    0.202109078    2.416344369   -4.131246296
  12  H       1.00    0.480680165    4.093212352   -1.248548824

 Bond lengths in Bohr (Angstrom)

  1- 2  2.899935327   1-10  2.068804928   1-11  2.059738223   1-12  2.057661092   2- 3  2.787395274
       ( 1.534579682)       ( 1.094764418)       ( 1.089966524)       ( 1.088867354)       ( 1.475026051)

 2-5  2.066483939  2-6  2.899935327  3-4  2.198253315  6-7  2.068804928  6-8  2.057661092
     ( 1.093536203)     ( 1.534579683)     ( 1.163265554)     ( 1.094764418)     ( 1.088867354)

 6-9  2.059738223
     ( 1.089966524)

 Bond angles

  1- 2- 3  110.07805273   1- 2- 5  109.07122526   1- 2- 6  111.78757138   2- 1-10  110.28665483

  2- 1-11  109.53615541   2- 1-12  111.30134505   2- 3- 4  178.86604885   2- 6- 7  110.28665505

  2-6-8  111.30134577   2-6-9  109.53615449   3-2-5  106.60693499   3-2-6  110.07805272

  5-2-6  109.07122526   7-6-8  108.41810717   7-6-9  108.49789717   8-6-9  108.73761407

 10- 1-11  108.49789861  10- 1-12  108.41810543  11- 1-12  108.73761443

 NUCLEAR CHARGE:                   38
 NUMBER OF PRIMITIVE AOS:         184
 NUMBER OF SYMMETRY AOS:          179
 NUMBER OF CONTRACTIONS:          105   ( 105A   )
 NUMBER OF CORE ORBITALS:           5   (   5A   )
 NUMBER OF VALENCE ORBITALS:       27   (  27A   )


 NUCLEAR REPULSION ENERGY  158.94655125


 Eigenvalues of metric

         1 0.197E-02 0.463E-02 0.573E-02 0.601E-02 0.167E-01 0.195E-01 0.210E-01 0.265E-01


 Contracted 2-electron integrals neglected if value below      1.0D-16
 AO integral compression algorithm  1   Integral accuracy      1.0D-16

     130.286 MB (compressed) written to integral file ( 95.1%)

     Node minimum: 130.286 MB, node maximum: 130.286 MB


 NUMBER OF SORTED TWO-ELECTRON INTEGRALS:   15487395.     BUFFER LENGTH:  32768
 NUMBER OF SEGMENTS:   1  SEGMENT LENGTH:   15487395      RECORD LENGTH: 524288

 Memory used in sort:      16.04 MW

 SORT1 READ    17101285. AND WROTE    15442761. INTEGRALS IN     45 RECORDS. CPU TIME:     0.14 SEC, REAL TIME:     0.23 SEC
 SORT2 READ    15442761. AND WROTE    15487395. INTEGRALS IN    497 RECORDS. CPU TIME:     0.13 SEC, REAL TIME:     0.20 SEC

 FILE SIZES:   FILE 1:   120.9 MBYTE,  FILE 4:   188.8 MBYTE,   TOTAL:    309.7 MBYTE

 OPERATOR DM      FOR CENTER  0  COORDINATES:    0.000000    0.000000    0.000000


 **********************************************************************************************************************************
 DATASETS  * FILE   NREC   LENGTH (MB)   RECORD NAMES
              1      19      121.07       500      610      700      900      950      970     1000      129      960     1100   
                                          VAR    BASINP    GEOM    SYMINP    ZMAT    AOBASIS   BASIS     P2S    ABASIS      S 
                                         1400     1410     1200     1210     1080     1600     1650     1300     1700   
                                           T        V       H0       H01     AOSYM     SMH    MOLCAS    ERIS     OPER   

 PROGRAMS   *        TOTAL       INT
 CPU TIMES  *         1.56      1.52
 REAL TIME  *         1.96 SEC
 DISK USED  *       440.85 MB      
 GA USED    *         0.00 MB       (max)       0.00 MB       (current)
 **********************************************************************************************************************************

1PROGRAM * RHF-SCF (CLOSED SHELL)       Authors: W. Meyer, H.-J. Werner


 NUMBER OF ELECTRONS:      19+   19-    SPACE SYMMETRY=1    SPIN SYMMETRY: Singlet 
 CONVERGENCE THRESHOLDS:    1.00E-10 (Density)    1.00E-13 (Energy)
 MAX. NUMBER OF ITERATIONS:      200
 INTERPOLATION TYPE:            DIIS
 INTERPOLATION STEPS:              2 (START)      1 (STEP)
 LEVEL SHIFTS:                  0.00 (CLOSED)  0.00 (OPEN) 



 Orbital guess generated from atomic densities. Full valence occupancy:   32

 Molecular orbital dump at record        2100.2

 ITERATION    DDIFF          GRAD             ENERGY        2-EL.EN.            DIPOLE MOMENTS         DIIS
    1      0.000D+00      0.000D+00      -209.94376422    457.117159    0.48290   -0.01324   -2.25073    0
    2      0.000D+00      0.590D-02      -209.98971210    456.673211    0.15228   -0.00019   -1.29435    1
    3      0.124D-01      0.414D-02      -210.01004810    456.357364    0.30850   -0.00671   -1.70280    2
    4      0.554D-02      0.106D-02      -210.01229552    456.684383    0.29529   -0.00536   -1.61467    3
    5      0.196D-02      0.235D-03      -210.01241345    456.524949    0.28924   -0.00540   -1.62596    4
    6      0.425D-03      0.579D-04      -210.01242282    456.543959    0.28948   -0.00538   -1.62404    5
    7      0.169D-03      0.160D-04      -210.01242337    456.541963    0.28983   -0.00539   -1.62535    6
    8      0.307D-04      0.500D-05      -210.01242342    456.541633    0.28970   -0.00539   -1.62546    7
    9      0.110D-04      0.107D-05      -210.01242342    456.541568    0.28973   -0.00539   -1.62545    7
   10      0.262D-05      0.378D-06      -210.01242343    456.541665    0.28973   -0.00539   -1.62548    7
   11      0.950D-06      0.199D-06      -210.01242343    456.541632    0.28972   -0.00539   -1.62548    7
   12      0.671D-06      0.918D-07      -210.01242343    456.541649    0.28972   -0.00539   -1.62548    7
   13      0.430D-06      0.240D-07      -210.01242343    456.541642    0.28972   -0.00539   -1.62548    8
   14      0.114D-06      0.469D-08      -210.01242343    456.541642    0.28972   -0.00539   -1.62548    8
   15      0.147D-07      0.190D-08      -210.01242343    456.541642    0.28972   -0.00539   -1.62548    8
   16      0.363D-08      0.543D-09      -210.01242343    456.541642    0.28972   -0.00539   -1.62548    8
   17      0.115D-08      0.117D-09      -210.01242343    456.541642    0.28972   -0.00539   -1.62548    8
   18      0.262D-09      0.357D-10      -210.01242343    456.541642    0.28972   -0.00539   -1.62548    7
   19      0.832D-10      0.129D-10      -210.01242343    456.541642    0.28972   -0.00539   -1.62548    7
   20      0.322D-10      0.448D-11      -210.01242343    456.541642    0.28972   -0.00539   -1.62548    7
   21      0.117D-10      0.179D-11      -210.01242343    456.541642    0.28972   -0.00539   -1.62548    8
   22      0.521D-11      0.849D-12      -210.01242343    456.541642    0.28972   -0.00539   -1.62548    8
   23      0.305D-11      0.368D-12      -210.01242343    456.541642    0.28972   -0.00539   -1.62548    8
   24      0.170D-11      0.999D-13      -210.01242343    456.541642    0.28972   -0.00539   -1.62548    8
   25      0.475D-12      0.543D-13      -210.01242343    456.541642    0.28972   -0.00539   -1.62548    9
   26      0.245D-12      0.252D-13      -210.01242343    456.541642    0.28972   -0.00539   -1.62548    9
   27      0.107D-12      0.235D-13      -210.01242343    456.541642    0.28972   -0.00539   -1.62548    9
   28      0.644D-13      0.234D-13      -210.01242343    456.541642    0.28972   -0.00539   -1.62548    9
   29      0.616D-13      0.229D-13      -210.01242343    456.541642    0.28972   -0.00539   -1.62548    9
   30      0.535D-13      0.190D-13      -210.01242343    456.541642    0.28972   -0.00539   -1.62548    9
   31      0.371D-13      0.224D-13      -210.01242343    456.541642    0.28972   -0.00539   -1.62548    9
   32      0.300D-13      0.175D-13      -210.01242343    456.541642    0.28972   -0.00539   -1.62548    0

 Final occupancy:  19

 !RHF STATE 1.1 Energy               -210.012423425913
 Nuclear energy                       158.94655125
 One-electron energy                 -597.22979572
 Two-electron energy                  228.27082105
 Virial quotient                       -1.00163703
 !RHF STATE 1.1 Dipole moment           0.28972305    -0.00539319    -1.62547629
 Dipole moment /Debye                   0.73635430    -0.01370723    -4.13127804

 Orbital energies:

         1.1          2.1          3.1          4.1          5.1          6.1          7.1          8.1          9.1         10.1
    -15.572605   -11.290181   -11.274765   -11.250142   -11.250124    -1.212639    -1.107751    -0.960742    -0.876326    -0.703957

        11.1         12.1         13.1         14.1         15.1         16.1         17.1         18.1         19.1         20.1
     -0.642935    -0.596984    -0.572682    -0.563269    -0.530461    -0.523245    -0.520554    -0.447379    -0.447335     0.155293

        21.1
      0.190306


 **********************************************************************************************************************************
 DATASETS  * FILE   NREC   LENGTH (MB)   RECORD NAMES
              1      19      121.07       500      610      700      900      950      970     1000      129      960     1100   
                                          VAR    BASINP    GEOM    SYMINP    ZMAT    AOBASIS   BASIS     P2S    ABASIS      S 
                                         1400     1410     1200     1210     1080     1600     1650     1300     1700   
                                           T        V       H0       H01     AOSYM     SMH    MOLCAS    ERIS     OPER   

              2       3        0.68       700     1000     2100   
                                         GEOM     BASIS     RHF  

 PROGRAMS   *        TOTAL       RHF       INT
 CPU TIMES  *         4.40      2.84      1.52
 REAL TIME  *         5.20 SEC
 DISK USED  *       440.85 MB      
 GA USED    *         0.00 MB       (max)       0.00 MB       (current)
 **********************************************************************************************************************************


1PROGRAM * CCSD (Closed-shell coupled cluster)     Authors: C. Hampel, H.-J. Werner, 1991, M. Deegan, P.J. Knowles, 1992


 Convergence thresholds:  THRVAR = 1.00D-08  THRDEN = 1.00D-12

 CCSD(T)     terms to be evaluated (factor= 1.000)


 Number of core orbitals:           5 (   5 )
 Number of closed-shell orbitals:  14 (  14 )
 Number of external orbitals:      86 (  86 )

 Molecular orbitals read from record     2100.2  Type=RHF/CANONICAL (state 1.1)

 Number of N-1 electron functions:              14
 Number of N-2 electron functions:             105
 Number of singly external CSFs:              1204
 Number of doubly external CSFs:            725410
 Total number of CSFs:                      726615

 Length of J-op  integral file:               0.00 MB
 Length of K-op  integral file:               0.79 MB
 Length of 3-ext integral record:             0.00 MB

 Memory could be reduced to 12.72 Mwords without degradation in triples

 Integral transformation finished. Total CPU:   0.57 sec, npass=  1  Memory used:  10.92 MW

 Reference energy:                   -210.01242343

 MP2 singlet pair energy:              -0.45163533
 MP2 triplet pair energy:              -0.25975869
 MP2 correlation energy:               -0.71139402
 MP2 total energy:                   -210.72381745

 SCS-MP2 correlation energy:           -0.70359003   (PS=  1.200000  PT=  0.333333)
 SCS-MP2 total energy:               -210.71601346

 ITER.      SQ.NORM     CORR.ENERGY   TOTAL ENERGY   ENERGY CHANGE        DEN1      VAR(S)    VAR(P)  DIIS     TIME
   1      1.27016089    -0.75347040  -210.76589383    -0.04207638    -0.01887970  0.35D-02  0.56D-02  1  1     2.14
   2      1.29282308    -0.75712789  -210.76955132    -0.00365749    -0.02204670  0.58D-04  0.76D-03  2  2     3.72
   3      1.30020360    -0.75750455  -210.76992798    -0.00037666    -0.00407512  0.27D-04  0.55D-04  3  3     5.31
   4      1.30276850    -0.75760128  -210.77002471    -0.00009673    -0.00100784  0.13D-05  0.65D-05  4  4     6.90
   5      1.30333604    -0.75760985  -210.77003327    -0.00000857    -0.00016830  0.16D-06  0.78D-06  5  5     8.50
   6      1.30345883    -0.75760428  -210.77002770     0.00000557    -0.00003130  0.97D-08  0.53D-07  6  6    10.10
   7      1.30347699    -0.75760667  -210.77003010    -0.00000240    -0.00000405  0.15D-08  0.48D-08  6  2    11.70
   8      1.30347842    -0.75760660  -210.77003002     0.00000008    -0.00000004  0.14D-09  0.42D-09  6  1    13.30
   9      1.30347878    -0.75760658  -210.77003001     0.00000002     0.00000023  0.17D-10  0.36D-10  6  3    14.90
  10      1.30347904    -0.75760660  -210.77003002    -0.00000001    -0.00000006  0.17D-11  0.33D-11  6  4    16.50
  11      1.30347866    -0.75760662  -210.77003005    -0.00000002     0.00000023  0.35D-12  0.34D-12  6  6    18.10
  12      1.30347859    -0.75760663  -210.77003005    -0.00000001     0.00000004  0.45D-13  0.27D-13  6  5    19.70
  13      1.30347856    -0.75760663  -210.77003005    -0.00000000     0.00000002  0.56D-14  0.46D-14  6  2    21.30
  14      1.30347855    -0.75760663  -210.77003005     0.00000000     0.00000000  0.15D-14  0.68D-15  6  1    22.89
  15      1.30347855    -0.75760663  -210.77003005     0.00000000    -0.00000000  0.12D-15  0.11D-15  6  4    24.48
  16      1.30347855    -0.75760663  -210.77003005     0.00000000    -0.00000000  0.17D-16  0.79D-17  6  3    26.08
  17      1.30347855    -0.75760663  -210.77003005     0.00000000    -0.00000000  0.38D-17  0.17D-17  6  6    27.68
  18      1.30347855    -0.75760663  -210.77003005    -0.00000000    -0.00000000  0.58D-18  0.28D-18  6  5    29.29
  19      1.30347855    -0.75760663  -210.77003005     0.00000000     0.00000000  0.60D-19  0.45D-19  6  2    30.89
  20      1.30347855    -0.75760663  -210.77003005     0.00000000    -0.00000000  0.64D-20  0.41D-20  6  4    32.49

 Norm of t1 vector:      0.07770624      S-energy:    -0.00000000      T1 diagnostic:  0.01038393
                                                                       D1 diagnostic:  0.02936046


 Total CPU time for triples:     19.85 sec


 RESULTS
 =======

  Reference energy                   -210.012423425913
  CCSD singlet pair energy             -0.527327115592
  CCSD triplet pair energy             -0.230279512555
  CCSD correlation energy              -0.757606628148

  Triples (T) contribution             -0.026791050336
  Total correlation energy             -0.784397678484

  CCSD total energy                  -210.770030054061
  CCSD[T] energy                     -210.797830489572
  CCSD-T energy                      -210.796351242652
 !CCSD(T) total energy               -210.796821104397

 Timing summary (sec):

 STEP                 CPU(USER)    SYS     CPU(TOT)    WALL
 Transformation          0.60      0.07      0.67      0.68
 CCSD iterations        31.89      0.87     32.76     32.78
 Triples                19.85      0.46     20.31     20.31

 Program statistics:

 Available memory in ccsd:               999999116
 Min. memory needed in ccsd:               1995783
 Max. memory used in ccsd:                 2628247
 Max. memory used in cckext:               2458865 (20 integral passes)



 **********************************************************************************************************************************
 DATASETS  * FILE   NREC   LENGTH (MB)   RECORD NAMES
              1      20      171.22       500      610      700      900      950      970     1000      129      960     1100   
                                          VAR    BASINP    GEOM    SYMINP    ZMAT    AOBASIS   BASIS     P2S    ABASIS      S 
                                         1400     1410     1200     1210     1080     1600     1650     1300     1700     1380   
                                           T        V       H0       H01     AOSYM     SMH    MOLCAS    ERIS     OPER     JKOP   

              2       3        0.68       700     1000     2100   
                                         GEOM     BASIS     RHF  

 PROGRAMS   *        TOTAL   CCSD(T)       RHF       INT
 CPU TIMES  *        56.75     52.35      2.84      1.52
 REAL TIME  *        59.01 SEC
 DISK USED  *       440.85 MB      
 GA USED    *         0.00 MB       (max)       0.00 MB       (current)
 **********************************************************************************************************************************

        CCSD(T)         RHF-SCF 
   -210.79682110   -210.01242343
 **********************************************************************************************************************************
 Variable memory released
