
 Primary working directories    : /tmp/916838.73.gen6.q
 Secondary working directories  : /tmp/916838.73.gen6.q
 Wavefunction directory         : /home/vulcan/lo21740/wfu/
 Main file repository           : /tmp/916838.73.gen6.q/

 ARCHNAME  : Linux/x86_64
 FC        : /opt/intel/compilers_and_libraries_2016.1.150/linux/bin/intel64/ifort
 FCVERSION : 16.0.1
 BLASLIB   : -mkl
 id        : ccgc

 Nodes     nprocs
 n075         1
 ga_uses_ma=false, calling ma_init with nominal heap.
 GA-space will be limited to   8.0 MW (determined by -G option)

 Using customized tuning parameters: mindgm=10; mindgv=16; mindgc=4; mindgr=1; noblas=0; mincuda=1000; minvec=7
 default implementation of scratch files=df  

 ***,Optimization of h2o_2
 memory,1000,m
 gthresh,energy=1.0d-12,orbital=1.0d-10,oneint=1.0d-16,twoint=1.0d-16,optgrad=1.0d-6,compress=1.0d-13
 geomtyp=xyz
 
 bohr
 geometry = {
  O   -2.8141839962   -0.2114097685    0.0004420020
  H   -3.5490822710    1.4488274586   -0.0008350836
  H   -1.0127750305    0.1035607422   -0.0010717009
  O    2.6765770129    0.1987465248   -0.0035893854
  H    3.3287344380   -0.6979156961   -1.4363008706
  H    3.3357178548   -0.7018555070    1.4413550385
 }
 
 basis=cc-pvdz
 {rhf;maxit,200}
 {ccsd(t);maxit,200}

 Variables initialized (661), CPU time= 0.00 sec
 Commands  initialized (458), CPU time= 0.01 sec, 486 directives.
 Default parameters read. Elapsed time= 0.04 sec

 Checking input...
 Passed
1


                                         ***  PROGRAM SYSTEM MOLPRO  ***
                         Copyright, University College Cardiff Consultants Limited, 2008

                                    Version 2010.1 linked May 16 2016 07:17:05


 **********************************************************************************************************************************
 LABEL *   Optimization of h2o_2                                                         
 Linux-4.4.3/n075(x86_64) 64 bit mpp version                                             DATE: 18-Jul-23          TIME: 10:33:26  
 **********************************************************************************************************************************

 SHA1:             9e8077add272b0f3cad6f7df79ec5211205f459d
 **********************************************************************************************************************************

 THRESHOLDS:

 ZERO    =  1.00D-12  ONEINT  =  1.00D-16  TWOINT  =  1.00D-16  PREFAC  =  1.00D-14  LOCALI  =  1.00D-09  EORDER  =  1.00D-04
 ENERGY  =  1.00D-12  ETEST   =  0.00D+00  EDENS   =  0.00D+00  THRDEDEF=  1.00D-06  GRADIENT=  1.00D-02  STEP    =  1.00D-03
 ORBITAL =  1.00D-10  CIVEC   =  1.00D-05  COEFF   =  1.00D-04  PRINTCI =  5.00D-02  PUNCHCI =  9.90D+01  OPTGRAD =  1.00D-06
 OPTENERG=  1.00D-06  OPTSTEP =  3.00D-04  THRGRAD =  1.00D-10  COMPRESS=  1.00D-13  VARMIN  =  1.00D-07  VARMAX  =  1.00D-03
 THRDOUB =  0.00D+00  THRDIV  =  1.00D-05  THRRED  =  1.00D-07  THRPSP  =  1.00D+00  THRDC   =  1.00D-10  THRCS   =  1.00D-10
 THRNRM  =  1.00D-08  THREQ   =  0.00D+00  THRDE   =  1.00D+00  THRREF  =  1.00D-05  SPARFAC =  1.00D+00  THRDLP  =  1.00D-07
 THRDIA  =  1.00D-10  THRDLS  =  1.00D-07  THRGPS  =  0.00D+00  THRKEX  =  0.00D+00  THRDIS  =  2.00D-01  THRVAR  =  1.00D-10
 THRLOC  =  1.00D-06  THRGAP  =  1.00D-06  THRLOCT = -1.00D+00  THRGAPT = -1.00D+00  THRORB  =  1.00D-06  THRMLTP =  0.00D+00
 THRCPQCI=  1.00D-10  KEXTA   =  0.00D+00  THRCOARS=  0.00D+00  SYMTOL  =  1.00D-06  GRADTOL =  1.00D-06  THROVL  =  1.00D-08
 THRORTH =  1.00D-08  GRID    =  1.00D-06  GRIDMAX =  1.00D-03  DTMAX   =  0.00D+00

 SETTING GEOMTYP        =    XYZ
 ZUNIT=BOHR
 

 Variable memory set to 1000000000 words,  buffer space   230000 words

 SETTING BASIS          =    CC-PVDZ


 Recomputing integrals since basis changed


 Using spherical harmonics

 Library entry O      S cc-pVDZ              selected for orbital group  1
 Library entry O      P cc-pVDZ              selected for orbital group  1
 Library entry O      D cc-pVDZ              selected for orbital group  1
 Library entry H      S cc-pVDZ              selected for orbital group  2
 Library entry H      P cc-pVDZ              selected for orbital group  2

1PROGRAM * SEWARD (Integral evaluation for generally contracted gaussian basis sets)     Author: Roland Lindh, 1990

 Geometry written to block  1 of record 700


 Point group  C1  



 ATOMIC COORDINATES

 NR  ATOM    CHARGE       X              Y              Z

   1  O       8.00   -2.814183996   -0.211409769    0.000442002
   2  H       1.00   -3.549082271    1.448827459   -0.000835084
   3  H       1.00   -1.012775031    0.103560742   -0.001071701
   4  O       8.00    2.676577013    0.198746525   -0.003589385
   5  H       1.00    3.328734438   -0.697915696   -1.436300871
   6  H       1.00    3.335717855   -0.701855507    1.441355039

 Bond lengths in Bohr (Angstrom)

 1-2  1.815616908  1-3  1.828738083  4-5  1.811622103  4-6  1.825764239
     ( 0.960783088)     ( 0.967726515)     ( 0.958669128)     ( 0.966152824)

 Bond angles

  2-1-3  103.95864267   5-4-6  104.58291906

 NUCLEAR CHARGE:                   20
 NUMBER OF PRIMITIVE AOS:          82
 NUMBER OF SYMMETRY AOS:           80
 NUMBER OF CONTRACTIONS:           48   (  48A   )
 NUMBER OF CORE ORBITALS:           2   (   2A   )
 NUMBER OF VALENCE ORBITALS:       12   (  12A   )


 NUCLEAR REPULSION ENERGY   36.55490501


 Eigenvalues of metric

         1 0.163E-01 0.177E-01 0.437E-01 0.447E-01 0.464E-01 0.515E-01 0.703E-01 0.988E-01


 Contracted 2-electron integrals neglected if value below      1.0D-16
 AO integral compression algorithm  1   Integral accuracy      1.0D-16

     6.029 MB (compressed) written to integral file ( 87.8%)

     Node minimum: 6.029 MB, node maximum: 6.029 MB


 NUMBER OF SORTED TWO-ELECTRON INTEGRALS:     692076.     BUFFER LENGTH:  32768
 NUMBER OF SEGMENTS:   1  SEGMENT LENGTH:     692076      RECORD LENGTH: 524288

 Memory used in sort:       1.25 MW

 SORT1 READ      842528. AND WROTE      681498. INTEGRALS IN      2 RECORDS. CPU TIME:     0.00 SEC, REAL TIME:     0.01 SEC
 SORT2 READ      681498. AND WROTE      692076. INTEGRALS IN     23 RECORDS. CPU TIME:     0.02 SEC, REAL TIME:     0.02 SEC

 FILE SIZES:   FILE 1:     7.5 MBYTE,  FILE 4:     8.4 MBYTE,   TOTAL:     16.0 MBYTE

 OPERATOR DM      FOR CENTER  0  COORDINATES:    0.000000    0.000000    0.000000


 **********************************************************************************************************************************
 DATASETS  * FILE   NREC   LENGTH (MB)   RECORD NAMES
              1      19        7.56       500      610      700      900      950      970     1000      129      960     1100   
                                          VAR    BASINP    GEOM    SYMINP    ZMAT    AOBASIS   BASIS     P2S    ABASIS      S 
                                         1400     1410     1200     1210     1080     1600     1650     1300     1700   
                                           T        V       H0       H01     AOSYM     SMH    MOLCAS    ERIS     OPER   

 PROGRAMS   *        TOTAL       INT
 CPU TIMES  *         0.17      0.13
 REAL TIME  *         0.38 SEC
 DISK USED  *        22.61 MB      
 GA USED    *         0.00 MB       (max)       0.00 MB       (current)
 **********************************************************************************************************************************

1PROGRAM * RHF-SCF (CLOSED SHELL)       Authors: W. Meyer, H.-J. Werner


 NUMBER OF ELECTRONS:      10+   10-    SPACE SYMMETRY=1    SPIN SYMMETRY: Singlet 
 CONVERGENCE THRESHOLDS:    1.00E-10 (Density)    1.00E-13 (Energy)
 MAX. NUMBER OF ITERATIONS:      200
 INTERPOLATION TYPE:            DIIS
 INTERPOLATION STEPS:              2 (START)      1 (STEP)
 LEVEL SHIFTS:                  0.00 (CLOSED)  0.00 (OPEN) 



 Orbital guess generated from atomic densities. Full valence occupancy:   14

 Molecular orbital dump at record        2100.2

 ITERATION    DDIFF          GRAD             ENERGY        2-EL.EN.            DIPOLE MOMENTS         DIIS
    1      0.000D+00      0.000D+00      -151.99309039    191.876820    1.39066    0.09929    0.00729    0
    2      0.000D+00      0.168D-01      -152.04712985    185.810953    1.08507    0.03452    0.00254    1
    3      0.312D-01      0.854D-02      -152.06162586    188.264683    1.12168    0.05138    0.00289    2
    4      0.101D-01      0.105D-02      -152.06206505    188.067852    1.10373    0.04965    0.00232    3
    5      0.206D-02      0.263D-03      -152.06209865    188.088395    1.09778    0.04867    0.00212    4
    6      0.584D-03      0.522D-04      -152.06210014    188.086869    1.09633    0.04916    0.00206    5
    7      0.110D-03      0.196D-04      -152.06210026    188.087317    1.09604    0.04889    0.00205    6
    8      0.296D-04      0.398D-05      -152.06210027    188.087147    1.09588    0.04892    0.00204    7
    9      0.881D-05      0.418D-06      -152.06210027    188.087133    1.09586    0.04893    0.00204    6
   10      0.757D-06      0.123D-06      -152.06210027    188.087141    1.09586    0.04893    0.00204    6
   11      0.239D-06      0.358D-07      -152.06210027    188.087135    1.09585    0.04893    0.00204    6
   12      0.795D-07      0.114D-07      -152.06210027    188.087138    1.09585    0.04893    0.00204    6
   13      0.196D-07      0.303D-08      -152.06210027    188.087137    1.09585    0.04893    0.00204    6
   14      0.548D-08      0.929D-09      -152.06210027    188.087137    1.09585    0.04893    0.00204    7
   15      0.219D-08      0.301D-09      -152.06210027    188.087137    1.09585    0.04893    0.00204    7
   16      0.623D-09      0.106D-09      -152.06210027    188.087137    1.09585    0.04893    0.00204    8
   17      0.229D-09      0.145D-10      -152.06210027    188.087137    1.09585    0.04893    0.00204    8
   18      0.288D-10      0.402D-11      -152.06210027    188.087137    1.09585    0.04893    0.00204    7
   19      0.914D-11      0.680D-12      -152.06210027    188.087137    1.09585    0.04893    0.00204    6
   20      0.156D-11      0.120D-12      -152.06210027    188.087137    1.09585    0.04893    0.00204    0

 Final occupancy:  10

 !RHF STATE 1.1 Energy               -152.062100268000
 Nuclear energy                        36.55490501
 One-electron energy                 -282.66057388
 Two-electron energy                   94.04356860
 Virial quotient                       -1.00081806
 !RHF STATE 1.1 Dipole moment           1.09585289     0.04892911     0.00204100
 Dipole moment /Debye                   2.78519779     0.12435725     0.00518737

 Orbital energies:

         1.1          2.1          3.1          4.1          5.1          6.1          7.1          8.1          9.1         10.1
    -20.584392   -20.516469    -1.366953    -1.301637    -0.727621    -0.671616    -0.599286    -0.542131    -0.514828    -0.461786

        11.1         12.1
      0.163356     0.230836


 **********************************************************************************************************************************
 DATASETS  * FILE   NREC   LENGTH (MB)   RECORD NAMES
              1      19        7.56       500      610      700      900      950      970     1000      129      960     1100   
                                          VAR    BASINP    GEOM    SYMINP    ZMAT    AOBASIS   BASIS     P2S    ABASIS      S 
                                         1400     1410     1200     1210     1080     1600     1650     1300     1700   
                                           T        V       H0       H01     AOSYM     SMH    MOLCAS    ERIS     OPER   

              2       3        0.39       700     1000     2100   
                                         GEOM     BASIS     RHF  

 PROGRAMS   *        TOTAL       RHF       INT
 CPU TIMES  *         0.27      0.10      0.13
 REAL TIME  *         0.50 SEC
 DISK USED  *        22.61 MB      
 GA USED    *         0.00 MB       (max)       0.00 MB       (current)
 **********************************************************************************************************************************


1PROGRAM * CCSD (Closed-shell coupled cluster)     Authors: C. Hampel, H.-J. Werner, 1991, M. Deegan, P.J. Knowles, 1992


 Convergence thresholds:  THRVAR = 1.00D-08  THRDEN = 1.00D-12

 CCSD(T)     terms to be evaluated (factor= 1.000)


 Number of core orbitals:           2 (   2 )
 Number of closed-shell orbitals:   8 (   8 )
 Number of external orbitals:      38 (  38 )

 Molecular orbitals read from record     2100.2  Type=RHF/CANONICAL (state 1.1)

 Number of N-1 electron functions:               8
 Number of N-2 electron functions:              36
 Number of singly external CSFs:               304
 Number of doubly external CSFs:             46360
 Total number of CSFs:                       46665

 Length of J-op  integral file:               0.00 MB
 Length of K-op  integral file:               0.19 MB
 Length of 3-ext integral record:             0.00 MB

 Memory could be reduced to 1.00 Mwords without degradation in triples

 Integral transformation finished. Total CPU:   0.01 sec, npass=  1  Memory used:   0.75 MW

 Reference energy:                   -152.06210027

 MP2 singlet pair energy:              -0.25228962
 MP2 triplet pair energy:              -0.15437335
 MP2 correlation energy:               -0.40666297
 MP2 total energy:                   -152.46876324

 SCS-MP2 correlation energy:           -0.39880207   (PS=  1.200000  PT=  0.333333)
 SCS-MP2 total energy:               -152.46090234

 ITER.      SQ.NORM     CORR.ENERGY   TOTAL ENERGY   ENERGY CHANGE        DEN1      VAR(S)    VAR(P)  DIIS     TIME
   1      1.10642048    -0.42301133  -152.48511160    -0.01634836    -0.00904146  0.71D-03  0.14D-02  1  1     0.05
   2      1.11281256    -0.42481837  -152.48691864    -0.00180704    -0.00779554  0.11D-04  0.13D-03  2  2     0.09
   3      1.11443872    -0.42496638  -152.48706665    -0.00014801    -0.00120907  0.65D-05  0.53D-05  3  3     0.13
   4      1.11482820    -0.42496912  -152.48706939    -0.00000274    -0.00021916  0.27D-06  0.37D-06  4  4     0.18
   5      1.11490293    -0.42496611  -152.48706638     0.00000301    -0.00003413  0.63D-07  0.26D-07  5  5     0.21
   6      1.11491651    -0.42496542  -152.48706569     0.00000069    -0.00000292  0.13D-07  0.25D-08  6  6     0.26
   7      1.11492059    -0.42496535  -152.48706562     0.00000007     0.00000019  0.16D-08  0.55D-09  6  2     0.30
   8      1.11492251    -0.42496526  -152.48706553     0.00000009    -0.00000032  0.16D-09  0.66D-10  6  1     0.34
   9      1.11492293    -0.42496524  -152.48706551     0.00000002     0.00000006  0.22D-10  0.81D-11  6  3     0.38
  10      1.11492306    -0.42496523  -152.48706550     0.00000001    -0.00000001  0.40D-11  0.10D-11  6  4     0.42
  11      1.11492301    -0.42496524  -152.48706551    -0.00000001     0.00000006  0.76D-12  0.19D-12  6  5     0.46
  12      1.11492297    -0.42496524  -152.48706551    -0.00000000     0.00000003  0.13D-12  0.32D-13  6  6     0.50
  13      1.11492295    -0.42496524  -152.48706551    -0.00000000     0.00000001  0.20D-13  0.60D-14  6  1     0.55
  14      1.11492294    -0.42496524  -152.48706551     0.00000000     0.00000000  0.26D-14  0.68D-15  6  2     0.58
  15      1.11492294    -0.42496524  -152.48706551     0.00000000    -0.00000000  0.44D-15  0.12D-15  6  3     0.63
  16      1.11492294    -0.42496524  -152.48706551     0.00000000    -0.00000000  0.60D-16  0.18D-16  6  4     0.67
  17      1.11492294    -0.42496524  -152.48706551     0.00000000    -0.00000000  0.71D-17  0.23D-17  6  5     0.71
  18      1.11492294    -0.42496524  -152.48706551    -0.00000000     0.00000000  0.17D-17  0.38D-18  6  6     0.75
  19      1.11492294    -0.42496524  -152.48706551    -0.00000000    -0.00000000  0.15D-18  0.76D-19  6  2     0.79
  20      1.11492294    -0.42496524  -152.48706551    -0.00000000     0.00000000  0.14D-19  0.62D-20  6  1     0.84

 Norm of t1 vector:      0.03776075      S-energy:     0.00000000      T1 diagnostic:  0.00667522
                                                                       D1 diagnostic:  0.01504383


 Total CPU time for triples:      0.21 sec


 RESULTS
 =======

  Reference energy                   -152.062100268000
  CCSD singlet pair energy             -0.287247227314
  CCSD triplet pair energy             -0.137718015870
  CCSD correlation energy              -0.424965243183

  Triples (T) contribution             -0.006463590724
  Total correlation energy             -0.431428833906

  CCSD total energy                  -152.487065511183
  CCSD[T] energy                     -152.493738926889
  CCSD-T energy                      -152.493409314837
 !CCSD(T) total energy               -152.493529101906

 Timing summary (sec):

 STEP                 CPU(USER)    SYS     CPU(TOT)    WALL
 Transformation          0.01      0.01      0.02      0.02
 CCSD iterations         0.83      0.04      0.87      0.90
 Triples                 0.21      0.00      0.21      0.22

 Program statistics:

 Available memory in ccsd:               999999644
 Min. memory needed in ccsd:                165099
 Max. memory used in ccsd:                  199939
 Max. memory used in cckext:                222050 (20 integral passes)



 **********************************************************************************************************************************
 DATASETS  * FILE   NREC   LENGTH (MB)   RECORD NAMES
              1      20       10.42       500      610      700      900      950      970     1000      129      960     1100   
                                          VAR    BASINP    GEOM    SYMINP    ZMAT    AOBASIS   BASIS     P2S    ABASIS      S 
                                         1400     1410     1200     1210     1080     1600     1650     1300     1700     1380   
                                           T        V       H0       H01     AOSYM     SMH    MOLCAS    ERIS     OPER     JKOP   

              2       3        0.39       700     1000     2100   
                                         GEOM     BASIS     RHF  

 PROGRAMS   *        TOTAL   CCSD(T)       RHF       INT
 CPU TIMES  *         1.33      1.06      0.10      0.13
 REAL TIME  *         1.66 SEC
 DISK USED  *        26.11 MB      
 GA USED    *         0.00 MB       (max)       0.00 MB       (current)
 **********************************************************************************************************************************

        CCSD(T)         RHF-SCF 
   -152.49352910   -152.06210027
 **********************************************************************************************************************************
 Variable memory released
