
 Primary working directories    : /tmp/943168.203.gen6.q
 Secondary working directories  : /tmp/943168.203.gen6.q
 Wavefunction directory         : /home/vulcan/mel64643/wfu/
 Main file repository           : /tmp/943168.203.gen6.q/

 ARCHNAME  : Linux/x86_64
 FC        : /opt/intel/compilers_and_libraries_2016.1.150/linux/bin/intel64/ifort
 FCVERSION : 16.0.1
 BLASLIB   : -mkl
 id        : ccgc

 Nodes     nprocs
 n078         1
 ga_uses_ma=false, calling ma_init with nominal heap.
 GA-space will be limited to   8.0 MW (determined by -G option)

 Using customized tuning parameters: mindgm=10; mindgv=16; mindgc=4; mindgr=1; noblas=0; mincuda=1000; minvec=7
 default implementation of scratch files=df  

 ***,Optimization of h2o_2
 memory,1000,m
 gthresh,energy=1.0d-12,orbital=1.0d-10,oneint=1.0d-16,twoint=1.0d-16,optgrad=1.0d-6,compress=1.0d-13
 geomtyp=xyz
 
 bohr
 geometry = {
  C   -0.0011654198   -3.4200861033   -0.0007019532
  H   -0.9717830721   -2.7306919636   -1.6816816615
  H   -0.9717323840   -2.7303639127    1.6801724485
  H    1.9396897864   -2.7300618234   -0.0007985491
  H   -0.0008376675   -5.4798979254   -0.0005009610
  C   -0.0000536810    3.4234118564   -0.0013697610
  H   -0.0109030841    5.4781930446   -0.0042546546
  H    0.9767071269    2.7326089364   -1.6720617283
  H    0.9706975319    2.7372760795    1.6747393594
  H   -1.9306191366    2.7196118114    0.0064574609
 }
 
 basis=AVDZ
 {rhf;maxit,200}
 {ccsd(t);maxit,200}

 Variables initialized (661), CPU time= 0.01 sec
 Commands  initialized (458), CPU time= 0.00 sec, 486 directives.
 Default parameters read. Elapsed time= 0.03 sec

 Checking input...
 Passed
1


                                         ***  PROGRAM SYSTEM MOLPRO  ***
                         Copyright, University College Cardiff Consultants Limited, 2008

                                    Version 2010.1 linked May 16 2016 07:17:05


 **********************************************************************************************************************************
 LABEL *   Optimization of h2o_2                                                         
 Linux-4.4.3/n078(x86_64) 64 bit mpp version                                             DATE: 23-Oct-23          TIME: 10:54:48  
 **********************************************************************************************************************************

 SHA1:             9e8077add272b0f3cad6f7df79ec5211205f459d
 **********************************************************************************************************************************

 THRESHOLDS:

 ZERO    =  1.00D-12  ONEINT  =  1.00D-16  TWOINT  =  1.00D-16  PREFAC  =  1.00D-14  LOCALI  =  1.00D-09  EORDER  =  1.00D-04
 ENERGY  =  1.00D-12  ETEST   =  0.00D+00  EDENS   =  0.00D+00  THRDEDEF=  1.00D-06  GRADIENT=  1.00D-02  STEP    =  1.00D-03
 ORBITAL =  1.00D-10  CIVEC   =  1.00D-05  COEFF   =  1.00D-04  PRINTCI =  5.00D-02  PUNCHCI =  9.90D+01  OPTGRAD =  1.00D-06
 OPTENERG=  1.00D-06  OPTSTEP =  3.00D-04  THRGRAD =  1.00D-10  COMPRESS=  1.00D-13  VARMIN  =  1.00D-07  VARMAX  =  1.00D-03
 THRDOUB =  0.00D+00  THRDIV  =  1.00D-05  THRRED  =  1.00D-07  THRPSP  =  1.00D+00  THRDC   =  1.00D-10  THRCS   =  1.00D-10
 THRNRM  =  1.00D-08  THREQ   =  0.00D+00  THRDE   =  1.00D+00  THRREF  =  1.00D-05  SPARFAC =  1.00D+00  THRDLP  =  1.00D-07
 THRDIA  =  1.00D-10  THRDLS  =  1.00D-07  THRGPS  =  0.00D+00  THRKEX  =  0.00D+00  THRDIS  =  2.00D-01  THRVAR  =  1.00D-10
 THRLOC  =  1.00D-06  THRGAP  =  1.00D-06  THRLOCT = -1.00D+00  THRGAPT = -1.00D+00  THRORB  =  1.00D-06  THRMLTP =  0.00D+00
 THRCPQCI=  1.00D-10  KEXTA   =  0.00D+00  THRCOARS=  0.00D+00  SYMTOL  =  1.00D-06  GRADTOL =  1.00D-06  THROVL  =  1.00D-08
 THRORTH =  1.00D-08  GRID    =  1.00D-06  GRIDMAX =  1.00D-03  DTMAX   =  0.00D+00

 SETTING GEOMTYP        =    XYZ
 ZUNIT=BOHR
 

 Variable memory set to 1000000000 words,  buffer space   230000 words

 SETTING BASIS          =    AVDZ


 Recomputing integrals since basis changed


 Using spherical harmonics

 Library entry C      S aug-cc-pVDZ          selected for orbital group  1
 Library entry C      P aug-cc-pVDZ          selected for orbital group  1
 Library entry C      D aug-cc-pVDZ          selected for orbital group  1
 Library entry H      S aug-cc-pVDZ          selected for orbital group  2
 Library entry H      P aug-cc-pVDZ          selected for orbital group  2

1PROGRAM * SEWARD (Integral evaluation for generally contracted gaussian basis sets)     Author: Roland Lindh, 1990

 Geometry written to block  1 of record 700


 Point group  C1  



 ATOMIC COORDINATES

 NR  ATOM    CHARGE       X              Y              Z

   1  C       6.00   -0.001165420   -3.420086103   -0.000701953
   2  H       1.00   -0.971783072   -2.730691964   -1.681681662
   3  H       1.00   -0.971732384   -2.730363913    1.680172449
   4  H       1.00    1.939689786   -2.730061823   -0.000798549
   5  H       1.00   -0.000837668   -5.479897925   -0.000500961
   6  C       6.00   -0.000053681    3.423411856   -0.001369761
   7  H       1.00   -0.010903084    5.478193045   -0.004254655
   8  H       1.00    0.976707127    2.732608936   -1.672061728
   9  H       1.00    0.970697532    2.737276079    1.674739359
  10  H       1.00   -1.930619137    2.719611811    0.006457461

 Bond lengths in Bohr (Angstrom)

 1-2  2.059867881  1-3  2.059867881  1-4  2.059867095  1-5  2.059811858  6-7  2.054811856
     ( 1.090035136)     ( 1.090035136)     ( 1.090034720)     ( 1.090005490)     ( 1.087359603)

  6- 8  2.054867879   6- 9  2.054867880   6-10  2.054867087
       ( 1.087389249)       ( 1.087389250)       ( 1.087388830)

 Bond angles

  2-1-3  109.37992579   2-1-4  109.37980975   2-1-5  109.56240831   3-1-4  109.37980975

  3-1-5  109.56240831   4-1-5  109.56250040   7-6-8  109.72719269   7-6-9  109.72719277

  7- 6-10  109.72728483   8- 6- 9  109.04851423   8- 6-10  109.54459452   9- 6-10  109.04839814

 NUCLEAR CHARGE:                   20
 NUMBER OF PRIMITIVE AOS:         162
 NUMBER OF SYMMETRY AOS:          158
 NUMBER OF CONTRACTIONS:          118   ( 118A   )
 NUMBER OF CORE ORBITALS:           2   (   2A   )
 NUMBER OF VALENCE ORBITALS:       16   (  16A   )


 NUCLEAR REPULSION ENERGY   41.37931325


 Eigenvalues of metric

         1 0.369E-03 0.567E-03 0.569E-03 0.609E-03 0.724E-03 0.725E-03 0.776E-03 0.101E-02


 Contracted 2-electron integrals neglected if value below      1.0D-16
 AO integral compression algorithm  1   Integral accuracy      1.0D-16

     211.550 MB (compressed) written to integral file ( 92.5%)

     Node minimum: 211.550 MB, node maximum: 211.550 MB


 NUMBER OF SORTED TWO-ELECTRON INTEGRALS:   24650731.     BUFFER LENGTH:  32768
 NUMBER OF SEGMENTS:   2  SEGMENT LENGTH:   15997996      RECORD LENGTH: 524288

 Memory used in sort:      16.56 MW

 SORT1 READ    28594353. AND WROTE    24450523. INTEGRALS IN     71 RECORDS. CPU TIME:     0.25 SEC, REAL TIME:     0.38 SEC
 SORT2 READ    24450523. AND WROTE    24650731. INTEGRALS IN    807 RECORDS. CPU TIME:     0.21 SEC, REAL TIME:     0.31 SEC

 FILE SIZES:   FILE 1:   188.7 MBYTE,  FILE 4:   297.8 MBYTE,   TOTAL:    486.5 MBYTE

 OPERATOR DM      FOR CENTER  0  COORDINATES:    0.000000    0.000000    0.000000


 **********************************************************************************************************************************
 DATASETS  * FILE   NREC   LENGTH (MB)   RECORD NAMES
              1      19      188.86       500      610      700      900      950      970     1000      129      960     1100   
                                          VAR    BASINP    GEOM    SYMINP    ZMAT    AOBASIS   BASIS     P2S    ABASIS      S 
                                         1400     1410     1200     1210     1080     1600     1650     1300     1700   
                                           T        V       H0       H01     AOSYM     SMH    MOLCAS    ERIS     OPER   

 PROGRAMS   *        TOTAL       INT
 CPU TIMES  *         1.37      1.33
 REAL TIME  *         1.85 SEC
 DISK USED  *       698.85 MB      
 GA USED    *         0.00 MB       (max)       0.00 MB       (current)
 **********************************************************************************************************************************

1PROGRAM * RHF-SCF (CLOSED SHELL)       Authors: W. Meyer, H.-J. Werner


 NUMBER OF ELECTRONS:      10+   10-    SPACE SYMMETRY=1    SPIN SYMMETRY: Singlet 
 CONVERGENCE THRESHOLDS:    1.00E-10 (Density)    1.00E-13 (Energy)
 MAX. NUMBER OF ITERATIONS:      200
 INTERPOLATION TYPE:            DIIS
 INTERPOLATION STEPS:              2 (START)      1 (STEP)
 LEVEL SHIFTS:                  0.00 (CLOSED)  0.00 (OPEN) 



 Orbital guess generated from atomic densities. Full valence occupancy:   18

 Molecular orbital dump at record        2100.2

 ITERATION    DDIFF          GRAD             ENERGY        2-EL.EN.            DIPOLE MOMENTS         DIIS
    1      0.000D+00      0.000D+00       -80.36220123    134.866436    0.00095   -0.00272    0.00159    0
    2      0.000D+00      0.369D-02       -80.39420364    132.554008    0.00029   -0.00109    0.00039    1
    3      0.813D-02      0.137D-02       -80.39818910    133.382490    0.00039   -0.00132    0.00063    2
    4      0.257D-02      0.371D-03       -80.39877630    133.252222    0.00033   -0.00117    0.00054    3
    5      0.869D-03      0.457D-04       -80.39878502    133.259111    0.00033   -0.00115    0.00053    4
    6      0.877D-04      0.298D-05       -80.39878507    133.258944    0.00033   -0.00115    0.00053    5
    7      0.107D-04      0.348D-06       -80.39878507    133.258928    0.00033   -0.00115    0.00053    5
    8      0.165D-05      0.120D-06       -80.39878507    133.258926    0.00033   -0.00115    0.00053    5
    9      0.365D-06      0.159D-07       -80.39878507    133.258926    0.00033   -0.00115    0.00053    5
   10      0.110D-06      0.221D-08       -80.39878507    133.258927    0.00033   -0.00115    0.00053    5
   11      0.599D-08      0.272D-09       -80.39878507    133.258927    0.00033   -0.00115    0.00053    5
   12      0.105D-08      0.717D-10       -80.39878507    133.258927    0.00033   -0.00115    0.00053    6
   13      0.408D-09      0.241D-10       -80.39878507    133.258927    0.00033   -0.00115    0.00053    6
   14      0.768D-10      0.333D-11       -80.39878507    133.258927    0.00033   -0.00115    0.00053    6
   15      0.834D-11      0.927D-12       -80.39878507    133.258927    0.00033   -0.00115    0.00053    0

 Final occupancy:  10

 !RHF STATE 1.1 Energy                -80.398785067912
 Nuclear energy                        41.37931325
 One-electron energy                 -188.40756176
 Two-electron energy                   66.62946344
 Virial quotient                       -1.00177262
 !RHF STATE 1.1 Dipole moment           0.00032534    -0.00114765     0.00052929
 Dipole moment /Debye                   0.00082687    -0.00291684     0.00134523

 Orbital energies:

         1.1          2.1          3.1          4.1          5.1          6.1          7.1          8.1          9.1         10.1
    -11.214695   -11.213383    -0.946203    -0.940139    -0.551606    -0.547089    -0.546398    -0.539530    -0.538936    -0.536339

        11.1         12.1
      0.035491     0.045874


 **********************************************************************************************************************************
 DATASETS  * FILE   NREC   LENGTH (MB)   RECORD NAMES
              1      19      188.86       500      610      700      900      950      970     1000      129      960     1100   
                                          VAR    BASINP    GEOM    SYMINP    ZMAT    AOBASIS   BASIS     P2S    ABASIS      S 
                                         1400     1410     1200     1210     1080     1600     1650     1300     1700   
                                           T        V       H0       H01     AOSYM     SMH    MOLCAS    ERIS     OPER   

              2       3        0.70       700     1000     2100   
                                         GEOM     BASIS     RHF  

 PROGRAMS   *        TOTAL       RHF       INT
 CPU TIMES  *         3.65      2.28      1.33
 REAL TIME  *         4.44 SEC
 DISK USED  *       698.85 MB      
 GA USED    *         0.00 MB       (max)       0.00 MB       (current)
 **********************************************************************************************************************************


1PROGRAM * CCSD (Closed-shell coupled cluster)     Authors: C. Hampel, H.-J. Werner, 1991, M. Deegan, P.J. Knowles, 1992


 Convergence thresholds:  THRVAR = 1.00D-08  THRDEN = 1.00D-12

 CCSD(T)     terms to be evaluated (factor= 1.000)


 Number of core orbitals:           2 (   2 )
 Number of closed-shell orbitals:   8 (   8 )
 Number of external orbitals:     108 ( 108 )

 Molecular orbitals read from record     2100.2  Type=RHF/CANONICAL (state 1.1)

 Number of N-1 electron functions:               8
 Number of N-2 electron functions:              36
 Number of singly external CSFs:               864
 Number of doubly external CSFs:            373680
 Total number of CSFs:                      374545

 Length of J-op  integral file:               0.00 MB
 Length of K-op  integral file:               1.00 MB
 Length of 3-ext integral record:             0.00 MB

 Memory could be reduced to 14.62 Mwords without degradation in triples

 Integral transformation finished. Total CPU:   0.56 sec, npass=  1  Memory used:   8.61 MW

 Reference energy:                    -80.39878507

 MP2 singlet pair energy:              -0.24094529
 MP2 triplet pair energy:              -0.09676017
 MP2 correlation energy:               -0.33770546
 MP2 total energy:                    -80.73649052

 SCS-MP2 correlation energy:           -0.34934067   (PS=  1.200000  PT=  0.333333)
 SCS-MP2 total energy:                -80.74812574

 ITER.      SQ.NORM     CORR.ENERGY   TOTAL ENERGY   ENERGY CHANGE        DEN1      VAR(S)    VAR(P)  DIIS     TIME
   1      1.14022541    -0.38132731   -80.78011238    -0.04362186    -0.03251087  0.70D-03  0.24D-02  1  1     1.27
   2      1.15322804    -0.38407302   -80.78285808    -0.00274570    -0.01266920  0.16D-04  0.11D-03  2  2     2.04
   3      1.15532658    -0.38420445   -80.78298952    -0.00013143    -0.00112365  0.25D-05  0.71D-05  3  3     2.79
   4      1.15577103    -0.38422248   -80.78300754    -0.00001803    -0.00017583  0.10D-06  0.44D-06  4  4     3.56
   5      1.15584172    -0.38421918   -80.78300425     0.00000330    -0.00003198  0.39D-08  0.30D-07  5  5     4.32
   6      1.15584561    -0.38421817   -80.78300324     0.00000101    -0.00000141  0.28D-09  0.20D-08  6  6     5.07
   7      1.15584601    -0.38421838   -80.78300345    -0.00000022    -0.00000002  0.24D-10  0.13D-09  6  1     5.83
   8      1.15584608    -0.38421840   -80.78300347    -0.00000002    -0.00000007  0.24D-11  0.95D-11  6  2     6.59
   9      1.15584602    -0.38421841   -80.78300347    -0.00000000     0.00000003  0.44D-12  0.74D-12  6  3     7.36
  10      1.15584598    -0.38421841   -80.78300347    -0.00000000     0.00000002  0.34D-13  0.65D-13  6  4     8.12
  11      1.15584595    -0.38421841   -80.78300347    -0.00000000     0.00000002  0.32D-14  0.70D-14  6  5     8.88
  12      1.15584594    -0.38421841   -80.78300348    -0.00000000     0.00000001  0.27D-15  0.84D-15  6  6     9.65
  13      1.15584594    -0.38421841   -80.78300348    -0.00000000     0.00000000  0.22D-16  0.10D-15  6  1    10.41
  14      1.15584594    -0.38421841   -80.78300348    -0.00000000     0.00000000  0.25D-17  0.11D-16  6  3    11.17
  15      1.15584594    -0.38421841   -80.78300348    -0.00000000     0.00000000  0.19D-18  0.59D-18  6  2    11.93
  16      1.15584594    -0.38421841   -80.78300348    -0.00000000     0.00000000  0.26D-19  0.46D-19  6  4    12.69
  17      1.15584594    -0.38421841   -80.78300348    -0.00000000     0.00000000  0.31D-20  0.58D-20  6  5    13.44
  18      1.15584594    -0.38421841   -80.78300348    -0.00000000     0.00000000  0.35D-21  0.48D-21  6  6    14.19

 Norm of t1 vector:      0.03911917      S-energy:     0.00000000      T1 diagnostic:  0.00691536
                                                                       D1 diagnostic:  0.01252177


 Total CPU time for triples:      8.70 sec


 RESULTS
 =======

  Reference energy                    -80.398785067912
  CCSD singlet pair energy             -0.289968893035
  CCSD triplet pair energy             -0.094249514682
  CCSD correlation energy              -0.384218407716

  Triples (T) contribution             -0.009202191987
  Total correlation energy             -0.393420599704

  CCSD total energy                   -80.783003475628
  CCSD[T] energy                      -80.792425539288
  CCSD-T energy                       -80.792088950383
 !CCSD(T) total energy                -80.792205667616

 Timing summary (sec):

 STEP                 CPU(USER)    SYS     CPU(TOT)    WALL
 Transformation          0.57      0.07      0.64      0.64
 CCSD iterations        13.63      0.64     14.27     14.30
 Triples                 8.70      0.18      8.88      8.89

 Program statistics:

 Available memory in ccsd:               999999644
 Min. memory needed in ccsd:               1156281
 Max. memory used in ccsd:                 1468601
 Max. memory used in cckext:               1135046 (18 integral passes)



 **********************************************************************************************************************************
 DATASETS  * FILE   NREC   LENGTH (MB)   RECORD NAMES
              1      20      235.83       500      610      700      900      950      970     1000      129      960     1100   
                                          VAR    BASINP    GEOM    SYMINP    ZMAT    AOBASIS   BASIS     P2S    ABASIS      S 
                                         1400     1410     1200     1210     1080     1600     1650     1300     1700     1380   
                                           T        V       H0       H01     AOSYM     SMH    MOLCAS    ERIS     OPER     JKOP   

              2       3        0.70       700     1000     2100   
                                         GEOM     BASIS     RHF  

 PROGRAMS   *        TOTAL   CCSD(T)       RHF       INT
 CPU TIMES  *        26.56     22.91      2.28      1.33
 REAL TIME  *        28.31 SEC
 DISK USED  *       698.85 MB      
 GA USED    *         0.00 MB       (max)       0.00 MB       (current)
 **********************************************************************************************************************************

        CCSD(T)         RHF-SCF 
    -80.79220567    -80.39878507
 **********************************************************************************************************************************
 Variable memory released
