
 Primary working directories    : /tmp/1011203.893.gen4.q
 Secondary working directories  : /tmp/1011203.893.gen4.q
 Wavefunction directory         : /home/vulcan/mel64643/wfu/
 Main file repository           : /tmp/1011203.893.gen4.q/

 ARCHNAME  : Linux/x86_64
 FC        : /opt/intel/compilers_and_libraries_2016.1.150/linux/bin/intel64/ifort
 FCVERSION : 16.0.1
 BLASLIB   : -mkl
 id        : ccgc

 Nodes     nprocs
 n049         1
 ga_uses_ma=false, calling ma_init with nominal heap.
 GA-space will be limited to   8.0 MW (determined by -G option)

 Using customized tuning parameters: mindgm=10; mindgv=16; mindgc=4; mindgr=1; noblas=0; mincuda=1000; minvec=7
 default implementation of scratch files=df  

 ***,Optimization of c2h4_2
 memory,1000,m
 gthresh,energy=1.0d-12,orbital=1.0d-10,oneint=1.0d-16,twoint=1.0d-16,optgrad=1.0d-6,compress=1.0d-13
 geomtyp=xyz
 
 
 
 bohr
 geometry = {
  C   -1.2646578390   -0.0021865566   -3.4914884592
  C    1.2646578390   -0.0021865566   -3.4914884592
  H   -2.3365451370   -0.0185584825   -1.7452104610
  H    2.3365451370   -0.0185584825   -1.7452104610
  H   -2.3309107970    0.0142102008   -5.2404310114
  H    2.3309107970    0.0142102008   -5.2404310114
  C   -0.0000000000    1.2668352249    3.4906783214
  C   -0.0000000000   -1.2624797772    3.4922591187
  H   -0.0000000000    2.3376325779    1.7436554483
  H   -0.0000000000   -2.3354600374    1.7465760859
  H    0.0000000000    2.3341798510    5.2390316869
  H    0.0000000000   -2.3276381625    5.2419452779
 }
 
 basis=aug-cc-pvdz, H=cc-pvdz
 {rhf;maxit,200}
 {mp2}

 Variables initialized (661), CPU time= 0.00 sec
 Commands  initialized (458), CPU time= 0.00 sec, 486 directives.
 Default parameters read. Elapsed time= 0.05 sec

 Checking input...
 Passed
1


                                         ***  PROGRAM SYSTEM MOLPRO  ***
                         Copyright, University College Cardiff Consultants Limited, 2008

                                    Version 2010.1 linked May 16 2016 07:17:05


 **********************************************************************************************************************************
 LABEL *   Optimization of c2h4_2                                                        
 Linux-4.4.3/n049(x86_64) 64 bit mpp version                                             DATE: 25-Feb-24          TIME: 14:53:07  
 **********************************************************************************************************************************

 SHA1:             9e8077add272b0f3cad6f7df79ec5211205f459d
 **********************************************************************************************************************************

 THRESHOLDS:

 ZERO    =  1.00D-12  ONEINT  =  1.00D-16  TWOINT  =  1.00D-16  PREFAC  =  1.00D-14  LOCALI  =  1.00D-09  EORDER  =  1.00D-04
 ENERGY  =  1.00D-12  ETEST   =  0.00D+00  EDENS   =  0.00D+00  THRDEDEF=  1.00D-06  GRADIENT=  1.00D-02  STEP    =  1.00D-03
 ORBITAL =  1.00D-10  CIVEC   =  1.00D-05  COEFF   =  1.00D-04  PRINTCI =  5.00D-02  PUNCHCI =  9.90D+01  OPTGRAD =  1.00D-06
 OPTENERG=  1.00D-06  OPTSTEP =  3.00D-04  THRGRAD =  1.00D-10  COMPRESS=  1.00D-13  VARMIN  =  1.00D-07  VARMAX  =  1.00D-03
 THRDOUB =  0.00D+00  THRDIV  =  1.00D-05  THRRED  =  1.00D-07  THRPSP  =  1.00D+00  THRDC   =  1.00D-10  THRCS   =  1.00D-10
 THRNRM  =  1.00D-08  THREQ   =  0.00D+00  THRDE   =  1.00D+00  THRREF  =  1.00D-05  SPARFAC =  1.00D+00  THRDLP  =  1.00D-07
 THRDIA  =  1.00D-10  THRDLS  =  1.00D-07  THRGPS  =  0.00D+00  THRKEX  =  0.00D+00  THRDIS  =  2.00D-01  THRVAR  =  1.00D-10
 THRLOC  =  1.00D-06  THRGAP  =  1.00D-06  THRLOCT = -1.00D+00  THRGAPT = -1.00D+00  THRORB  =  1.00D-06  THRMLTP =  0.00D+00
 THRCPQCI=  1.00D-10  KEXTA   =  0.00D+00  THRCOARS=  0.00D+00  SYMTOL  =  1.00D-06  GRADTOL =  1.00D-06  THROVL  =  1.00D-08
 THRORTH =  1.00D-08  GRID    =  1.00D-06  GRIDMAX =  1.00D-03  DTMAX   =  0.00D+00

 SETTING GEOMTYP        =    XYZ
 ZUNIT=BOHR
 

 Variable memory set to 1000000000 words,  buffer space   230000 words

 SETTING BASIS          =    AUG-CC-PVDZ,H=CC-PVDZ


 Recomputing integrals since basis changed


 Using spherical harmonics

 Library entry C      S aug-cc-pVDZ          selected for orbital group  1
 Library entry C      P aug-cc-pVDZ          selected for orbital group  1
 Library entry C      D aug-cc-pVDZ          selected for orbital group  1
 Library entry H      S cc-pVDZ              selected for orbital group  2
 Library entry H      P cc-pVDZ              selected for orbital group  2

1PROGRAM * SEWARD (Integral evaluation for generally contracted gaussian basis sets)     Author: Roland Lindh, 1990

 Geometry written to block  1 of record 700


 Point group  Cs  



 ATOMIC COORDINATES

 NR  ATOM    CHARGE       X              Y              Z

   1  C       6.00   -1.264657839   -0.002186557   -3.491488459
   2  C       6.00    1.264657839   -0.002186557   -3.491488459
   3  H       1.00   -2.336545137   -0.018558483   -1.745210461
   4  H       1.00    2.336545137   -0.018558483   -1.745210461
   5  H       1.00   -2.330910797    0.014210201   -5.240431011
   6  H       1.00    2.330910797    0.014210201   -5.240431011
   7  C       6.00    0.000000000    1.266835225    3.490678321
   8  C       6.00    0.000000000   -1.262479777    3.492259119
   9  H       1.00    0.000000000    2.337632578    1.743655448
  10  H       1.00    0.000000000   -2.335460037    1.746576086
  11  H       1.00    0.000000000    2.334179851    5.239031687
  12  H       1.00    0.000000000   -2.327638162    5.241945278

 Bond lengths in Bohr (Angstrom)

 1-2  2.529315678  1-3  2.049072294  1-5  2.048405300  2-4  2.049072294  2-6  2.048405300
     ( 1.338456211)     ( 1.084322358)     ( 1.083969400)     ( 1.084322358)     ( 1.083969400)

  7- 8  2.529315496   7- 9  2.049071958   7-11  2.048405243   8-10  2.049071958   8-12  2.048405243
       ( 1.338456115)       ( 1.084322180)       ( 1.083969370)       ( 1.084322180)       ( 1.083969370)

 Bond angles

  1-2-4  121.54100084   1-2-6  121.36769645   2-1-3  121.54100084   2-1-5  121.36769645

  3- 1- 5  117.09130271   4- 2- 6  117.09130271   7- 8-10  121.54106297   7- 8-12  121.36765667

  8- 7- 9  121.54106297   8- 7-11  121.36765667   9- 7-11  117.09128036  10- 8-12  117.09128036

 NUCLEAR CHARGE:                   32
 NUMBER OF PRIMITIVE AOS:         204
 NUMBER OF SYMMETRY AOS:          196
 NUMBER OF CONTRACTIONS:          132   (  81A'  +  51A"  )
 NUMBER OF CORE ORBITALS:           4   (   3A'  +   1A"  )
 NUMBER OF VALENCE ORBITALS:       24   (  16A'  +   8A"  )


 NUCLEAR REPULSION ENERGY  102.22419844


 Eigenvalues of metric

         1 0.173E-03 0.332E-03 0.553E-02 0.588E-02 0.672E-02 0.742E-02 0.789E-02 0.879E-02
         2 0.173E-03 0.332E-03 0.553E-02 0.789E-02 0.882E-02 0.117E-01 0.119E-01 0.270E-01


 Contracted 2-electron integrals neglected if value below      1.0D-16
 AO integral compression algorithm  1   Integral accuracy      1.0D-16

     169.607 MB (compressed) written to integral file ( 91.1%)

     Node minimum: 169.607 MB, node maximum: 169.607 MB


 NUMBER OF SORTED TWO-ELECTRON INTEGRALS:   19606920.     BUFFER LENGTH:  32768
 NUMBER OF SEGMENTS:   2  SEGMENT LENGTH:   15990351      RECORD LENGTH: 524288

 Memory used in sort:      16.55 MW

 SORT1 READ    23303264. AND WROTE    19143048. INTEGRALS IN     56 RECORDS. CPU TIME:     0.26 SEC, REAL TIME:     0.37 SEC
 SORT2 READ    19143048. AND WROTE    19606920. INTEGRALS IN    647 RECORDS. CPU TIME:     0.23 SEC, REAL TIME:     0.31 SEC

 FILE SIZES:   FILE 1:   149.7 MBYTE,  FILE 4:   234.9 MBYTE,   TOTAL:    384.6 MBYTE

 OPERATOR DM      FOR CENTER  0  COORDINATES:    0.000000    0.000000    0.000000


 **********************************************************************************************************************************
 DATASETS  * FILE   NREC   LENGTH (MB)   RECORD NAMES
              1      19      149.81       500      610      700      900      950      970     1000      129      960     1100   
                                          VAR    BASINP    GEOM    SYMINP    ZMAT    AOBASIS   BASIS     P2S    ABASIS      S 
                                         1400     1410     1200     1210     1080     1600     1650     1300     1700   
                                           T        V       H0       H01     AOSYM     SMH    MOLCAS    ERIS     OPER   

 PROGRAMS   *        TOTAL       INT
 CPU TIMES  *         1.93      1.90
 REAL TIME  *         2.39 SEC
 DISK USED  *       555.08 MB      
 GA USED    *         0.00 MB       (max)       0.00 MB       (current)
 **********************************************************************************************************************************

1PROGRAM * RHF-SCF (CLOSED SHELL)       Authors: W. Meyer, H.-J. Werner


 NUMBER OF ELECTRONS:      16+   16-
 CONVERGENCE THRESHOLDS:    1.00E-10 (Density)    1.00E-13 (Energy)
 MAX. NUMBER OF ITERATIONS:      200
 INTERPOLATION TYPE:            DIIS
 INTERPOLATION STEPS:              2 (START)      1 (STEP)
 LEVEL SHIFTS:                  0.00 (CLOSED)  0.00 (OPEN) 



 Orbital guess generated from atomic densities. Full valence occupancy:   19   9

 Molecular orbital dump at record        2100.2

 Initial alpha occupancy:  12   4
 Initial beta  occupancy:  12   4
 Wave function symmetry:    1

 ITERATION    DDIFF          GRAD             ENERGY        2-EL.EN.            DIPOLE MOMENTS         DIIS
    1      0.000D+00      0.000D+00      -156.03861886    307.072005    0.00000   -0.00002   -0.00000    0
    2      0.000D+00      0.477D-02      -156.07905465    304.339741    0.00000    0.00085   -0.00001    1
    3      0.999D-02      0.160D-02      -156.08311401    305.463692    0.00000    0.00073   -0.00000    2
    4      0.311D-02      0.487D-03      -156.08368416    305.176855    0.00000    0.00094   -0.00000    3
    5      0.112D-02      0.606D-04      -156.08369497    305.191420    0.00000    0.00093   -0.00000    4
    6      0.156D-03      0.979D-05      -156.08369538    305.189860    0.00000    0.00098   -0.00000    5
    7      0.265D-04      0.235D-05      -156.08369540    305.189842    0.00000    0.00095   -0.00000    6
    8      0.727D-05      0.394D-06      -156.08369540    305.189853    0.00000    0.00098   -0.00000    6
    9      0.115D-05      0.146D-06      -156.08369540    305.189854    0.00000    0.00097   -0.00000    6
   10      0.285D-06      0.341D-07      -156.08369540    305.189856    0.00000    0.00097   -0.00000    6
   11      0.795D-07      0.538D-08      -156.08369540    305.189856    0.00000    0.00097   -0.00000    6
   12      0.146D-07      0.130D-08      -156.08369540    305.189856    0.00000    0.00097   -0.00000    6
   13      0.403D-08      0.455D-09      -156.08369540    305.189856    0.00000    0.00097   -0.00000    6
   14      0.112D-08      0.190D-09      -156.08369540    305.189856    0.00000    0.00097   -0.00000    7
   15      0.493D-09      0.672D-10      -156.08369540    305.189856    0.00000    0.00097   -0.00000    7
   16      0.233D-09      0.181D-10      -156.08369540    305.189856    0.00000    0.00097   -0.00000    7
   17      0.635D-10      0.471D-11      -156.08369540    305.189856    0.00000    0.00097   -0.00000    0

 Final occupancy:  12   4

 !RHF STATE 1.1 Energy               -156.083695404308
 Nuclear energy                       102.22419844
 One-electron energy                 -410.90282187
 Two-electron energy                  152.59492803
 Virial quotient                       -1.00199385
 !RHF STATE 1.1 Dipole moment           0.00000000     0.00096951    -0.00000486
 Dipole moment /Debye                   0.00000000     0.00246408    -0.00001236

 Orbital energies:

         1.1          2.1          3.1          4.1          5.1          6.1          7.1          8.1          9.1         10.1
    -11.241781   -11.241778   -11.240161    -1.038658    -1.032832    -0.794780    -0.656810    -0.631287    -0.588277    -0.584972

        11.1         12.1         13.1         14.1
     -0.508767    -0.376336     0.069015     0.075098

         1.2          2.2          3.2          4.2          5.2          6.2
    -11.240162    -0.794781    -0.508768    -0.376335     0.069015     0.090219


 **********************************************************************************************************************************
 DATASETS  * FILE   NREC   LENGTH (MB)   RECORD NAMES
              1      19      149.81       500      610      700      900      950      970     1000      129      960     1100   
                                          VAR    BASINP    GEOM    SYMINP    ZMAT    AOBASIS   BASIS     P2S    ABASIS      S 
                                         1400     1410     1200     1210     1080     1600     1650     1300     1700   
                                           T        V       H0       H01     AOSYM     SMH    MOLCAS    ERIS     OPER   

              2       3        0.65       700     1000     2100   
                                         GEOM     BASIS     RHF  

 PROGRAMS   *        TOTAL       RHF       INT
 CPU TIMES  *         3.76      1.83      1.90
 REAL TIME  *         4.52 SEC
 DISK USED  *       555.08 MB      
 GA USED    *         0.00 MB       (max)       0.00 MB       (current)
 **********************************************************************************************************************************


1PROGRAM * MP2 (Closed-shell)     Authors: C. Hampel, H.-J. Werner, 1991, M. Deegan, P.J. Knowles, 1992


 Convergence thresholds:  THRVAR = 1.00D-08  THRDEN = 1.00D-12

 Number of core orbitals:           4 (   3   1 )
 Number of closed-shell orbitals:  12 (   9   3 )
 Number of external orbitals:     116 (  69  47 )

 Molecular orbitals read from record     2100.2  Type=RHF/CANONICAL (state 1.1)

 Number of N-1 electron functions:              12
 Number of N-2 electron functions:              78
 Number of singly external CSFs:               762
 Number of doubly external CSFs:            489468
 Total number of CSFs:                      490231

 Length of J-op  integral file:               0.00 MB
 Length of K-op  integral file:               0.66 MB

 Integral transformation finished. Total CPU:   0.26 sec, npass=  1  Memory used:   0.82 MW

 Memory needed for MP2:                      0.04 MW

 SCS-MP2 correlation energy:           -0.573944262680   (PS=  1.200000  PT=  0.333333)
 SCS-MP2 total energy:               -156.657639666989


  Reference energy                   -156.083695404309
  MP2 singlet pair energy              -0.379790232526
  MP2 triplet pair energy              -0.189957830865
  MP2 correlation energy               -0.569748063391

 !MP2 total energy                   -156.653443467700


 **********************************************************************************************************************************
 DATASETS  * FILE   NREC   LENGTH (MB)   RECORD NAMES
              1      20      158.27       500      610      700      900      950      970     1000      129      960     1100   
                                          VAR    BASINP    GEOM    SYMINP    ZMAT    AOBASIS   BASIS     P2S    ABASIS      S 
                                         1400     1410     1200     1210     1080     1600     1650     1300     1700     1380   
                                           T        V       H0       H01     AOSYM     SMH    MOLCAS    ERIS     OPER     JKOP   

              2       3        0.65       700     1000     2100   
                                         GEOM     BASIS     RHF  

 PROGRAMS   *        TOTAL       MP2       RHF       INT
 CPU TIMES  *         4.06      0.30      1.83      1.90
 REAL TIME  *         4.87 SEC
 DISK USED  *       555.08 MB      
 GA USED    *         0.00 MB       (max)       0.00 MB       (current)
 **********************************************************************************************************************************

        MP2             RHF-SCF 
   -156.65344347   -156.08369540
 **********************************************************************************************************************************
 Variable memory released
