
    -----------------------------------------------------------------------
          Psi4: An Open-Source Ab Initio Electronic Structure Package
                               Psi4 1.4a2.dev629 

                         Git: Rev {master} 2938fc2 dirty


    D. G. A. Smith, L. A. Burns, A. C. Simmonett, R. M. Parrish,
    M. C. Schieber, R. Galvelis, P. Kraus, H. Kruse, R. Di Remigio,
    A. Alenaizan, A. M. James, S. Lehtola, J. P. Misiewicz, M. Scheurer,
    R. A. Shaw, J. B. Schriber, Y. Xie, Z. L. Glick, D. A. Sirianni,
    J. S. O'Brien, J. M. Waldrop, A. Kumar, E. G. Hohenstein,
    B. P. Pritchard, B. R. Brooks, H. F. Schaefer III, A. Yu. Sokolov,
    K. Patkowski, A. E. DePrince III, U. Bozkaya, R. A. King,
    F. A. Evangelista, J. M. Turney, T. D. Crawford, C. D. Sherrill,
    J. Chem. Phys. 152(18) 184108 (2020). https://doi.org/10.1063/5.0006002

                            Additional Code Authors
    E. T. Seidl, C. L. Janssen, E. F. Valeev, M. L. Leininger,
    J. F. Gonthier, R. M. Richard, H. R. McAlexander, M. Saitow, X. Wang,
    P. Verma, and M. H. Lechner

             Previous Authors, Complete List of Code Contributors,
                       and Citations for Specific Modules
    https://github.com/psi4/psi4/blob/master/codemeta.json
    https://github.com/psi4/psi4/graphs/contributors
    http://psicode.org/psi4manual/master/introduction.html#citing-psifour

    -----------------------------------------------------------------------


    Psi4 started on: Wednesday, 17 November 2021 10:42AM

    Process ID: 6120
    Host:       n049
    PSIDATADIR: /opt/psi/4/master/share/psi4
    Memory:     500.0 MiB
    Threads:    4
    
  ==> Input File <==

--------------------------------------------------------------------------
import os
memory 14 GB 
 
molecule {
 S    0.0000028878    0.0007011835    2.1716564781
 C    0.0018007837    2.3368862027   -0.0901416950
 C   -0.0017997729   -2.3383654292   -0.0934070808
 C   -0.0009811310   -1.3498955471   -2.4862164494
 C    0.0009759125    1.3507045800   -2.4915362172
 H   -0.0009593092    4.2995880201    0.4584113370
 H    0.0009563647   -4.2992411792    0.4590540206
 H    0.0005671443   -2.4984308195   -4.1786926846
 H   -0.0005628800    2.4980529886   -4.1772133388
units bohr
}

basis {

assign 6-31g_2dfp_

[ 6-31g_2dfp_ ]

spherical

!----------------------------------------------------------------------
! Basis Set Exchange
! Version v0.8.13
! https://www.basissetexchange.org
!----------------------------------------------------------------------
!   Basis set: 6-31G(2df,p)
! Description: 6-31G(2df,p)
!        Role: orbital
!     Version: 0  (Data from the original Basis Set Exchange)
!----------------------------------------------------------------------


****
H     0
S    3   1.00
     18.7311370              0.03349460
      2.8253937              0.23472695
      0.6401217              0.81375733
S    1   1.00
      0.1612778              1.00000000
P    1   1.00
      1.5000000              1.0000000
P    1   1.00
      0.3750000              1.0000000
****
B     0
S    6   1.00
   2068.8823000              0.0018663
    310.6495700              0.0142515
     70.6830330              0.0695516
     19.8610800              0.2325729
      6.2993048              0.4670787
      2.1270270              0.3634314
SP   3   1.00
      4.7279710             -0.1303938              0.0745976
      1.1903377             -0.1307889              0.3078467
      0.3594117              1.1309444              0.7434568
SP   1   1.00
      0.1267512              1.0000000              1.0000000
D    1   1.00
      0.8020000              1.0000000
D    1   1.00
      0.2005000              1.0000000
F    1   1.00
      0.5000000              1.0000000
****
C     0
S    6   1.00
   3047.5249000              0.0018347
    457.3695100              0.0140373
    103.9486900              0.0688426
     29.2101550              0.2321844
      9.2866630              0.4679413
      3.1639270              0.3623120
SP   3   1.00
      7.8682724             -0.1193324              0.0689991
      1.8812885             -0.1608542              0.3164240
      0.5442493              1.1434564              0.7443083
SP   1   1.00
      0.1687144              1.0000000              1.0000000
D    1   1.00
      1.2520000              1.0000000
D    1   1.00
      0.3130000              1.0000000
F    1   1.00
      0.8000000              1.0000000
****
N     0
S    6   1.00
   4173.5110000              0.0018348
    627.4579000              0.0139950
    142.9021000              0.0685870
     40.2343300              0.2322410
     12.8202100              0.4690700
      4.3904370              0.3604550
SP   3   1.00
     11.6263580             -0.1149610              0.0675800
      2.7162800             -0.1691180              0.3239070
      0.7722180              1.1458520              0.7408950
SP   1   1.00
      0.2120313              1.0000000              1.0000000
D    1   1.00
      1.8260000              1.0000000
D    1   1.00
      0.4565000              1.0000000
F    1   1.00
      1.0000000              1.0000000
****
O     0
S    6   1.00
   5484.6717000              0.0018311
    825.2349500              0.0139501
    188.0469600              0.0684451
     52.9645000              0.2327143
     16.8975700              0.4701930
      5.7996353              0.3585209
SP   3   1.00
     15.5396160             -0.1107775              0.0708743
      3.5999336             -0.1480263              0.3397528
      1.0137618              1.1307670              0.7271586
SP   1   1.00
      0.2700058              1.0000000              1.0000000
D    1   1.00
      2.5840000              1.0000000
D    1   1.00
      0.6460000              1.0000000
F    1   1.00
      1.4000000              1.0000000
****
F     0
S    6   1.00
   7001.7130900              0.0018196169
   1051.3660900              0.0139160796
    239.2856900              0.0684053245
     67.3974453              0.233185760
     21.5199573              0.471267439
      7.40310130             0.356618546
SP   3   1.00
     20.8479528             -0.108506975            0.0716287243
      4.80830834            -0.146451658            0.3459121030
      1.34406986             1.128688580            0.7224699570
SP   1   1.00
      0.358151393            1.0000000              1.0000000
D    1   1.00
      3.5000000              1.0000000
D    1   1.00
      0.8750000              1.0000000
F    1   1.00
      1.8500000              1.0000000
****
Al     0
S    6   1.00
  13983.1000000              0.00194267
   2098.7500000              0.0148599
    477.7050000              0.0728494
    134.3600000              0.2468300
     42.8709000              0.4872580
     14.5189000              0.3234960
SP   6   1.00
    239.6680000             -0.00292619             0.00460285
     57.4419000             -0.0374080              0.0331990
     18.2859000             -0.1144870              0.1362820
      6.5991400              0.1156350              0.3304760
      2.4904900              0.6125950              0.4491460
      0.9445400              0.3937990              0.2657040
SP   3   1.00
      1.2779000             -0.2276060             -0.0175130
      0.3975900              0.00144583             0.2445330
      0.1600950              1.0927900              0.8049340
SP   1   1.00
      0.0556577              1.0000000              1.0000000
D    1   1.00
      0.6500000              1.0000000
D    1   1.00
      0.1625000              1.0000000
F    1   1.00
      0.2500000              1.0000000
****
Si     0
S    6   1.00
  16115.9000000              0.00195948
   2425.5800000              0.01492880
    553.8670000              0.07284780
    156.3400000              0.24613000
     50.0683000              0.48591400
     17.0178000              0.32500200
SP   6   1.00
    292.7180000             -0.00278094             0.00443826
     69.8731000             -0.03571460             0.03266790
     22.3363000             -0.11498500             0.13472100
      8.1503900              0.09356340             0.32867800
      3.1345800              0.60301700             0.44964000
      1.2254300              0.41895900             0.26137200
SP   3   1.00
      1.7273800             -0.24463000            -0.01779510
      0.5729220              0.00431572             0.25353900
      0.2221920              1.09818000             0.80066900
SP   1   1.00
      0.0778369              1.00000000             1.00000000
D    1   1.00
      0.9000000              1.0000000
D    1   1.00
      0.2250000              1.0000000
F    1   1.00
      0.3200000              1.0000000
****
P     0
S    6   1.00
  19413.3000000              0.0018516
   2909.4200000              0.0142062
    661.3640000              0.0699995
    185.7590000              0.2400790
     59.1943000              0.4847620
     20.0310000              0.3352000
SP   6   1.00
    339.4780000             -0.00278217             0.00456462
     81.0101000             -0.0360499              0.03369360
     25.8780000             -0.1166310              0.13975500
      9.4522100              0.0968328              0.33936200
      3.6656600              0.6144180              0.45092100
      1.4674600              0.4037980              0.23858600
SP   3   1.00
      2.1562300             -0.2529230             -0.01776530
      0.7489970              0.0328517              0.27405800
      0.2831450              1.0812500              0.78542100
SP   1   1.00
      0.0998317              1.0000000              1.00000000
D    1   1.00
      1.1000000              1.0000000
D    1   1.00
      0.2750000              1.0000000
F    1   1.00
      0.4500000              1.0000000
****
S     0
S    6   1.00
  21917.1000000              0.0018690
   3301.4900000              0.0142300
    754.1460000              0.0696960
    212.7110000              0.2384870
     67.9896000              0.4833070
     23.0515000              0.3380740
SP   6   1.00
    423.7350000             -0.0023767              0.0040610
    100.7100000             -0.0316930              0.0306810
     32.1599000             -0.1133170              0.1304520
     11.8079000              0.0560900              0.3272050
      4.6311000              0.5922550              0.4528510
      1.8702500              0.4550060              0.2560420
SP   3   1.00
      2.6158400             -0.2503740             -0.0145110
      0.9221670              0.0669570              0.3102630
      0.3412870              1.0545100              0.7544830
SP   1   1.00
      0.1171670              1.0000000              1.0000000
D    1   1.00
      1.3000000              1.0000000
D    1   1.00
      0.3250000              1.0000000
F    1   1.00
      0.5500000              1.0000000
****
Cl     0
S    6   1.00
  25180.1000000              0.0018330
   3780.3500000              0.0140340
    860.4740000              0.0690970
    242.1450000              0.2374520
     77.3349000              0.4830340
     26.2470000              0.3398560
SP   6   1.00
    491.7650000             -0.0022974              0.0039894
    116.9840000             -0.0307140              0.0303180
     37.4153000             -0.1125280              0.1298800
     13.7834000              0.0450160              0.3279510
      5.4521500              0.5893530              0.4535270
      2.2258800              0.4652060              0.2521540
SP   3   1.00
      3.1864900             -0.2518300             -0.0142990
      1.1442700              0.0615890              0.3235720
      0.4203770              1.0601800              0.7435070
SP   1   1.00
      0.1426570              1.0000000              1.0000000
D    1   1.00
      1.5000000              1.0000000
D    1   1.00
      0.3750000              1.0000000
F    1   1.00
      0.7000000              1.0000000
****
}


set {
reference rhf                          
freeze_core true
e_convergence 10                       
d_convergence 10                      
dft_spherical_points 1202
dft_radial_points 99
}

e = energy('b3lyp')

print_out('Grab this energy {0}'.format(e))
--------------------------------------------------------------------------

  Memory set to  13.039 GiB by Python driver.

Scratch directory: /tmp/

*** tstart() called on n049
*** at Wed Nov 17 10:42:32 2021

   => Loading Basis Set <=

    Name: ANONYMOUS3814FA24
    Role: ORBITAL
    Keyword: BASIS
    atoms 1   entry S          line   216 inputblock 6-31g_2dfp_ 
    atoms 2-5 entry C          line    48 inputblock 6-31g_2dfp_ 
    atoms 6-9 entry H          line    15 inputblock 6-31g_2dfp_ 


         ---------------------------------------------------------
                                   SCF
               by Justin Turney, Rob Parrish, Andy Simmonett
                          and Daniel G. A. Smith
                              RKS Reference
                        4 Threads,  13351 MiB Core
         ---------------------------------------------------------

  ==> Geometry <==

    Molecular point group: c1
    Full point group: C1

    Geometry (in Bohr), charge = 0, multiplicity = 1:

       Center              X                  Y                   Z               Mass       
    ------------   -----------------  -----------------  -----------------  -----------------
         S            0.000002373932     0.000530419722     2.171655389196    31.972071174400
         C            0.001800269832     2.336715438922    -0.090142783904    12.000000000000
         C           -0.001800286768    -2.338536192978    -0.093408169704    12.000000000000
         C           -0.000981644868    -1.350066310878    -2.486217538304    12.000000000000
         C            0.000975398632     1.350533816222    -2.491537306104    12.000000000000
         H           -0.000959823068     4.299417256322     0.458410248096     1.007825032230
         H            0.000955850832    -4.299411942978     0.459052931696     1.007825032230
         H            0.000566630432    -2.498601583278    -4.178693773504     1.007825032230
         H           -0.000563393868     2.497882224822    -4.177214427704     1.007825032230

  Running in c1 symmetry.

  Rotational constants: A =      0.26786  B =      0.17956  C =      0.10750 [cm^-1]
  Rotational constants: A =   8030.11001  B =   5383.08191  C =   3222.70389 [MHz]
  Nuclear repulsion =  202.327786843093691

  Charge       = 0
  Multiplicity = 1
  Electrons    = 44
  Nalpha       = 22
  Nbeta        = 22

  ==> Algorithm <==

  SCF Algorithm Type is DF.
  DIIS enabled.
  MOM disabled.
  Fractional occupation disabled.
  Guess Type is SAD.
  Energy threshold   = 1.00e-10
  Density threshold  = 1.00e-10
  Integral threshold = 0.00e+00

  ==> Primary Basis <==

  Basis Set: ANONYMOUS3814FA24
    Blend: 6-31G_2DFP_
    Number of shells: 58
    Number of basis function: 166
    Number of Cartesian functions: 191
    Spherical Harmonics?: true
    Max angular momentum: 3

  ==> DFT Potential <==

   => Composite Functional: B3LYP <= 

    B3LYP Hyb-GGA Exchange-Correlation Functional

    P. J. Stephens, F. J. Devlin, C. F. Chabalowski, and M. J. Frisch, J. Phys. Chem. 98, 11623 (1994)

    Deriv               =              1
    GGA                 =           TRUE
    Meta                =          FALSE

    Exchange Hybrid     =           TRUE
    MP2 Hybrid          =          FALSE

   => Exchange Functionals <=

    0.0800   Slater exchange
    0.7200         Becke 88

   => Exact (HF) Exchange <=

    0.2000               HF 

   => Correlation Functionals <=

    0.1900   Vosko, Wilk & Nusair (VWN5_RPA)
    0.8100   Lee, Yang & Parr

   => Molecular Quadrature <=

    Radial Scheme          =       TREUTLER
    Pruning Scheme         =           NONE
    Nuclear Scheme         =       TREUTLER

    BS radius alpha        =              1
    Pruning alpha          =              1
    Radial Points          =             99
    Spherical Points       =           1202
    Total Points           =         999242
    Total Blocks           =           6651
    Max Points             =            256
    Max Functions          =            165
    Weights Tolerance      =       1.00E-15

   => Loading Basis Set <=

    Name: (ANONYMOUS3814FA24 AUX)
    Role: JKFIT
    Keyword: DF_BASIS_SCF
    atoms 1   entry S          line   903 file /opt/psi/4/master/share/psi4/basis/def2-universal-jkfit.gbs 
    atoms 2-5 entry C          line   198 file /opt/psi/4/master/share/psi4/basis/def2-universal-jkfit.gbs 
    atoms 6-9 entry H          line    18 file /opt/psi/4/master/share/psi4/basis/def2-universal-jkfit.gbs 

  ==> Integral Setup <==

  DFHelper Memory: AOs need 0.110 GiB; user supplied 5.841 GiB. Using in-core AOs.

  ==> MemDFJK: Density-Fitted J/K Matrices <==

    J tasked:                   Yes
    K tasked:                   Yes
    wK tasked:                   No
    OpenMP threads:               4
    Memory [MiB]:              5981
    Algorithm:                 Core
    Schwarz Cutoff:           1E-12
    Mask sparsity (%):       1.0742
    Fitting Condition:        1E-10

   => Auxiliary Basis Set <=

  Basis Set: (ANONYMOUS3814FA24 AUX)
    Blend: DEF2-UNIVERSAL-JKFIT
    Number of shells: 162
    Number of basis function: 500
    Number of Cartesian functions: 591
    Spherical Harmonics?: true
    Max angular momentum: 4

  Cached 100.0% of DFT collocation blocks in 3.938 [GiB].

  Minimum eigenvalue in the overlap matrix is 3.0359956677E-04.
  Reciprocal condition number of the overlap matrix is 5.1286124588E-05.
    Using symmetric orthogonalization.

  ==> Pre-Iterations <==

  SCF Guess: Superposition of Atomic Densities via on-the-fly atomic UHF (no occupation information).

   -------------------------
    Irrep   Nso     Nmo    
   -------------------------
     A        166     166 
   -------------------------
    Total     166     166
   -------------------------

  ==> Iterations <==

                           Total Energy        Delta E     RMS |[F,P]|

   @DF-RKS iter SAD:  -552.77193674909017   -5.52772e+02   0.00000e+00 
   @DF-RKS iter   1:  -552.67334275439134    9.85940e-02   4.70703e-03 DIIS
   @DF-RKS iter   2:  -552.20621791926953    4.67125e-01   7.12817e-03 DIIS
   @DF-RKS iter   3:  -553.00139491196830   -7.95177e-01   9.84912e-04 DIIS
   @DF-RKS iter   4:  -553.01141543649078   -1.00205e-02   6.70918e-04 DIIS
   @DF-RKS iter   5:  -553.01823671148145   -6.82127e-03   1.40802e-04 DIIS
   @DF-RKS iter   6:  -553.01850952334200   -2.72812e-04   2.91416e-05 DIIS
   @DF-RKS iter   7:  -553.01852218466843   -1.26613e-05   5.66555e-06 DIIS
   @DF-RKS iter   8:  -553.01852258759425   -4.02926e-07   2.61071e-06 DIIS
   @DF-RKS iter   9:  -553.01852268213690   -9.45427e-08   9.48603e-07 DIIS
   @DF-RKS iter  10:  -553.01852269673213   -1.45952e-08   8.39139e-08 DIIS
   @DF-RKS iter  11:  -553.01852269687083   -1.38698e-10   2.17026e-08 DIIS
   @DF-RKS iter  12:  -553.01852269687492   -4.09273e-12   1.52166e-08 DIIS
   @DF-RKS iter  13:  -553.01852269687811   -3.18323e-12   1.36753e-09 DIIS
   @DF-RKS iter  14:  -553.01852269687777    3.41061e-13   2.60924e-10 DIIS
   @DF-RKS iter  15:  -553.01852269687799   -2.27374e-13   6.26392e-11 DIIS
  Energy and wave function converged.


  ==> Post-Iterations <==

    Orbital Energies [Eh]
    ---------------------

    Doubly Occupied:                                                      

       1A    -88.894767     2A    -10.203169     3A    -10.202890  
       4A    -10.183828     5A    -10.183498     6A     -7.963317  
       7A     -5.926732     8A     -5.923150     9A     -5.921146  
      10A     -0.872114    11A     -0.728169    12A     -0.717749  
      13A     -0.558969    14A     -0.548423    15A     -0.509740  
      16A     -0.407884    17A     -0.387306    18A     -0.382935  
      19A     -0.375010    20A     -0.339691    21A     -0.248132  
      22A     -0.232894  

    Virtual:                                                              

      23A     -0.008565    24A      0.036163    25A      0.063957  
      26A      0.096780    27A      0.106966    28A      0.139391  
      29A      0.159455    30A      0.161618    31A      0.219490  
      32A      0.265324    33A      0.269789    34A      0.314442  
      35A      0.349879    36A      0.358276    37A      0.391113  
      38A      0.415333    39A      0.420551    40A      0.421085  
      41A      0.421389    42A      0.474394    43A      0.477705  
      44A      0.478621    45A      0.515697    46A      0.576214  
      47A      0.602882    48A      0.608414    49A      0.626102  
      50A      0.628759    51A      0.644795    52A      0.646183  
      53A      0.650568    54A      0.690152    55A      0.696649  
      56A      0.730925    57A      0.738128    58A      0.761635  
      59A      0.823067    60A      0.826692    61A      0.898971  
      62A      0.907636    63A      0.908317    64A      0.928923  
      65A      0.950662    66A      0.961102    67A      1.034734  
      68A      1.047394    69A      1.083779    70A      1.084751  
      71A      1.103951    72A      1.143638    73A      1.190177  
      74A      1.220413    75A      1.230344    76A      1.305201  
      77A      1.308753    78A      1.324566    79A      1.342781  
      80A      1.350185    81A      1.386249    82A      1.395983  
      83A      1.452215    84A      1.555532    85A      1.588414  
      86A      1.616680    87A      1.648863    88A      1.687336  
      89A      1.746520    90A      1.817506    91A      1.824385  
      92A      1.844828    93A      1.900981    94A      1.925234  
      95A      2.003841    96A      2.027780    97A      2.169223  
      98A      2.186273    99A      2.327242   100A      2.347910  
     101A      2.365660   102A      2.389246   103A      2.405329  
     104A      2.457877   105A      2.667763   106A      2.684749  
     107A      2.734147   108A      2.803596   109A      2.832972  
     110A      2.837742   111A      2.858369   112A      2.899075  
     113A      2.930799   114A      3.000161   115A      3.048254  
     116A      3.115190   117A      3.119883   118A      3.126434  
     119A      3.204577   120A      3.224034   121A      3.229263  
     122A      3.230383   123A      3.238524   124A      3.281201  
     125A      3.293645   126A      3.299749   127A      3.334906  
     128A      3.335064   129A      3.338836   130A      3.394476  
     131A      3.467259   132A      3.484264   133A      3.530163  
     134A      3.560066   135A      3.565755   136A      3.619525  
     137A      3.685313   138A      3.692734   139A      3.753574  
     140A      3.765288   141A      3.783125   142A      3.826328  
     143A      3.934589   144A      3.940363   145A      4.041855  
     146A      4.054788   147A      4.095623   148A      4.114238  
     149A      4.175667   150A      4.212936   151A      4.269666  
     152A      4.344353   153A      4.375583   154A      4.435005  
     155A      4.495410   156A      4.602392   157A      4.629665  
     158A      4.716823   159A      4.766540   160A      4.932458  
     161A      5.013687   162A      5.114401   163A      5.174449  
     164A      5.413369   165A      5.543912   166A      5.631085  

    Final Occupation by Irrep:
              A 
    DOCC [    22 ]

  @DF-RKS Final Energy:  -553.01852269687799

   => Energetics <=

    Nuclear Repulsion Energy =            202.3277868430936905
    One-Electron Energy =               -1159.0399560601194935
    Two-Electron Energy =                 443.1835643086241134
    DFT Exchange-Correlation Energy =     -39.4899177884762622
    Empirical Dispersion Energy =           0.0000000000000000
    VV10 Nonlocal Energy =                  0.0000000000000000
    Total Energy =                       -553.0185226968779943

Computation Completed


Properties will be evaluated at   0.000000,   0.000000,   0.000000 [a0]

Properties computed using the SCF density matrix

  Nuclear Dipole Moment: [e a0]
     X:    -0.0000      Y:    -0.0003      Z:    -3.6598

  Electronic Dipole Moment: [e a0]
     X:    -0.0000      Y:     0.0004      Z:     3.4314

  Dipole Moment: [e a0]
     X:    -0.0000      Y:     0.0001      Z:    -0.2284     Total:     0.2284

  Dipole Moment: [D]
     X:    -0.0000      Y:     0.0002      Z:    -0.5806     Total:     0.5806


*** tstop() called on n049 at Wed Nov 17 10:42:56 2021
Module time:
	user time   =      89.89 seconds =       1.50 minutes
	system time =       1.31 seconds =       0.02 minutes
	total time  =         24 seconds =       0.40 minutes
Total time:
	user time   =      89.89 seconds =       1.50 minutes
	system time =       1.31 seconds =       0.02 minutes
	total time  =         24 seconds =       0.40 minutes
Grab this energy -553.018522696878
    Psi4 stopped on: Wednesday, 17 November 2021 10:42AM
    Psi4 wall time for execution: 0:00:23.34

*** Psi4 exiting successfully. Buy a developer a beer!
