
 Primary working directories    : /tmp/1049102.1669.gen4.q
 Secondary working directories  : /tmp/1049102.1669.gen4.q
 Wavefunction directory         : /home/vulcan/mel64643/wfu/
 Main file repository           : /tmp/1049102.1669.gen4.q/

 ARCHNAME  : Linux/x86_64
 FC        : /opt/intel/compilers_and_libraries_2016.1.150/linux/bin/intel64/ifort
 FCVERSION : 16.0.1
 BLASLIB   : -mkl
 id        : ccgc

 Nodes     nprocs
 n054         1
 ga_uses_ma=false, calling ma_init with nominal heap.
 GA-space will be limited to   8.0 MW (determined by -G option)

 Using customized tuning parameters: mindgm=10; mindgv=16; mindgc=4; mindgr=1; noblas=0; mincuda=1000; minvec=7
 default implementation of scratch files=df  

 ***,Optimization of h2o_3
 memory,1000,m
 gthresh,energy=1.0d-12,orbital=1.0d-10,oneint=1.0d-16,twoint=1.0d-16,optgrad=1.0d-6,compress=1.0d-13
 geomtyp=xyz
 
 
 
 bohr
 geometry = {
  C    0.9166871637    1.4052774293   -2.2729945932
  C    0.7411795168    2.7090910932    0.0185052886
  C    1.0032986832    1.4062564552    2.3024400884
  C    1.4301105077   -1.2019645434    2.2950520871
  C    1.6063461302   -2.5052876443    0.0035948507
  C    1.3442869225   -1.2022301873   -2.2801365996
  H    0.7115681116    2.4152676401   -4.0428726081
  H    0.3776668512    4.7244077634    0.0246146905
  H    0.8590702323    2.4157904255    4.0788062862
  H    1.6234932159   -2.2129891675    4.0660757187
  H    1.9523737559   -4.5241598737   -0.0024888443
  H    1.4814241833   -2.2123796347   -4.0570006236
  N   -5.4428521086   -0.3556565561   -0.0702950074
  H   -5.5919941689   -1.5669546144   -1.5507704804
  H   -6.0696670584   -1.3136260169    1.4693601669
  H   -3.5620600715   -0.0726321665    0.1981872564
 }
 
 basis=aug-cc-pvdz, H=cc-pvdz
 {rhf;maxit,200}
 {ccsd(t)}

 Variables initialized (661), CPU time= 0.01 sec
 Commands  initialized (458), CPU time= 0.00 sec, 486 directives.
 Default parameters read. Elapsed time= 0.04 sec

 Checking input...
 Passed
1


                                         ***  PROGRAM SYSTEM MOLPRO  ***
                         Copyright, University College Cardiff Consultants Limited, 2008

                                    Version 2010.1 linked May 16 2016 07:17:05


 **********************************************************************************************************************************
 LABEL *   Optimization of h2o_3                                                         
 Linux-4.4.3/n054(x86_64) 64 bit mpp version                                             DATE: 21-Mar-24          TIME: 14:03:37  
 **********************************************************************************************************************************

 SHA1:             9e8077add272b0f3cad6f7df79ec5211205f459d
 **********************************************************************************************************************************

 THRESHOLDS:

 ZERO    =  1.00D-12  ONEINT  =  1.00D-16  TWOINT  =  1.00D-16  PREFAC  =  1.00D-14  LOCALI  =  1.00D-09  EORDER  =  1.00D-04
 ENERGY  =  1.00D-12  ETEST   =  0.00D+00  EDENS   =  0.00D+00  THRDEDEF=  1.00D-06  GRADIENT=  1.00D-02  STEP    =  1.00D-03
 ORBITAL =  1.00D-10  CIVEC   =  1.00D-05  COEFF   =  1.00D-04  PRINTCI =  5.00D-02  PUNCHCI =  9.90D+01  OPTGRAD =  1.00D-06
 OPTENERG=  1.00D-06  OPTSTEP =  3.00D-04  THRGRAD =  1.00D-10  COMPRESS=  1.00D-13  VARMIN  =  1.00D-07  VARMAX  =  1.00D-03
 THRDOUB =  0.00D+00  THRDIV  =  1.00D-05  THRRED  =  1.00D-07  THRPSP  =  1.00D+00  THRDC   =  1.00D-10  THRCS   =  1.00D-10
 THRNRM  =  1.00D-08  THREQ   =  0.00D+00  THRDE   =  1.00D+00  THRREF  =  1.00D-05  SPARFAC =  1.00D+00  THRDLP  =  1.00D-07
 THRDIA  =  1.00D-10  THRDLS  =  1.00D-07  THRGPS  =  0.00D+00  THRKEX  =  0.00D+00  THRDIS  =  2.00D-01  THRVAR  =  1.00D-10
 THRLOC  =  1.00D-06  THRGAP  =  1.00D-06  THRLOCT = -1.00D+00  THRGAPT = -1.00D+00  THRORB  =  1.00D-06  THRMLTP =  0.00D+00
 THRCPQCI=  1.00D-10  KEXTA   =  0.00D+00  THRCOARS=  0.00D+00  SYMTOL  =  1.00D-06  GRADTOL =  1.00D-06  THROVL  =  1.00D-08
 THRORTH =  1.00D-08  GRID    =  1.00D-06  GRIDMAX =  1.00D-03  DTMAX   =  0.00D+00

 SETTING GEOMTYP        =    XYZ
 ZUNIT=BOHR
 

 Variable memory set to 1000000000 words,  buffer space   230000 words

 SETTING BASIS          =    AUG-CC-PVDZ,H=CC-PVDZ


 Recomputing integrals since basis changed


 Using spherical harmonics

 Library entry C      S aug-cc-pVDZ          selected for orbital group  1
 Library entry C      P aug-cc-pVDZ          selected for orbital group  1
 Library entry C      D aug-cc-pVDZ          selected for orbital group  1
 Library entry H      S cc-pVDZ              selected for orbital group  2
 Library entry H      P cc-pVDZ              selected for orbital group  2
 Library entry N      S aug-cc-pVDZ          selected for orbital group  3
 Library entry N      P aug-cc-pVDZ          selected for orbital group  3
 Library entry N      D aug-cc-pVDZ          selected for orbital group  3

1PROGRAM * SEWARD (Integral evaluation for generally contracted gaussian basis sets)     Author: Roland Lindh, 1990

 Geometry written to block  1 of record 700


 Point group  C1  



 ATOMIC COORDINATES

 NR  ATOM    CHARGE       X              Y              Z

   1  C       6.00    0.916687164    1.405277429   -2.272994593
   2  C       6.00    0.741179517    2.709091093    0.018505289
   3  C       6.00    1.003298683    1.406256455    2.302440088
   4  C       6.00    1.430110508   -1.201964543    2.295052087
   5  C       6.00    1.606346130   -2.505287644    0.003594851
   6  C       6.00    1.344286923   -1.202230187   -2.280136600
   7  H       1.00    0.711568112    2.415267640   -4.042872608
   8  H       1.00    0.377666851    4.724407763    0.024614691
   9  H       1.00    0.859070232    2.415790426    4.078806286
  10  H       1.00    1.623493216   -2.212989167    4.066075719
  11  H       1.00    1.952373756   -4.524159874   -0.002488844
  12  H       1.00    1.481424183   -2.212379635   -4.057000624
  13  N       7.00   -5.442852109   -0.355656556   -0.070295007
  14  H       1.00   -5.591994169   -1.566954614   -1.550770480
  15  H       1.00   -6.069667058   -1.313626017    1.469360167
  16  H       1.00   -3.562060071   -0.072632166    0.198187256

 Bond lengths in Bohr (Angstrom)

 1-2  2.642291565  1-6  2.642345271  1-7  2.048077694  2-3  2.642431214  2-8  2.047847666
     ( 1.398240476)     ( 1.398268896)     ( 1.083796038)     ( 1.398314375)     ( 1.083674312)

  3- 4  2.642922567   3- 9  2.048276727   4- 5  2.642061007   4-10  2.048436566   5- 6  2.642359382
       ( 1.398574387)       ( 1.083901362)       ( 1.398118470)       ( 1.083985945)       ( 1.398276363)

  5-11  2.048320582   6-12  2.048524907  13-14  1.918669843  13-15  1.918629856  13-16  1.920823838
       ( 1.083924569)       ( 1.084032693)       ( 1.015316352)       ( 1.015295192)       ( 1.016456198)

 Bond angles

  1- 2- 3  119.98050061   1- 2- 8  119.99866791   1- 6- 5  120.02336377   1- 6-12  119.98591528

  2-1-6  120.00183534   2-1-7  119.96366107   2-3-4  120.01148203   2-3-9  119.97346034

  3- 2- 8  120.01597146   3- 4- 5  120.00115674   3- 4-10  119.99388685   4- 3- 9  120.01285171

  4- 5- 6  119.98054207   4- 5-11  120.00332240   5- 4-10  120.00495170   5- 6-12  119.99009907

  6- 1- 7  120.03376368   6- 5-11  120.01580844  14-13-15  106.17607583  14-13-16  106.08043224

 15-13-16  106.33745550

 NUCLEAR CHARGE:                   52
 NUMBER OF PRIMITIVE AOS:         322
 NUMBER OF SYMMETRY AOS:          308
 NUMBER OF CONTRACTIONS:          206   ( 206A   )
 NUMBER OF CORE ORBITALS:           7   (   7A   )
 NUMBER OF VALENCE ORBITALS:       37   (  37A   )


 NUCLEAR REPULSION ENERGY  273.71031180


 Eigenvalues of metric

         1 0.862E-05 0.184E-04 0.228E-04 0.532E-04 0.643E-04 0.644E-04 0.107E-03 0.107E-03


 Contracted 2-electron integrals neglected if value below      1.0D-16
 AO integral compression algorithm  1   Integral accuracy      1.0D-16

     1892.418 MB (compressed) written to integral file ( 94.5%)

     Node minimum: 1892.418 MB, node maximum: 1892.418 MB


 NUMBER OF SORTED TWO-ELECTRON INTEGRALS:  227303181.     BUFFER LENGTH:  32768
 NUMBER OF SEGMENTS:  15  SEGMENT LENGTH:   15999503      RECORD LENGTH: 524288

 Memory used in sort:      16.56 MW

 SORT1 READ   250230211. AND WROTE   226407925. INTEGRALS IN    654 RECORDS. CPU TIME:     2.41 SEC, REAL TIME:     4.14 SEC
 SORT2 READ   226407925. AND WROTE   227303181. INTEGRALS IN   7219 RECORDS. CPU TIME:     1.42 SEC, REAL TIME:     2.33 SEC

 FILE SIZES:   FILE 1:  1743.2 MBYTE,  FILE 4:  2743.1 MBYTE,   TOTAL:   4486.3 MBYTE

 OPERATOR DM      FOR CENTER  0  COORDINATES:    0.000000    0.000000    0.000000


 **********************************************************************************************************************************
 DATASETS  * FILE   NREC   LENGTH (MB)   RECORD NAMES
              1      19     1743.69       500      610      700      900      950      970     1000      129      960     1100   
                                          VAR    BASINP    GEOM    SYMINP    ZMAT    AOBASIS   BASIS     P2S    ABASIS      S 
                                         1400     1410     1200     1210     1080     1600     1650     1300     1700   
                                           T        V       H0       H01     AOSYM     SMH    MOLCAS    ERIS     OPER   

 PROGRAMS   *        TOTAL       INT
 CPU TIMES  *        14.64     14.59
 REAL TIME  *        18.38 SEC
 DISK USED  *         6.38 GB      
 GA USED    *         0.01 MB       (max)       0.00 MB       (current)
 **********************************************************************************************************************************

1PROGRAM * RHF-SCF (CLOSED SHELL)       Authors: W. Meyer, H.-J. Werner


 NUMBER OF ELECTRONS:      26+   26-    SPACE SYMMETRY=1    SPIN SYMMETRY: Singlet 
 CONVERGENCE THRESHOLDS:    1.00E-10 (Density)    1.00E-13 (Energy)
 MAX. NUMBER OF ITERATIONS:      200
 INTERPOLATION TYPE:            DIIS
 INTERPOLATION STEPS:              2 (START)      1 (STEP)
 LEVEL SHIFTS:                  0.00 (CLOSED)  0.00 (OPEN) 



 Orbital guess generated from atomic densities. Full valence occupancy:   44

 Molecular orbital dump at record        2100.2

 ITERATION    DDIFF          GRAD             ENERGY        2-EL.EN.            DIPOLE MOMENTS         DIIS
    1      0.000D+00      0.000D+00      -286.85324011    740.882931    0.51915   -0.76815    0.13618    0
    2      0.000D+00      0.322D-02      -286.92079690    735.092584    0.43501   -0.38457    0.06230    1
    3      0.826D-02      0.133D-02      -286.93012469    737.724333    0.45146   -0.52312    0.09229    2
    4      0.218D-02      0.381D-03      -286.93134275    737.204566    0.45011   -0.49635    0.08453    3
    5      0.783D-03      0.526D-04      -286.93136657    737.193321    0.45590   -0.50649    0.08848    4
    6      0.135D-03      0.177D-04      -286.93136900    737.208223    0.45477   -0.50097    0.08640    5
    7      0.511D-04      0.554D-05      -286.93136927    737.205141    0.45542   -0.50319    0.08715    6
    8      0.149D-04      0.129D-05      -286.93136929    737.204137    0.45557   -0.50284    0.08701    7
    9      0.417D-05      0.542D-06      -286.93136930    737.204595    0.45561   -0.50293    0.08704    7
   10      0.148D-05      0.142D-06      -286.93136930    737.204543    0.45561   -0.50293    0.08704    7
   11      0.511D-06      0.402D-07      -286.93136930    737.204529    0.45562   -0.50293    0.08704    7
   12      0.138D-06      0.168D-07      -286.93136930    737.204543    0.45562   -0.50293    0.08704    8
   13      0.578D-07      0.719D-08      -286.93136930    737.204538    0.45562   -0.50293    0.08704    8
   14      0.308D-07      0.346D-08      -286.93136930    737.204540    0.45562   -0.50293    0.08704    8
   15      0.188D-07      0.135D-08      -286.93136930    737.204539    0.45562   -0.50293    0.08704    8
   16      0.701D-08      0.451D-09      -286.93136930    737.204539    0.45562   -0.50293    0.08704    9
   17      0.221D-08      0.124D-09      -286.93136930    737.204539    0.45562   -0.50293    0.08704    9
   18      0.413D-09      0.381D-10      -286.93136930    737.204539    0.45562   -0.50293    0.08704    8
   19      0.316D-09      0.155D-10      -286.93136930    737.204539    0.45562   -0.50293    0.08704    9
   20      0.260D-09      0.833D-11      -286.93136930    737.204539    0.45562   -0.50293    0.08704    9
   21      0.103D-09      0.410D-11      -286.93136930    737.204539    0.45562   -0.50293    0.08704    9
   22      0.160D-09      0.128D-11      -286.93136930    737.204539    0.45562   -0.50293    0.08704    9
   23      0.139D-09      0.901D-12      -286.93136930    737.204539    0.45562   -0.50293    0.08704    9
   24      0.130D-09      0.671D-12      -286.93136930    737.204539    0.45562   -0.50293    0.08704    9
   25      0.551D-10      0.646D-12      -286.93136930    737.204539    0.45562   -0.50293    0.08704    9
   26      0.584D-10      0.572D-12      -286.93136930    737.204539    0.45562   -0.50293    0.08704    9
   27      0.328D-10      0.522D-12      -286.93136930    737.204539    0.45562   -0.50293    0.08704    9
   28      0.266D-10      0.434D-12      -286.93136930    737.204539    0.45562   -0.50293    0.08704    9
   29      0.174D-10      0.440D-12      -286.93136930    737.204539    0.45562   -0.50293    0.08704    9
   30      0.189D-10      0.432D-12      -286.93136930    737.204539    0.45562   -0.50293    0.08704    9
   31      0.144D-10      0.451D-12      -286.93136930    737.204539    0.45562   -0.50293    0.08704    9
   32      0.192D-10      0.455D-12      -286.93136930    737.204539    0.45562   -0.50293    0.08704    9
   33      0.140D-10      0.422D-12      -286.93136930    737.204539    0.45562   -0.50293    0.08704    9
   34      0.128D-10      0.437D-12      -286.93136930    737.204539    0.45562   -0.50293    0.08704    9
   35      0.147D-10      0.451D-12      -286.93136930    737.204539    0.45562   -0.50293    0.08704    9
   36      0.186D-10      0.483D-12      -286.93136930    737.204539    0.45562   -0.50293    0.08704    9
   37      0.945D-11      0.479D-12      -286.93136930    737.204539    0.45562   -0.50293    0.08704    9
   38      0.248D-10      0.387D-12      -286.93136930    737.204539    0.45562   -0.50293    0.08704    9
   39      0.170D-10      0.528D-12      -286.93136930    737.204539    0.45562   -0.50293    0.08704    9
   40      0.227D-10      0.519D-12      -286.93136930    737.204539    0.45562   -0.50293    0.08704    9
   41      0.265D-10      0.560D-12      -286.93136930    737.204539    0.45562   -0.50293    0.08704    9
   42      0.183D-10      0.510D-12      -286.93136930    737.204539    0.45562   -0.50293    0.08704    9
   43      0.239D-10      0.550D-12      -286.93136930    737.204539    0.45562   -0.50293    0.08704    9
   44      0.195D-10      0.399D-12      -286.93136930    737.204539    0.45562   -0.50293    0.08704    9
   45      0.179D-10      0.469D-12      -286.93136930    737.204539    0.45562   -0.50293    0.08704    9
   46      0.133D-10      0.588D-12      -286.93136930    737.204539    0.45562   -0.50293    0.08704    0

 Final occupancy:  26

 !RHF STATE 1.1 Energy               -286.931369296567
 Nuclear energy                       273.71031180
 One-electron energy                 -929.24395065
 Two-electron energy                  368.60226955
 Virial quotient                       -1.00146538
 !RHF STATE 1.1 Dipole moment           0.45561953    -0.50293223     0.08704217
 Dipole moment /Debye                   1.15799348    -1.27824249     0.22122463

 Orbital energies:

         1.1          2.1          3.1          4.1          5.1          6.1          7.1          8.1          9.1         10.1
    -15.535012   -11.250630   -11.250023   -11.249674   -11.248802   -11.248661   -11.247828    -1.157502    -1.125565    -1.022054

        11.1         12.1         13.1         14.1         15.1         16.1         17.1         18.1         19.1         20.1
     -1.021949    -0.830635    -0.830536    -0.714499    -0.650453    -0.623919    -0.611677    -0.609822    -0.593579    -0.593457

        21.1         22.1         23.1         24.1         25.1         26.1         27.1         28.1
     -0.504900    -0.500099    -0.500028    -0.413443    -0.342974    -0.341982     0.063878     0.066423


 **********************************************************************************************************************************
 DATASETS  * FILE   NREC   LENGTH (MB)   RECORD NAMES
              1      19     1743.69       500      610      700      900      950      970     1000      129      960     1100   
                                          VAR    BASINP    GEOM    SYMINP    ZMAT    AOBASIS   BASIS     P2S    ABASIS      S 
                                         1400     1410     1200     1210     1080     1600     1650     1300     1700   
                                           T        V       H0       H01     AOSYM     SMH    MOLCAS    ERIS     OPER   

              2       3        1.40       700     1000     2100   
                                         GEOM     BASIS     RHF  

 PROGRAMS   *        TOTAL       RHF       INT
 CPU TIMES  *        93.98     79.34     14.59
 REAL TIME  *       106.23 SEC
 DISK USED  *         6.38 GB      
 GA USED    *         0.01 MB       (max)       0.00 MB       (current)
 **********************************************************************************************************************************


1PROGRAM * CCSD (Closed-shell coupled cluster)     Authors: C. Hampel, H.-J. Werner, 1991, M. Deegan, P.J. Knowles, 1992


 Convergence thresholds:  THRVAR = 1.00D-08  THRDEN = 1.00D-12

 CCSD(T)     terms to be evaluated (factor= 1.000)


 Number of core orbitals:           7 (   7 )
 Number of closed-shell orbitals:  19 (  19 )
 Number of external orbitals:     180 ( 180 )

 Molecular orbitals read from record     2100.2  Type=RHF/CANONICAL (state 1.1)

 Number of N-1 electron functions:              19
 Number of N-2 electron functions:             190
 Number of singly external CSFs:              3420
 Number of doubly external CSFs:           5849910
 Total number of CSFs:                     5853331

 Length of J-op  integral file:               0.00 MB
 Length of K-op  integral file:               2.96 MB
 Length of 3-ext integral record:             0.00 MB

 Memory could be reduced to 140.12 Mwords without degradation in triples

 Integral transformation finished. Total CPU:  13.93 sec, npass=  1  Memory used: 101.90 MW

 Reference energy:                   -286.93136930

 MP2 singlet pair energy:              -0.62063151
 MP2 triplet pair energy:              -0.38983286
 MP2 correlation energy:               -1.01046437
 MP2 total energy:                   -287.94183366

 SCS-MP2 correlation energy:           -0.98732048   (PS=  1.200000  PT=  0.333333)
 SCS-MP2 total energy:               -287.91868977

 ITER.      SQ.NORM     CORR.ENERGY   TOTAL ENERGY   ENERGY CHANGE        DEN1      VAR(S)    VAR(P)  DIIS     TIME
   1      1.38488288    -1.05475710  -287.98612640    -0.04429273    -0.01721412  0.36D-02  0.80D-02  1  1    50.87
   2      1.41439597    -1.06061985  -287.99198915    -0.00586275    -0.02705300  0.63D-04  0.10D-02  2  2    88.27
   3      1.42352719    -1.06071559  -287.99208489    -0.00009574    -0.00464348  0.27D-04  0.84D-04  3  3   125.72
   4      1.42746462    -1.06088435  -287.99225365    -0.00016876    -0.00121416  0.22D-05  0.11D-04  4  4   163.20
   5      1.42867829    -1.06091530  -287.99228460    -0.00003095    -0.00027322  0.27D-06  0.13D-05  5  5   200.66
   6      1.42898088    -1.06090507  -287.99227436     0.00001024    -0.00004349  0.23D-07  0.79D-07  6  6   238.18
   7      1.42902163    -1.06090670  -287.99227599    -0.00000163    -0.00000103  0.35D-08  0.82D-08  6  2   275.65
   8      1.42903082    -1.06090655  -287.99227585     0.00000014    -0.00000117  0.75D-09  0.76D-09  6  1   313.20
   9      1.42903065    -1.06090669  -287.99227599    -0.00000014     0.00000123  0.21D-09  0.92D-10  6  4   350.71
  10      1.42903184    -1.06090670  -287.99227600    -0.00000001    -0.00000018  0.57D-10  0.15D-10  6  3   388.22
  11      1.42903179    -1.06090672  -287.99227601    -0.00000002     0.00000013  0.14D-10  0.37D-11  6  5   425.71
  12      1.42903175    -1.06090672  -287.99227602    -0.00000000     0.00000003  0.15D-11  0.10D-11  6  6   463.24
  13      1.42903157    -1.06090672  -287.99227602    -0.00000000     0.00000006  0.69D-13  0.20D-12  6  2   500.76
  14      1.42903147    -1.06090672  -287.99227602    -0.00000000     0.00000002  0.81D-14  0.40D-13  6  1   538.28
  15      1.42903141    -1.06090672  -287.99227602    -0.00000000     0.00000001  0.89D-15  0.54D-14  6  3   575.80
  16      1.42903139    -1.06090672  -287.99227602    -0.00000000     0.00000000  0.12D-15  0.37D-15  6  4   613.30
  17      1.42903139    -1.06090672  -287.99227602    -0.00000000     0.00000000  0.31D-16  0.44D-16  6  5   650.84
  18      1.42903138    -1.06090672  -287.99227602    -0.00000000     0.00000000  0.81D-17  0.71D-17  6  6   688.36
  19      1.42903138    -1.06090672  -287.99227602    -0.00000000     0.00000000  0.24D-17  0.76D-18  6  2   725.89
  20      1.42903138    -1.06090672  -287.99227602    -0.00000000     0.00000000  0.76D-18  0.18D-18  6  1   763.41
  21      1.42903138    -1.06090672  -287.99227602    -0.00000000     0.00000000  0.30D-18  0.77D-19  6  3   800.97
  22      1.42903138    -1.06090672  -287.99227602    -0.00000000     0.00000000  0.12D-18  0.36D-19  6  4   838.47
  23      1.42903138    -1.06090672  -287.99227602    -0.00000000     0.00000000  0.50D-19  0.20D-19  6  6   875.99

 Norm of t1 vector:      0.08385739      S-energy:    -0.00000000      T1 diagnostic:  0.00961910
                                                                       D1 diagnostic:  0.02620008

 Doubles amplitudes (print threshold =  0.500E-01):

         I         J         SYM. A    SYM. B    A         B      T(IJ, AB)

        18        18         1         1         6         6     -0.05092870
        19        19         1         1         7         7     -0.05434050


 Total CPU time for triples:    733.02 sec


 RESULTS
 =======

  Reference energy                   -286.931369296569
  CCSD singlet pair energy             -0.711156161472
  CCSD triplet pair energy             -0.349750563163
  CCSD correlation energy              -1.060906724635

  Triples (T) contribution             -0.045602702181
  Total correlation energy             -1.106509426816

  CCSD total energy                  -287.992276021204
  CCSD[T] energy                     -288.038748916911
  CCSD-T energy                      -288.037490193492
 !CCSD(T) total energy               -288.037878723384

 Timing summary (sec):

 STEP                 CPU(USER)    SYS     CPU(TOT)    WALL
 Transformation         14.34      0.88     15.22     15.23
 CCSD iterations       861.67     12.36    874.03    874.14
 Triples               733.02     11.46    744.48    744.48

 Program statistics:

 Available memory in ccsd:               999998456
 Min. memory needed in ccsd:              14392275
 Max. memory used in ccsd:                19775697
 Max. memory used in cckext:              16737545 (23 integral passes)



 **********************************************************************************************************************************
 DATASETS  * FILE   NREC   LENGTH (MB)   RECORD NAMES
              1      20     2287.29       500      610      700      900      950      970     1000      129      960     1100   
                                          VAR    BASINP    GEOM    SYMINP    ZMAT    AOBASIS   BASIS     P2S    ABASIS      S 
                                         1400     1410     1200     1210     1080     1600     1650     1300     1700     1380   
                                           T        V       H0       H01     AOSYM     SMH    MOLCAS    ERIS     OPER     JKOP   

              2       3        1.40       700     1000     2100   
                                         GEOM     BASIS     RHF  

 PROGRAMS   *        TOTAL   CCSD(T)       RHF       INT
 CPU TIMES  *      1703.03   1609.05     79.34     14.59
 REAL TIME  *      1740.18 SEC
 DISK USED  *         6.38 GB      
 GA USED    *         0.01 MB       (max)       0.00 MB       (current)
 **********************************************************************************************************************************

        CCSD(T)         RHF-SCF 
   -288.03787872   -286.93136930
 **********************************************************************************************************************************
 Variable memory released
