
 Primary working directories    : /tmp/1047041.930.gen5.q
 Secondary working directories  : /tmp/1047041.930.gen5.q
 Wavefunction directory         : /home/vulcan/mel64643/wfu/
 Main file repository           : /tmp/1047041.930.gen5.q/

 ARCHNAME  : Linux/x86_64
 FC        : /opt/intel/compilers_and_libraries_2016.1.150/linux/bin/intel64/ifort
 FCVERSION : 16.0.1
 BLASLIB   : -mkl
 id        : ccgc

 Nodes     nprocs
 n073         1
 ga_uses_ma=false, calling ma_init with nominal heap.
 GA-space will be limited to   8.0 MW (determined by -G option)

 Using customized tuning parameters: mindgm=10; mindgv=16; mindgc=4; mindgr=1; noblas=0; mincuda=1000; minvec=7
 default implementation of scratch files=df  

 ***,Optimization of ben_hcn
 memory,1000,m
 gthresh,energy=1.0d-12,orbital=1.0d-10,oneint=1.0d-16,twoint=1.0d-16,optgrad=1.0d-6,compress=1.0d-13
 geomtyp=xyz
 
 
 
 bohr
 geometry = {
  C   -1.8865709000    1.3695064431    2.2860932627
  C   -1.8594831351    2.6902255869   -0.0037743492
  C   -1.8768947814    1.3676425997   -2.2926448966
  C   -1.9213569224   -1.2754492653   -2.2915642281
  C   -1.9484308962   -2.5959857065   -0.0018271251
  C   -1.9310121921   -1.2736048882    2.2869515592
  H   -1.8672592816    2.3939467509    4.0593188356
  H   -1.8193941940    4.7378069333    0.0027061562
  H   -1.8500200187    2.3843522389   -4.0702104640
  H   -1.9284018113   -2.3000908698   -4.0647333606
  H   -1.9762112315   -4.6437211411   -0.0082851000
  H   -1.9454969570   -2.2905555717    4.0645027519
  N    6.6321288775   -0.1993644259    0.0073735920
  C    4.4424351621   -0.0760887439    0.0102159364
  H    2.4227695288    0.0379036075    0.0129779436
 }
 
 basis=aug-cc-pvdz, H=cc-pvdz
 {rhf;maxit,200}
 {ccsd(t)}

 Variables initialized (661), CPU time= 0.01 sec
 Commands  initialized (458), CPU time= 0.00 sec, 486 directives.
 Default parameters read. Elapsed time= 0.04 sec

 Checking input...
 Passed
1


                                         ***  PROGRAM SYSTEM MOLPRO  ***
                         Copyright, University College Cardiff Consultants Limited, 2008

                                    Version 2010.1 linked May 16 2016 07:17:05


 **********************************************************************************************************************************
 LABEL *   Optimization of ben_hcn                                                       
 Linux-4.4.3/n073(x86_64) 64 bit mpp version                                             DATE: 08-Mar-24          TIME: 17:50:07  
 **********************************************************************************************************************************

 SHA1:             9e8077add272b0f3cad6f7df79ec5211205f459d
 **********************************************************************************************************************************

 THRESHOLDS:

 ZERO    =  1.00D-12  ONEINT  =  1.00D-16  TWOINT  =  1.00D-16  PREFAC  =  1.00D-14  LOCALI  =  1.00D-09  EORDER  =  1.00D-04
 ENERGY  =  1.00D-12  ETEST   =  0.00D+00  EDENS   =  0.00D+00  THRDEDEF=  1.00D-06  GRADIENT=  1.00D-02  STEP    =  1.00D-03
 ORBITAL =  1.00D-10  CIVEC   =  1.00D-05  COEFF   =  1.00D-04  PRINTCI =  5.00D-02  PUNCHCI =  9.90D+01  OPTGRAD =  1.00D-06
 OPTENERG=  1.00D-06  OPTSTEP =  3.00D-04  THRGRAD =  1.00D-10  COMPRESS=  1.00D-13  VARMIN  =  1.00D-07  VARMAX  =  1.00D-03
 THRDOUB =  0.00D+00  THRDIV  =  1.00D-05  THRRED  =  1.00D-07  THRPSP  =  1.00D+00  THRDC   =  1.00D-10  THRCS   =  1.00D-10
 THRNRM  =  1.00D-08  THREQ   =  0.00D+00  THRDE   =  1.00D+00  THRREF  =  1.00D-05  SPARFAC =  1.00D+00  THRDLP  =  1.00D-07
 THRDIA  =  1.00D-10  THRDLS  =  1.00D-07  THRGPS  =  0.00D+00  THRKEX  =  0.00D+00  THRDIS  =  2.00D-01  THRVAR  =  1.00D-10
 THRLOC  =  1.00D-06  THRGAP  =  1.00D-06  THRLOCT = -1.00D+00  THRGAPT = -1.00D+00  THRORB  =  1.00D-06  THRMLTP =  0.00D+00
 THRCPQCI=  1.00D-10  KEXTA   =  0.00D+00  THRCOARS=  0.00D+00  SYMTOL  =  1.00D-06  GRADTOL =  1.00D-06  THROVL  =  1.00D-08
 THRORTH =  1.00D-08  GRID    =  1.00D-06  GRIDMAX =  1.00D-03  DTMAX   =  0.00D+00

 SETTING GEOMTYP        =    XYZ
 ZUNIT=BOHR
 

 Variable memory set to 1000000000 words,  buffer space   230000 words

 SETTING BASIS          =    AUG-CC-PVDZ,H=CC-PVDZ


 Recomputing integrals since basis changed


 Using spherical harmonics

 Library entry C      S aug-cc-pVDZ          selected for orbital group  1
 Library entry C      P aug-cc-pVDZ          selected for orbital group  1
 Library entry C      D aug-cc-pVDZ          selected for orbital group  1
 Library entry H      S cc-pVDZ              selected for orbital group  2
 Library entry H      P cc-pVDZ              selected for orbital group  2
 Library entry N      S aug-cc-pVDZ          selected for orbital group  3
 Library entry N      P aug-cc-pVDZ          selected for orbital group  3
 Library entry N      D aug-cc-pVDZ          selected for orbital group  3

1PROGRAM * SEWARD (Integral evaluation for generally contracted gaussian basis sets)     Author: Roland Lindh, 1990

 Geometry written to block  1 of record 700


 Point group  C1  



 ATOMIC COORDINATES

 NR  ATOM    CHARGE       X              Y              Z

   1  C       6.00   -1.886570900    1.369506443    2.286093263
   2  C       6.00   -1.859483135    2.690225587   -0.003774349
   3  C       6.00   -1.876894781    1.367642600   -2.292644897
   4  C       6.00   -1.921356922   -1.275449265   -2.291564228
   5  C       6.00   -1.948430896   -2.595985707   -0.001827125
   6  C       6.00   -1.931012192   -1.273604888    2.286951559
   7  H       1.00   -1.867259282    2.393946751    4.059318836
   8  H       1.00   -1.819394194    4.737806933    0.002706156
   9  H       1.00   -1.850020019    2.384352239   -4.070210464
  10  H       1.00   -1.928401811   -2.300090870   -4.064733361
  11  H       1.00   -1.976211231   -4.643721141   -0.008285100
  12  H       1.00   -1.945496957   -2.290555572    4.064502752
  13  N       7.00    6.632128877   -0.199364426    0.007373592
  14  C       6.00    4.442435162   -0.076088744    0.010215936
  15  H       1.00    2.422769529    0.037903607    0.012977944

 Bond lengths in Bohr (Angstrom)

 1-2  2.643582131  1-6  2.643485062  1-7  2.047969681  2-3  2.643569047  2-8  2.047984006
     ( 1.398923414)     ( 1.398872047)     ( 1.083738880)     ( 1.398916490)     ( 1.083746461)

  3- 4  2.643466031   3- 9  2.047964865   4- 5  2.643377668   4-10  2.047942582   5- 6  2.643388414
       ( 1.398861976)       ( 1.083736332)       ( 1.398815216)       ( 1.083724540)       ( 1.398820903)

  5-11  2.047934047   6-12  2.047946958  13-14  2.193162908  14-15  2.022881894
       ( 1.083720023)       ( 1.083726856)       ( 1.160571826)       ( 1.070462995)

 Bond angles

  1- 2- 3  119.99746549   1- 2- 8  119.79880921   1- 6- 5  120.00123549   1- 6-12  119.79520439

  2-1-6  119.99850417   2-1-7  119.99930035   2-3-4  119.99920943   2-3-9  120.20181968

  3- 2- 8  120.20347503   3- 4- 5  120.00130473   3- 4-10  119.99737974   4- 3- 9  119.79868541

  4- 5- 6  120.00228066   4- 5-11  119.79663509   5- 4-10  120.00098990   5- 6-12  120.20324188

  6- 1- 7  120.00192397   6- 5-11  120.20073268  13-14-15  179.99091354

 NUCLEAR CHARGE:                   56
 NUMBER OF PRIMITIVE AOS:         345
 NUMBER OF SYMMETRY AOS:          329
 NUMBER OF CONTRACTIONS:          219   ( 219A   )
 NUMBER OF CORE ORBITALS:           8   (   8A   )
 NUMBER OF VALENCE ORBITALS:       39   (  39A   )


 NUCLEAR REPULSION ENERGY  303.29959370


 Eigenvalues of metric

         1 0.864E-05 0.186E-04 0.229E-04 0.534E-04 0.628E-04 0.633E-04 0.929E-04 0.930E-04


 Contracted 2-electron integrals neglected if value below      1.0D-16
 AO integral compression algorithm  1   Integral accuracy      1.0D-16

     2339.635 MB (compressed) written to integral file ( 91.2%)

     Node minimum: 2339.635 MB, node maximum: 2339.635 MB


 NUMBER OF SORTED TWO-ELECTRON INTEGRALS:  290176095.     BUFFER LENGTH:  32768
 NUMBER OF SEGMENTS:  19  SEGMENT LENGTH:   15999762      RECORD LENGTH: 524288

 Memory used in sort:      16.56 MW

 SORT1 READ   320642736. AND WROTE   287580557. INTEGRALS IN    832 RECORDS. CPU TIME:     3.33 SEC, REAL TIME:     5.36 SEC
 SORT2 READ   287580557. AND WROTE   290176095. INTEGRALS IN   8925 RECORDS. CPU TIME:     2.03 SEC, REAL TIME:     3.29 SEC

 FILE SIZES:   FILE 1:  2150.6 MBYTE,  FILE 4:  3489.7 MBYTE,   TOTAL:   5640.3 MBYTE

 OPERATOR DM      FOR CENTER  0  COORDINATES:    0.000000    0.000000    0.000000


 **********************************************************************************************************************************
 DATASETS  * FILE   NREC   LENGTH (MB)   RECORD NAMES
              1      19     2151.19       500      610      700      900      950      970     1000      129      960     1100   
                                          VAR    BASINP    GEOM    SYMINP    ZMAT    AOBASIS   BASIS     P2S    ABASIS      S 
                                         1400     1410     1200     1210     1080     1600     1650     1300     1700   
                                           T        V       H0       H01     AOSYM     SMH    MOLCAS    ERIS     OPER   

 PROGRAMS   *        TOTAL       INT
 CPU TIMES  *        18.87     18.82
 REAL TIME  *        23.76 SEC
 DISK USED  *         7.98 GB      
 GA USED    *         0.01 MB       (max)       0.00 MB       (current)
 **********************************************************************************************************************************

1PROGRAM * RHF-SCF (CLOSED SHELL)       Authors: W. Meyer, H.-J. Werner


 NUMBER OF ELECTRONS:      28+   28-    SPACE SYMMETRY=1    SPIN SYMMETRY: Singlet 
 CONVERGENCE THRESHOLDS:    1.00E-10 (Density)    1.00E-13 (Energy)
 MAX. NUMBER OF ITERATIONS:      200
 INTERPOLATION TYPE:            DIIS
 INTERPOLATION STEPS:              2 (START)      1 (STEP)
 LEVEL SHIFTS:                  0.00 (CLOSED)  0.00 (OPEN) 



 Orbital guess generated from atomic densities. Full valence occupancy:   47

 Molecular orbital dump at record        2100.2

 ITERATION    DDIFF          GRAD             ENERGY        2-EL.EN.            DIPOLE MOMENTS         DIIS
    1      0.000D+00      0.000D+00      -323.54140333    821.940949   -1.89751    0.10269    0.00211    0
    2      0.000D+00      0.292D-02      -323.59785014    818.914245   -1.36719    0.04989   -0.00068    1
    3      0.781D-02      0.179D-02      -323.61445903    820.062608   -1.72846    0.07906    0.00060    2
    4      0.260D-02      0.576D-03      -323.61679501    820.263784   -1.63775    0.07183    0.00029    3
    5      0.963D-03      0.133D-03      -323.61692452    820.003808   -1.66173    0.07255    0.00026    4
    6      0.223D-03      0.229D-04      -323.61693065    820.030671   -1.66308    0.07250    0.00025    5
    7      0.845D-04      0.435D-05      -323.61693085    820.025782   -1.66344    0.07243    0.00024    6
    8      0.108D-04      0.123D-05      -323.61693087    820.026775   -1.66375    0.07249    0.00025    7
    9      0.345D-05      0.268D-06      -323.61693087    820.026807   -1.66372    0.07244    0.00024    6
   10      0.815D-06      0.713D-07      -323.61693087    820.026786   -1.66372    0.07248    0.00025    6
   11      0.185D-06      0.362D-07      -323.61693087    820.026802   -1.66372    0.07246    0.00025    7
   12      0.835D-07      0.703D-08      -323.61693087    820.026796   -1.66372    0.07246    0.00025    7
   13      0.236D-07      0.259D-08      -323.61693087    820.026799   -1.66372    0.07246    0.00025    7
   14      0.645D-08      0.766D-09      -323.61693087    820.026798   -1.66372    0.07246    0.00025    7
   15      0.212D-08      0.292D-09      -323.61693087    820.026798   -1.66372    0.07246    0.00025    8
   16      0.846D-09      0.985D-10      -323.61693087    820.026798   -1.66372    0.07246    0.00025    8
   17      0.300D-09      0.445D-10      -323.61693087    820.026798   -1.66372    0.07246    0.00025    8
   18      0.136D-09      0.230D-10      -323.61693087    820.026798   -1.66372    0.07246    0.00025    8
   19      0.203D-09      0.931D-11      -323.61693087    820.026798   -1.66372    0.07246    0.00025    8
   20      0.214D-09      0.329D-11      -323.61693087    820.026798   -1.66372    0.07246    0.00025    9
   21      0.212D-09      0.147D-11      -323.61693087    820.026798   -1.66372    0.07246    0.00025    9
   22      0.130D-09      0.854D-12      -323.61693087    820.026798   -1.66372    0.07246    0.00025    9
   23      0.122D-09      0.662D-12      -323.61693087    820.026798   -1.66372    0.07246    0.00025    9
   24      0.568D-10      0.541D-12      -323.61693087    820.026798   -1.66372    0.07246    0.00025    9
   25      0.421D-10      0.597D-12      -323.61693087    820.026798   -1.66372    0.07246    0.00025    9
   26      0.234D-10      0.519D-12      -323.61693087    820.026798   -1.66372    0.07246    0.00025    9
   27      0.259D-10      0.483D-12      -323.61693087    820.026798   -1.66372    0.07246    0.00025    9
   28      0.193D-10      0.455D-12      -323.61693087    820.026798   -1.66372    0.07246    0.00025    9
   29      0.200D-10      0.417D-12      -323.61693087    820.026798   -1.66372    0.07246    0.00025    9
   30      0.157D-10      0.486D-12      -323.61693087    820.026798   -1.66372    0.07246    0.00025    9
   31      0.147D-10      0.353D-12      -323.61693087    820.026798   -1.66372    0.07246    0.00025    9
   32      0.146D-10      0.474D-12      -323.61693087    820.026798   -1.66372    0.07246    0.00025    9
   33      0.142D-10      0.431D-12      -323.61693087    820.026798   -1.66372    0.07246    0.00025    9
   34      0.188D-10      0.466D-12      -323.61693087    820.026798   -1.66372    0.07246    0.00025    9
   35      0.150D-10      0.499D-12      -323.61693087    820.026798   -1.66372    0.07246    0.00025    9
   36      0.114D-10      0.497D-12      -323.61693087    820.026798   -1.66372    0.07246    0.00025    9
   37      0.132D-10      0.584D-12      -323.61693087    820.026798   -1.66372    0.07246    0.00025    9
   38      0.781D-11      0.504D-12      -323.61693087    820.026798   -1.66372    0.07246    0.00025    9
   39      0.146D-10      0.432D-12      -323.61693087    820.026798   -1.66372    0.07246    0.00025    0

 Final occupancy:  28

 !RHF STATE 1.1 Energy               -323.616930869193
 Nuclear energy                       303.29959370
 One-electron energy                -1036.92992359
 Two-electron energy                  410.01339902
 Virial quotient                       -1.00171171
 !RHF STATE 1.1 Dipole moment          -1.66371773     0.07246455     0.00024540
 Dipole moment /Debye                  -4.22847171     0.18417446     0.00062371

 Orbital energies:

         1.1          2.1          3.1          4.1          5.1          6.1          7.1          8.1          9.1         10.1
    -15.591747   -11.283971   -11.266215   -11.265688   -11.265627   -11.264510   -11.264439   -11.263881    -1.218421    -1.173857

        11.1         12.1         13.1         14.1         15.1         16.1         17.1         18.1         19.1         20.1
     -1.037831    -1.037650    -0.845949    -0.845410    -0.789951    -0.729322    -0.664842    -0.639160    -0.608516    -0.608515

        21.1         22.1         23.1         24.1         25.1         26.1         27.1         28.1         29.1         30.1
     -0.565283    -0.520397    -0.515158    -0.514474    -0.475766    -0.475761    -0.359616    -0.359608     0.055879     0.060059


 **********************************************************************************************************************************
 DATASETS  * FILE   NREC   LENGTH (MB)   RECORD NAMES
              1      19     2151.19       500      610      700      900      950      970     1000      129      960     1100   
                                          VAR    BASINP    GEOM    SYMINP    ZMAT    AOBASIS   BASIS     P2S    ABASIS      S 
                                         1400     1410     1200     1210     1080     1600     1650     1300     1700   
                                           T        V       H0       H01     AOSYM     SMH    MOLCAS    ERIS     OPER   

              2       3        1.49       700     1000     2100   
                                         GEOM     BASIS     RHF  

 PROGRAMS   *        TOTAL       RHF       INT
 CPU TIMES  *       110.42     91.55     18.82
 REAL TIME  *       125.25 SEC
 DISK USED  *         7.98 GB      
 GA USED    *         0.01 MB       (max)       0.00 MB       (current)
 **********************************************************************************************************************************


1PROGRAM * CCSD (Closed-shell coupled cluster)     Authors: C. Hampel, H.-J. Werner, 1991, M. Deegan, P.J. Knowles, 1992


 Convergence thresholds:  THRVAR = 1.00D-08  THRDEN = 1.00D-12

 CCSD(T)     terms to be evaluated (factor= 1.000)


 Number of core orbitals:           8 (   8 )
 Number of closed-shell orbitals:  20 (  20 )
 Number of external orbitals:     191 ( 191 )

 Molecular orbitals read from record     2100.2  Type=RHF/CANONICAL (state 1.1)

 Number of N-1 electron functions:              20
 Number of N-2 electron functions:             210
 Number of singly external CSFs:              3820
 Number of doubly external CSFs:           7298110
 Total number of CSFs:                     7301931

 Length of J-op  integral file:               0.00 MB
 Length of K-op  integral file:               3.32 MB
 Length of 3-ext integral record:             0.00 MB

 Memory could be reduced to 174.82 Mwords without degradation in triples

 Integral transformation finished. Total CPU:  19.65 sec, npass=  1  Memory used: 128.13 MW

 Reference energy:                   -323.61693087

 MP2 singlet pair energy:              -0.67333062
 MP2 triplet pair energy:              -0.43516341
 MP2 correlation energy:               -1.10849403
 MP2 total energy:                   -324.72542490

 SCS-MP2 correlation energy:           -1.07876508   (PS=  1.200000  PT=  0.333333)
 SCS-MP2 total energy:               -324.69569595

 ITER.      SQ.NORM     CORR.ENERGY   TOTAL ENERGY   ENERGY CHANGE        DEN1      VAR(S)    VAR(P)  DIIS     TIME
   1      1.42873526    -1.14458924  -324.76152010    -0.03609521    -0.00290402  0.51D-02  0.99D-02  1  1    70.42
   2      1.46305950    -1.15046385  -324.76739472    -0.00587462    -0.03103135  0.83D-04  0.13D-02  2  2   121.68
   3      1.47635219    -1.15091170  -324.76784257    -0.00044785    -0.00655965  0.40D-04  0.12D-03  3  3   172.94
   4      1.48204529    -1.15116149  -324.76809236    -0.00024979    -0.00178601  0.22D-05  0.15D-04  4  4   224.22
   5      1.48357488    -1.15119717  -324.76812804    -0.00003568    -0.00036593  0.25D-06  0.14D-05  5  5   275.56
   6      1.48388109    -1.15118866  -324.76811953     0.00000851    -0.00005025  0.24D-07  0.91D-07  6  6   326.90
   7      1.48391588    -1.15119207  -324.76812294    -0.00000341    -0.00000225  0.34D-08  0.80D-08  6  2   378.23
   8      1.48392055    -1.15119243  -324.76812330    -0.00000036    -0.00000041  0.41D-09  0.83D-09  6  1   429.55
   9      1.48392078    -1.15119260  -324.76812347    -0.00000017     0.00000079  0.63D-10  0.78D-10  6  3   480.84
  10      1.48392115    -1.15119266  -324.76812352    -0.00000006     0.00000002  0.99D-11  0.98D-11  6  4   532.08
  11      1.48392088    -1.15119269  -324.76812356    -0.00000004     0.00000022  0.16D-11  0.14D-11  6  5   583.34
  12      1.48392071    -1.15119270  -324.76812357    -0.00000001     0.00000008  0.24D-12  0.27D-12  6  6   634.61
  13      1.48392058    -1.15119271  -324.76812358    -0.00000000     0.00000005  0.14D-13  0.52D-13  6  2   685.89
  14      1.48392051    -1.15119271  -324.76812358    -0.00000000     0.00000002  0.21D-14  0.93D-14  6  1   737.15
  15      1.48392049    -1.15119271  -324.76812358     0.00000000     0.00000001  0.45D-15  0.13D-14  6  3   788.40
  16      1.48392048    -1.15119271  -324.76812358    -0.00000000     0.00000000  0.97D-16  0.19D-15  6  4   839.66
  17      1.48392047    -1.15119271  -324.76812358    -0.00000000     0.00000000  0.19D-16  0.28D-16  6  5   890.95
  18      1.48392047    -1.15119271  -324.76812358    -0.00000000     0.00000000  0.36D-17  0.36D-17  6  6   942.22
  19      1.48392047    -1.15119271  -324.76812358    -0.00000000     0.00000000  0.82D-18  0.60D-18  6  2   993.48
  20      1.48392047    -1.15119271  -324.76812358    -0.00000000     0.00000000  0.18D-18  0.13D-18  6  1  1044.76
  21      1.48392047    -1.15119271  -324.76812358    -0.00000000     0.00000000  0.62D-19  0.38D-19  6  3  1096.02
  22      1.48392047    -1.15119271  -324.76812358     0.00000000     0.00000000  0.30D-19  0.17D-19  6  4  1147.29

 Norm of t1 vector:      0.09773801      S-energy:     0.00000000      T1 diagnostic:  0.01092744
                                                                       D1 diagnostic:  0.02771238

 Doubles amplitudes (print threshold =  0.500E-01):

         I         J         SYM. A    SYM. B    A         B      T(IJ, AB)

        19        19         1         1         7         7     -0.05840840
        20        20         1         1         8         8     -0.05837108


 Total CPU time for triples:   1123.37 sec


 RESULTS
 =======

  Reference energy                   -323.616930869194
  CCSD singlet pair energy             -0.770016550199
  CCSD triplet pair energy             -0.381176158578
  CCSD correlation energy              -1.151192708776

  Triples (T) contribution             -0.054009105677
  Total correlation energy             -1.205201814453

  CCSD total energy                  -324.768123577970
  CCSD[T] energy                     -324.823465060639
  CCSD-T energy                      -324.821527172197
 !CCSD(T) total energy               -324.822132683647

 Timing summary (sec):

 STEP                 CPU(USER)    SYS     CPU(TOT)    WALL
 Transformation         20.23      1.21     21.44     21.48
 CCSD iterations      1127.09     15.64   1142.73   1142.84
 Triples              1123.37     18.03   1141.40   1141.42

 Program statistics:

 Available memory in ccsd:               999998300
 Min. memory needed in ccsd:              17709720
 Max. memory used in ccsd:                24415330
 Max. memory used in cckext:              20754978 (22 integral passes)



 **********************************************************************************************************************************
 DATASETS  * FILE   NREC   LENGTH (MB)   RECORD NAMES
              1      20     2833.36       500      610      700      900      950      970     1000      129      960     1100   
                                          VAR    BASINP    GEOM    SYMINP    ZMAT    AOBASIS   BASIS     P2S    ABASIS      S 
                                         1400     1410     1200     1210     1080     1600     1650     1300     1700     1380   
                                           T        V       H0       H01     AOSYM     SMH    MOLCAS    ERIS     OPER     JKOP   

              2       3        1.49       700     1000     2100   
                                         GEOM     BASIS     RHF  

 PROGRAMS   *        TOTAL   CCSD(T)       RHF       INT
 CPU TIMES  *      2381.11   2270.69     91.55     18.82
 REAL TIME  *      2431.13 SEC
 DISK USED  *         7.98 GB      
 GA USED    *         0.01 MB       (max)       0.00 MB       (current)
 **********************************************************************************************************************************

        CCSD(T)         RHF-SCF 
   -324.82213268   -323.61693087
 **********************************************************************************************************************************
 Variable memory released
