
 Primary working directories    : /tmp/862637.320.gen4.q
 Secondary working directories  : /tmp/862637.320.gen4.q
 Wavefunction directory         : /home/vulcan/lo21740/wfu/
 Main file repository           : /tmp/862637.320.gen4.q/

 ARCHNAME  : Linux/x86_64
 FC        : /opt/intel/compilers_and_libraries_2016.1.150/linux/bin/intel64/ifort
 FCVERSION : 16.0.1
 BLASLIB   : -mkl
 id        : ccgc

 Nodes     nprocs
 n056         1
 ga_uses_ma=false, calling ma_init with nominal heap.
 GA-space will be limited to   8.0 MW (determined by -G option)

 Using customized tuning parameters: mindgm=10; mindgv=16; mindgc=4; mindgr=1; noblas=0; mincuda=1000; minvec=7
 default implementation of scratch files=df  

 ***,Optimization of formic acid
 memory,1000,m
 gthresh,energy=1.0d-12,orbital=1.0d-10,oneint=1.0d-16,twoint=1.0d-16,optgrad=1.0d-6,compress=1.0d-13
 geomtyp=xyz
 
 bohr
 geometry = {
  C   -3.5024718012   -0.8332382380    0.0007907316
  O   -3.0936103061    1.6235913072   -0.0055019884
  O   -1.8845421902   -2.4801435111    0.0009578064
  H   -5.5190486060   -1.2727140058    0.0068637192
  H   -1.2421417390    1.9543568980   -0.0031102689
  C    3.5024718012    0.8332382380    0.0007907316
  O    3.0936103061   -1.6235913072   -0.0055019884
  O    1.8845421902    2.4801435111    0.0009578064
  H    5.5190486060    1.2727140058    0.0068637192
  H    1.2421417390   -1.9543568980   -0.0031102689
 }
 
 basis=AVDZ, H=VDZ
 {rhf;maxit,200}
 {ccsd(t);maxit,200}

 Variables initialized (661), CPU time= 0.00 sec
 Commands  initialized (458), CPU time= 0.00 sec, 486 directives.
 Default parameters read. Elapsed time= 0.05 sec

 Checking input...
 Passed
1


                                         ***  PROGRAM SYSTEM MOLPRO  ***
                         Copyright, University College Cardiff Consultants Limited, 2008

                                    Version 2010.1 linked May 16 2016 07:17:05


 **********************************************************************************************************************************
 LABEL *   Optimization of formic acid                                                   
 Linux-4.4.3/n056(x86_64) 64 bit mpp version                                             DATE: 27-Apr-23          TIME: 16:19:21  
 **********************************************************************************************************************************

 SHA1:             9e8077add272b0f3cad6f7df79ec5211205f459d
 **********************************************************************************************************************************

 THRESHOLDS:

 ZERO    =  1.00D-12  ONEINT  =  1.00D-16  TWOINT  =  1.00D-16  PREFAC  =  1.00D-14  LOCALI  =  1.00D-09  EORDER  =  1.00D-04
 ENERGY  =  1.00D-12  ETEST   =  0.00D+00  EDENS   =  0.00D+00  THRDEDEF=  1.00D-06  GRADIENT=  1.00D-02  STEP    =  1.00D-03
 ORBITAL =  1.00D-10  CIVEC   =  1.00D-05  COEFF   =  1.00D-04  PRINTCI =  5.00D-02  PUNCHCI =  9.90D+01  OPTGRAD =  1.00D-06
 OPTENERG=  1.00D-06  OPTSTEP =  3.00D-04  THRGRAD =  1.00D-10  COMPRESS=  1.00D-13  VARMIN  =  1.00D-07  VARMAX  =  1.00D-03
 THRDOUB =  0.00D+00  THRDIV  =  1.00D-05  THRRED  =  1.00D-07  THRPSP  =  1.00D+00  THRDC   =  1.00D-10  THRCS   =  1.00D-10
 THRNRM  =  1.00D-08  THREQ   =  0.00D+00  THRDE   =  1.00D+00  THRREF  =  1.00D-05  SPARFAC =  1.00D+00  THRDLP  =  1.00D-07
 THRDIA  =  1.00D-10  THRDLS  =  1.00D-07  THRGPS  =  0.00D+00  THRKEX  =  0.00D+00  THRDIS  =  2.00D-01  THRVAR  =  1.00D-10
 THRLOC  =  1.00D-06  THRGAP  =  1.00D-06  THRLOCT = -1.00D+00  THRGAPT = -1.00D+00  THRORB  =  1.00D-06  THRMLTP =  0.00D+00
 THRCPQCI=  1.00D-10  KEXTA   =  0.00D+00  THRCOARS=  0.00D+00  SYMTOL  =  1.00D-06  GRADTOL =  1.00D-06  THROVL  =  1.00D-08
 THRORTH =  1.00D-08  GRID    =  1.00D-06  GRIDMAX =  1.00D-03  DTMAX   =  0.00D+00

 SETTING GEOMTYP        =    XYZ
 ZUNIT=BOHR
 

 Variable memory set to 1000000000 words,  buffer space   230000 words

 SETTING BASIS          =    AVDZ,H=VDZ


 Recomputing integrals since basis changed


 Using spherical harmonics

 Library entry C      S aug-cc-pVDZ          selected for orbital group  1
 Library entry C      P aug-cc-pVDZ          selected for orbital group  1
 Library entry C      D aug-cc-pVDZ          selected for orbital group  1
 Library entry O      S aug-cc-pVDZ          selected for orbital group  2
 Library entry O      P aug-cc-pVDZ          selected for orbital group  2
 Library entry O      D aug-cc-pVDZ          selected for orbital group  2
 Library entry H      S cc-pVDZ              selected for orbital group  3
 Library entry H      P cc-pVDZ              selected for orbital group  3

1PROGRAM * SEWARD (Integral evaluation for generally contracted gaussian basis sets)     Author: Roland Lindh, 1990

 Geometry written to block  1 of record 700


 Point group  C2  



 ATOMIC COORDINATES

 NR  ATOM    CHARGE       X              Y              Z

   1  C       6.00   -3.502471801   -0.833238238    0.000790732
   2  C       6.00    3.502471801    0.833238238    0.000790732
   3  O       8.00   -3.093610306    1.623591307   -0.005501988
   4  O       8.00    3.093610306   -1.623591307   -0.005501988
   5  O       8.00   -1.884542190   -2.480143511    0.000957806
   6  O       8.00    1.884542190    2.480143511    0.000957806
   7  H       1.00   -5.519048606   -1.272714006    0.006863719
   8  H       1.00    5.519048606    1.272714006    0.006863719
   9  H       1.00   -1.242141739    1.954356898   -0.003110269
  10  H       1.00    1.242141739   -1.954356898   -0.003110269

 Bond lengths in Bohr (Angstrom)

 1-3  2.490626173  1-5  2.308677810  1-7  2.063918080  2-4  2.490626173  2-6  2.308677810
     ( 1.317982607)     ( 1.221699680)     ( 1.092178409)     ( 1.317982607)     ( 1.221699680)

  2- 8  2.063918080   3- 9  1.880783733   4-10  1.880783733
       ( 1.092178409)       ( 0.995267887)       ( 0.995267887)

 Bond angles

  1- 3- 9  109.57725746   2- 4-10  109.57725746   3- 1- 5  126.05989268   3- 1- 7  111.74309384

  4-2-6  126.05989268   4-2-8  111.74309384   5-1-7  122.19700921   6-2-8  122.19700921

 NUCLEAR CHARGE:                   48
 NUMBER OF PRIMITIVE AOS:         250
 NUMBER OF SYMMETRY AOS:          238
 NUMBER OF CONTRACTIONS:          158   (  79A   +  79B   )
 NUMBER OF CORE ORBITALS:           6   (   3A   +   3B   )
 NUMBER OF VALENCE ORBITALS:       28   (  14A   +  14B   )


 NUCLEAR REPULSION ENERGY  235.50200791


 Eigenvalues of metric

         1 0.127E-02 0.143E-02 0.277E-02 0.694E-02 0.732E-02 0.774E-02 0.121E-01 0.127E-01
         2 0.781E-03 0.198E-02 0.421E-02 0.473E-02 0.702E-02 0.840E-02 0.112E-01 0.117E-01


 Contracted 2-electron integrals neglected if value below      1.0D-16
 AO integral compression algorithm  1   Integral accuracy      1.0D-16

     399.245 MB (compressed) written to integral file ( 95.2%)

     Node minimum: 399.245 MB, node maximum: 399.245 MB


 NUMBER OF SORTED TWO-ELECTRON INTEGRALS:   39945560.     BUFFER LENGTH:  32768
 NUMBER OF SEGMENTS:   3  SEGMENT LENGTH:   15999080      RECORD LENGTH: 524288

 Memory used in sort:      16.56 MW

 SORT1 READ    52399632. AND WROTE    39504024. INTEGRALS IN    115 RECORDS. CPU TIME:     0.51 SEC, REAL TIME:     0.79 SEC
 SORT2 READ    39504024. AND WROTE    39945560. INTEGRALS IN   1523 RECORDS. CPU TIME:     0.41 SEC, REAL TIME:     0.59 SEC

 FILE SIZES:   FILE 1:   316.3 MBYTE,  FILE 4:   482.4 MBYTE,   TOTAL:    798.7 MBYTE

 OPERATOR DM      FOR CENTER  0  COORDINATES:    0.000000    0.000000    0.000000


 **********************************************************************************************************************************
 DATASETS  * FILE   NREC   LENGTH (MB)   RECORD NAMES
              1      19      316.43       500      610      700      900      950      970     1000      129      960     1100   
                                          VAR    BASINP    GEOM    SYMINP    ZMAT    AOBASIS   BASIS     P2S    ABASIS      S 
                                         1400     1410     1200     1210     1080     1600     1650     1300     1700   
                                           T        V       H0       H01     AOSYM     SMH    MOLCAS    ERIS     OPER   

 PROGRAMS   *        TOTAL       INT
 CPU TIMES  *         3.42      3.38
 REAL TIME  *         4.22 SEC
 DISK USED  *         1.20 GB      
 GA USED    *         0.00 MB       (max)       0.00 MB       (current)
 **********************************************************************************************************************************

1PROGRAM * RHF-SCF (CLOSED SHELL)       Authors: W. Meyer, H.-J. Werner


 NUMBER OF ELECTRONS:      24+   24-
 CONVERGENCE THRESHOLDS:    1.00E-10 (Density)    1.00E-13 (Energy)
 MAX. NUMBER OF ITERATIONS:      200
 INTERPOLATION TYPE:            DIIS
 INTERPOLATION STEPS:              2 (START)      1 (STEP)
 LEVEL SHIFTS:                  0.00 (CLOSED)  0.00 (OPEN) 



 Orbital guess generated from atomic densities. Full valence occupancy:   17  17

 Molecular orbital dump at record        2100.2

 Initial alpha occupancy:  12  12
 Initial beta  occupancy:  12  12
 Wave function symmetry:    1

 ITERATION    DDIFF          GRAD             ENERGY        2-EL.EN.            DIPOLE MOMENTS         DIIS
    1      0.000D+00      0.000D+00      -377.47427306    746.276968    0.00000    0.00000    0.00394    0
    2      0.000D+00      0.102D-01      -377.56256438    743.454735    0.00000    0.00000    0.00251    1
    3      0.194D-01      0.642D-02      -377.60990781    745.740887    0.00000    0.00000    0.00321    2
    4      0.724D-02      0.916D-03      -377.61151753    745.341488    0.00000    0.00000    0.00341    3
    5      0.141D-02      0.388D-03      -377.61180015    745.379463    0.00000    0.00000    0.00335    4
    6      0.584D-03      0.110D-03      -377.61184424    745.431027    0.00000    0.00000    0.00338    5
    7      0.197D-03      0.489D-04      -377.61185486    745.412991    0.00000    0.00000    0.00338    6
    8      0.114D-03      0.154D-04      -377.61185611    745.418525    0.00000    0.00000    0.00338    7
    9      0.420D-04      0.506D-05      -377.61185623    745.417196    0.00000    0.00000    0.00338    8
   10      0.136D-04      0.139D-05      -377.61185624    745.417429    0.00000    0.00000    0.00338    7
   11      0.377D-05      0.409D-06      -377.61185624    745.417350    0.00000    0.00000    0.00338    8
   12      0.111D-05      0.126D-06      -377.61185624    745.417384    0.00000    0.00000    0.00338    8
   13      0.314D-06      0.510D-07      -377.61185624    745.417364    0.00000    0.00000    0.00338    8
   14      0.925D-07      0.166D-07      -377.61185624    745.417368    0.00000    0.00000    0.00338    8
   15      0.388D-07      0.560D-08      -377.61185624    745.417369    0.00000    0.00000    0.00338    8
   16      0.107D-07      0.176D-08      -377.61185624    745.417368    0.00000    0.00000    0.00338    8
   17      0.311D-08      0.443D-09      -377.61185624    745.417368    0.00000    0.00000    0.00338    8
   18      0.822D-09      0.137D-09      -377.61185624    745.417368    0.00000    0.00000    0.00338    8
   19      0.282D-09      0.425D-10      -377.61185624    745.417368    0.00000    0.00000    0.00338    8
   20      0.910D-10      0.114D-10      -377.61185624    745.417368    0.00000    0.00000    0.00338    7
   21      0.277D-10      0.277D-11      -377.61185624    745.417368    0.00000    0.00000    0.00338    7
   22      0.707D-11      0.109D-11      -377.61185624    745.417368    0.00000    0.00000    0.00338    7
   23      0.259D-11      0.305D-12      -377.61185624    745.417368    0.00000    0.00000    0.00338    7
   24      0.762D-12      0.159D-12      -377.61185624    745.417368    0.00000    0.00000    0.00338    8
   25      0.570D-12      0.711D-13      -377.61185624    745.417368    0.00000    0.00000    0.00338    8
   26      0.500D-12      0.416D-13      -377.61185624    745.417368    0.00000    0.00000    0.00338    8
   27      0.318D-12      0.370D-13      -377.61185624    745.417368    0.00000    0.00000    0.00338    9
   28      0.230D-12      0.413D-13      -377.61185624    745.417368    0.00000    0.00000    0.00338    9
   29      0.176D-12      0.326D-13      -377.61185624    745.417368    0.00000    0.00000    0.00338    0

 Final occupancy:  12  12

 !RHF STATE 1.1 Energy               -377.611856236613
 Nuclear energy                       235.50200791
 One-electron energy                 -985.82254819
 Two-electron energy                  372.70868405
 Virial quotient                       -1.00164494
 !RHF STATE 1.1 Dipole moment           0.00000000     0.00000000     0.00338312
 Dipole moment /Debye                   0.00000000     0.00000000     0.00859847

 Orbital energies:

         1.1          2.1          3.1          4.1          5.1          6.1          7.1          8.1          9.1         10.1
    -20.625724   -20.587771   -11.419894    -1.489661    -1.377858    -0.921926    -0.735217    -0.697824    -0.645082    -0.622992

        11.1         12.1         13.1         14.1
     -0.497949    -0.495026     0.070535     0.080691

         1.2          2.2          3.2          4.2          5.2          6.2          7.2          8.2          9.2         10.2
    -20.625724   -20.587772   -11.419896    -1.476905    -1.391918    -0.886182    -0.771427    -0.726549    -0.634705    -0.581822

        11.2         12.2         13.2         14.2
     -0.506798    -0.475967     0.069443     0.088217


 **********************************************************************************************************************************
 DATASETS  * FILE   NREC   LENGTH (MB)   RECORD NAMES
              1      19      316.43       500      610      700      900      950      970     1000      129      960     1100   
                                          VAR    BASINP    GEOM    SYMINP    ZMAT    AOBASIS   BASIS     P2S    ABASIS      S 
                                         1400     1410     1200     1210     1080     1600     1650     1300     1700   
                                           T        V       H0       H01     AOSYM     SMH    MOLCAS    ERIS     OPER   

              2       3        0.69       700     1000     2100   
                                         GEOM     BASIS     RHF  

 PROGRAMS   *        TOTAL       RHF       INT
 CPU TIMES  *         9.22      5.80      3.38
 REAL TIME  *        11.02 SEC
 DISK USED  *         1.20 GB      
 GA USED    *         0.00 MB       (max)       0.00 MB       (current)
 **********************************************************************************************************************************


1PROGRAM * CCSD (Closed-shell coupled cluster)     Authors: C. Hampel, H.-J. Werner, 1991, M. Deegan, P.J. Knowles, 1992


 Convergence thresholds:  THRVAR = 1.00D-08  THRDEN = 1.00D-12

 CCSD(T)     terms to be evaluated (factor= 1.000)


 Number of core orbitals:           6 (   3   3 )
 Number of closed-shell orbitals:  18 (   9   9 )
 Number of external orbitals:     134 (  67  67 )

 Molecular orbitals read from record     2100.2  Type=RHF/CANONICAL (state 1.1)

 Number of N-1 electron functions:              18
 Number of N-2 electron functions:             171
 Number of singly external CSFs:              1206
 Number of doubly external CSFs:           1455642
 Total number of CSFs:                     1456849

 Length of J-op  integral file:               0.00 MB
 Length of K-op  integral file:               0.89 MB
 Length of 3-ext integral record:             0.00 MB

 Memory could be reduced to 28.42 Mwords without degradation in triples

 Integral transformation finished. Total CPU:   1.96 sec, npass=  1  Memory used:  16.40 MW

 Reference energy:                   -377.61185624

 MP2 singlet pair energy:              -0.63204173
 MP2 triplet pair energy:              -0.43056657
 MP2 correlation energy:               -1.06260830
 MP2 total energy:                   -378.67446453

 SCS-MP2 correlation energy:           -1.02635816   (PS=  1.200000  PT=  0.333333)
 SCS-MP2 total energy:               -378.63821440

 ITER.      SQ.NORM     CORR.ENERGY   TOTAL ENERGY   ENERGY CHANGE        DEN1      VAR(S)    VAR(P)  DIIS     TIME
   1      1.30283517    -1.07995856  -378.69181480    -0.01735026     0.01550735  0.11D-01  0.60D-02  1  1     5.02
   2      1.32744220    -1.08105858  -378.69291482    -0.00110002    -0.02621944  0.24D-03  0.10D-02  2  2     8.24
   3      1.34063356    -1.08191355  -378.69376978    -0.00085497    -0.00594453  0.21D-03  0.45D-04  3  3    11.48
   4      1.34596871    -1.08164522  -378.69350146     0.00026832    -0.00176788  0.19D-04  0.81D-05  4  4    14.71
   5      1.34806417    -1.08155586  -378.69341210     0.00008937    -0.00046947  0.17D-05  0.73D-06  5  5    17.96
   6      1.34844857    -1.08153561  -378.69339184     0.00002025    -0.00002196  0.14D-06  0.85D-07  6  6    21.21
   7      1.34853134    -1.08152608  -378.69338231     0.00000953    -0.00000603  0.12D-07  0.12D-07  6  2    24.45
   8      1.34853720    -1.08152692  -378.69338315    -0.00000084     0.00000233  0.20D-08  0.12D-08  6  1    27.69
   9      1.34853792    -1.08152674  -378.69338297     0.00000018     0.00000127  0.33D-09  0.17D-09  6  4    30.95
  10      1.34853970    -1.08152657  -378.69338280     0.00000017    -0.00000051  0.78D-10  0.24D-10  6  3    34.19
  11      1.34853922    -1.08152668  -378.69338292    -0.00000012     0.00000022  0.18D-10  0.46D-11  6  5    37.44
  12      1.34853896    -1.08152670  -378.69338294    -0.00000002     0.00000004  0.33D-11  0.12D-11  6  6    40.68
  13      1.34853866    -1.08152674  -378.69338298    -0.00000004     0.00000011  0.53D-12  0.23D-12  6  1    43.93
  14      1.34853855    -1.08152675  -378.69338298    -0.00000001     0.00000002  0.71D-13  0.34D-13  6  2    47.16
  15      1.34853853    -1.08152675  -378.69338299    -0.00000000     0.00000000  0.13D-13  0.53D-14  6  4    50.41
  16      1.34853852    -1.08152675  -378.69338299    -0.00000000    -0.00000000  0.25D-14  0.11D-14  6  3    53.65
  17      1.34853852    -1.08152675  -378.69338299     0.00000000    -0.00000000  0.30D-15  0.18D-15  6  6    56.90
  18      1.34853852    -1.08152675  -378.69338299    -0.00000000     0.00000000  0.39D-16  0.18D-16  6  5    60.14
  19      1.34853852    -1.08152675  -378.69338299    -0.00000000     0.00000000  0.11D-16  0.30D-17  6  1    63.41
  20      1.34853852    -1.08152675  -378.69338299     0.00000000     0.00000000  0.29D-17  0.84D-18  6  2    66.64
  21      1.34853852    -1.08152675  -378.69338299     0.00000000     0.00000000  0.61D-18  0.18D-18  6  4    69.89
  22      1.34853852    -1.08152675  -378.69338299     0.00000000    -0.00000000  0.16D-18  0.43D-19  6  3    73.13
  23      1.34853852    -1.08152675  -378.69338299     0.00000000    -0.00000000  0.41D-19  0.12D-19  6  6    76.39
  24      1.34853852    -1.08152675  -378.69338299     0.00000000    -0.00000000  0.85D-20  0.33D-20  6  5    79.64
  25      1.34853852    -1.08152675  -378.69338299     0.00000000    -0.00000000  0.20D-20  0.71D-21  6  1    82.89

 Norm of t1 vector:      0.15412381      S-energy:     0.00000000      T1 diagnostic:  0.01816367
                                                                       D1 diagnostic:  0.06245730

 Singles amplitudes (print threshold =  0.500E-01):

         I         SYM. A    A   T(IA)

        15         2         5     -0.05270472


 Total CPU time for triples:     85.07 sec


 RESULTS
 =======

  Reference energy                   -377.611856236612
  CCSD singlet pair energy             -0.702999048416
  CCSD triplet pair energy             -0.378527701223
  CCSD correlation energy              -1.081526749638

  Triples (T) contribution             -0.039471172341
  Total correlation energy             -1.120997921979

  CCSD total energy                  -378.693382986250
  CCSD[T] energy                     -378.736506714083
  CCSD-T energy                      -378.731597214314
 !CCSD(T) total energy               -378.732854158591

 Timing summary (sec):

 STEP                 CPU(USER)    SYS     CPU(TOT)    WALL
 Transformation          2.01      0.20      2.21      2.21
 CCSD iterations        80.89      2.74     83.63     84.04
 Triples                85.07      1.99     87.06     87.08

 Program statistics:

 Available memory in ccsd:               999998604
 Min. memory needed in ccsd:               3671436
 Max. memory used in ccsd:                 4983204
 Max. memory used in cckext:               4881048 (25 integral passes)



 **********************************************************************************************************************************
 DATASETS  * FILE   NREC   LENGTH (MB)   RECORD NAMES
              1      20      429.57       500      610      700      900      950      970     1000      129      960     1100   
                                          VAR    BASINP    GEOM    SYMINP    ZMAT    AOBASIS   BASIS     P2S    ABASIS      S 
                                         1400     1410     1200     1210     1080     1600     1650     1300     1700     1380   
                                           T        V       H0       H01     AOSYM     SMH    MOLCAS    ERIS     OPER     JKOP   

              2       3        0.69       700     1000     2100   
                                         GEOM     BASIS     RHF  

 PROGRAMS   *        TOTAL   CCSD(T)       RHF       INT
 CPU TIMES  *       177.20    167.98      5.80      3.38
 REAL TIME  *       184.40 SEC
 DISK USED  *         1.20 GB      
 GA USED    *         0.00 MB       (max)       0.00 MB       (current)
 **********************************************************************************************************************************

        CCSD(T)         RHF-SCF 
   -378.73285416   -377.61185624
 **********************************************************************************************************************************
 Variable memory released
