
    -----------------------------------------------------------------------
          Psi4: An Open-Source Ab Initio Electronic Structure Package
                               Psi4 1.4a2.dev629 

                         Git: Rev {master} 2938fc2 dirty


    D. G. A. Smith, L. A. Burns, A. C. Simmonett, R. M. Parrish,
    M. C. Schieber, R. Galvelis, P. Kraus, H. Kruse, R. Di Remigio,
    A. Alenaizan, A. M. James, S. Lehtola, J. P. Misiewicz, M. Scheurer,
    R. A. Shaw, J. B. Schriber, Y. Xie, Z. L. Glick, D. A. Sirianni,
    J. S. O'Brien, J. M. Waldrop, A. Kumar, E. G. Hohenstein,
    B. P. Pritchard, B. R. Brooks, H. F. Schaefer III, A. Yu. Sokolov,
    K. Patkowski, A. E. DePrince III, U. Bozkaya, R. A. King,
    F. A. Evangelista, J. M. Turney, T. D. Crawford, C. D. Sherrill,
    J. Chem. Phys. 152(18) 184108 (2020). https://doi.org/10.1063/5.0006002

                            Additional Code Authors
    E. T. Seidl, C. L. Janssen, E. F. Valeev, M. L. Leininger,
    J. F. Gonthier, R. M. Richard, H. R. McAlexander, M. Saitow, X. Wang,
    P. Verma, and M. H. Lechner

             Previous Authors, Complete List of Code Contributors,
                       and Citations for Specific Modules
    https://github.com/psi4/psi4/blob/master/codemeta.json
    https://github.com/psi4/psi4/graphs/contributors
    http://psicode.org/psi4manual/master/introduction.html#citing-psifour

    -----------------------------------------------------------------------


    Psi4 started on: Monday, 25 October 2021 01:24PM

    Process ID: 20638
    Host:       n076
    PSIDATADIR: /opt/psi/4/master/share/psi4
    Memory:     500.0 MiB
    Threads:    1
    
  ==> Input File <==

--------------------------------------------------------------------------
import os
memory 14 GB 
 
molecule {
 C   -3.2643661824    0.3440982568    0.0000000096
 O   -0.8773841069   -0.9510371127   -0.0000000100
 N    1.1229783644    0.8476722904    0.0000000302
 O    3.0933873010   -0.1744152429   -0.0000000096
 H   -2.9503962076    2.3794605171    0.0000001191
 H   -4.3137167003   -0.1994296384   -1.6851564252
 H   -4.3137168982   -0.1994302203    1.6851561559
units bohr
}

basis {

assign 6-31g_2dfp_

[ 6-31g_2dfp_ ]

spherical

!----------------------------------------------------------------------
! Basis Set Exchange
! Version v0.8.13
! https://www.basissetexchange.org
!----------------------------------------------------------------------
!   Basis set: 6-31G(2df,p)
! Description: 6-31G(2df,p)
!        Role: orbital
!     Version: 0  (Data from the original Basis Set Exchange)
!----------------------------------------------------------------------


****
H     0
S    3   1.00
     18.7311370              0.03349460
      2.8253937              0.23472695
      0.6401217              0.81375733
S    1   1.00
      0.1612778              1.00000000
P    1   1.00
      1.5000000              1.0000000
P    1   1.00
      0.3750000              1.0000000
****
B     0
S    6   1.00
   2068.8823000              0.0018663
    310.6495700              0.0142515
     70.6830330              0.0695516
     19.8610800              0.2325729
      6.2993048              0.4670787
      2.1270270              0.3634314
SP   3   1.00
      4.7279710             -0.1303938              0.0745976
      1.1903377             -0.1307889              0.3078467
      0.3594117              1.1309444              0.7434568
SP   1   1.00
      0.1267512              1.0000000              1.0000000
D    1   1.00
      0.8020000              1.0000000
D    1   1.00
      0.2005000              1.0000000
F    1   1.00
      0.5000000              1.0000000
****
C     0
S    6   1.00
   3047.5249000              0.0018347
    457.3695100              0.0140373
    103.9486900              0.0688426
     29.2101550              0.2321844
      9.2866630              0.4679413
      3.1639270              0.3623120
SP   3   1.00
      7.8682724             -0.1193324              0.0689991
      1.8812885             -0.1608542              0.3164240
      0.5442493              1.1434564              0.7443083
SP   1   1.00
      0.1687144              1.0000000              1.0000000
D    1   1.00
      1.2520000              1.0000000
D    1   1.00
      0.3130000              1.0000000
F    1   1.00
      0.8000000              1.0000000
****
N     0
S    6   1.00
   4173.5110000              0.0018348
    627.4579000              0.0139950
    142.9021000              0.0685870
     40.2343300              0.2322410
     12.8202100              0.4690700
      4.3904370              0.3604550
SP   3   1.00
     11.6263580             -0.1149610              0.0675800
      2.7162800             -0.1691180              0.3239070
      0.7722180              1.1458520              0.7408950
SP   1   1.00
      0.2120313              1.0000000              1.0000000
D    1   1.00
      1.8260000              1.0000000
D    1   1.00
      0.4565000              1.0000000
F    1   1.00
      1.0000000              1.0000000
****
O     0
S    6   1.00
   5484.6717000              0.0018311
    825.2349500              0.0139501
    188.0469600              0.0684451
     52.9645000              0.2327143
     16.8975700              0.4701930
      5.7996353              0.3585209
SP   3   1.00
     15.5396160             -0.1107775              0.0708743
      3.5999336             -0.1480263              0.3397528
      1.0137618              1.1307670              0.7271586
SP   1   1.00
      0.2700058              1.0000000              1.0000000
D    1   1.00
      2.5840000              1.0000000
D    1   1.00
      0.6460000              1.0000000
F    1   1.00
      1.4000000              1.0000000
****
F     0
S    6   1.00
   7001.7130900              0.0018196169
   1051.3660900              0.0139160796
    239.2856900              0.0684053245
     67.3974453              0.233185760
     21.5199573              0.471267439
      7.40310130             0.356618546
SP   3   1.00
     20.8479528             -0.108506975            0.0716287243
      4.80830834            -0.146451658            0.3459121030
      1.34406986             1.128688580            0.7224699570
SP   1   1.00
      0.358151393            1.0000000              1.0000000
D    1   1.00
      3.5000000              1.0000000
D    1   1.00
      0.8750000              1.0000000
F    1   1.00
      1.8500000              1.0000000
****
Al     0
S    6   1.00
  13983.1000000              0.00194267
   2098.7500000              0.0148599
    477.7050000              0.0728494
    134.3600000              0.2468300
     42.8709000              0.4872580
     14.5189000              0.3234960
SP   6   1.00
    239.6680000             -0.00292619             0.00460285
     57.4419000             -0.0374080              0.0331990
     18.2859000             -0.1144870              0.1362820
      6.5991400              0.1156350              0.3304760
      2.4904900              0.6125950              0.4491460
      0.9445400              0.3937990              0.2657040
SP   3   1.00
      1.2779000             -0.2276060             -0.0175130
      0.3975900              0.00144583             0.2445330
      0.1600950              1.0927900              0.8049340
SP   1   1.00
      0.0556577              1.0000000              1.0000000
D    1   1.00
      0.6500000              1.0000000
D    1   1.00
      0.1625000              1.0000000
F    1   1.00
      0.2500000              1.0000000
****
Si     0
S    6   1.00
  16115.9000000              0.00195948
   2425.5800000              0.01492880
    553.8670000              0.07284780
    156.3400000              0.24613000
     50.0683000              0.48591400
     17.0178000              0.32500200
SP   6   1.00
    292.7180000             -0.00278094             0.00443826
     69.8731000             -0.03571460             0.03266790
     22.3363000             -0.11498500             0.13472100
      8.1503900              0.09356340             0.32867800
      3.1345800              0.60301700             0.44964000
      1.2254300              0.41895900             0.26137200
SP   3   1.00
      1.7273800             -0.24463000            -0.01779510
      0.5729220              0.00431572             0.25353900
      0.2221920              1.09818000             0.80066900
SP   1   1.00
      0.0778369              1.00000000             1.00000000
D    1   1.00
      0.9000000              1.0000000
D    1   1.00
      0.2250000              1.0000000
F    1   1.00
      0.3200000              1.0000000
****
P     0
S    6   1.00
  19413.3000000              0.0018516
   2909.4200000              0.0142062
    661.3640000              0.0699995
    185.7590000              0.2400790
     59.1943000              0.4847620
     20.0310000              0.3352000
SP   6   1.00
    339.4780000             -0.00278217             0.00456462
     81.0101000             -0.0360499              0.03369360
     25.8780000             -0.1166310              0.13975500
      9.4522100              0.0968328              0.33936200
      3.6656600              0.6144180              0.45092100
      1.4674600              0.4037980              0.23858600
SP   3   1.00
      2.1562300             -0.2529230             -0.01776530
      0.7489970              0.0328517              0.27405800
      0.2831450              1.0812500              0.78542100
SP   1   1.00
      0.0998317              1.0000000              1.00000000
D    1   1.00
      1.1000000              1.0000000
D    1   1.00
      0.2750000              1.0000000
F    1   1.00
      0.4500000              1.0000000
****
S     0
S    6   1.00
  21917.1000000              0.0018690
   3301.4900000              0.0142300
    754.1460000              0.0696960
    212.7110000              0.2384870
     67.9896000              0.4833070
     23.0515000              0.3380740
SP   6   1.00
    423.7350000             -0.0023767              0.0040610
    100.7100000             -0.0316930              0.0306810
     32.1599000             -0.1133170              0.1304520
     11.8079000              0.0560900              0.3272050
      4.6311000              0.5922550              0.4528510
      1.8702500              0.4550060              0.2560420
SP   3   1.00
      2.6158400             -0.2503740             -0.0145110
      0.9221670              0.0669570              0.3102630
      0.3412870              1.0545100              0.7544830
SP   1   1.00
      0.1171670              1.0000000              1.0000000
D    1   1.00
      1.3000000              1.0000000
D    1   1.00
      0.3250000              1.0000000
F    1   1.00
      0.5500000              1.0000000
****
Cl     0
S    6   1.00
  25180.1000000              0.0018330
   3780.3500000              0.0140340
    860.4740000              0.0690970
    242.1450000              0.2374520
     77.3349000              0.4830340
     26.2470000              0.3398560
SP   6   1.00
    491.7650000             -0.0022974              0.0039894
    116.9840000             -0.0307140              0.0303180
     37.4153000             -0.1125280              0.1298800
     13.7834000              0.0450160              0.3279510
      5.4521500              0.5893530              0.4535270
      2.2258800              0.4652060              0.2521540
SP   3   1.00
      3.1864900             -0.2518300             -0.0142990
      1.1442700              0.0615890              0.3235720
      0.4203770              1.0601800              0.7435070
SP   1   1.00
      0.1426570              1.0000000              1.0000000
D    1   1.00
      1.5000000              1.0000000
D    1   1.00
      0.3750000              1.0000000
F    1   1.00
      0.7000000              1.0000000
****
}


set {
reference rhf                          
freeze_core true
e_convergence 10                       
d_convergence 10                      
dft_spherical_points 1202
dft_radial_points 99
}

e = energy('b3lyp')

print_out('Grab this energy {0}'.format(e))
--------------------------------------------------------------------------

  Memory set to  13.039 GiB by Python driver.

Scratch directory: /tmp/

*** tstart() called on n076
*** at Mon Oct 25 13:24:32 2021

   => Loading Basis Set <=

    Name: ANONYMOUSBAE58032
    Role: ORBITAL
    Keyword: BASIS
    atoms 1    entry C          line    48 inputblock 6-31g_2dfp_ 
    atoms 2, 4 entry O          line    90 inputblock 6-31g_2dfp_ 
    atoms 3    entry N          line    69 inputblock 6-31g_2dfp_ 
    atoms 5-7  entry H          line    15 inputblock 6-31g_2dfp_ 


         ---------------------------------------------------------
                                   SCF
               by Justin Turney, Rob Parrish, Andy Simmonett
                          and Daniel G. A. Smith
                              RKS Reference
                        1 Threads,  13351 MiB Core
         ---------------------------------------------------------

  ==> Geometry <==

    Molecular point group: c1
    Full point group: C1

    Geometry (in Bohr), charge = 0, multiplicity = 1:

       Center              X                  Y                   Z               Mass       
    ------------   -----------------  -----------------  -----------------  -----------------
         C           -3.269759982410     0.344200172358     0.000000008400    12.000000000000
         O           -0.882777906910    -0.950935197142    -0.000000011200    15.994914619570
         N            1.117584564390     0.847774205958     0.000000029000    14.003074004430
         O            3.087993500990    -0.174313327342    -0.000000010800    15.994914619570
         H           -2.955790007610     2.379562432658     0.000000117900     1.007825032230
         H           -4.319110500310    -0.199327722842    -1.685156426400     1.007825032230
         H           -4.319110698210    -0.199328304742     1.685156154700     1.007825032230

  Running in c1 symmetry.

  Rotational constants: A =      1.58651  B =      0.16588  C =      0.15460 [cm^-1]
  Rotational constants: A =  47562.46028  B =   4973.03320  C =   4634.64461 [MHz]
  Nuclear repulsion =  119.702207597855121

  Charge       = 0
  Multiplicity = 1
  Electrons    = 32
  Nalpha       = 16
  Nbeta        = 16

  ==> Algorithm <==

  SCF Algorithm Type is DF.
  DIIS enabled.
  MOM disabled.
  Fractional occupation disabled.
  Guess Type is SAD.
  Energy threshold   = 1.00e-10
  Density threshold  = 1.00e-10
  Integral threshold = 0.00e+00

  ==> Primary Basis <==

  Basis Set: ANONYMOUSBAE58032
    Blend: 6-31G_2DFP_
    Number of shells: 44
    Number of basis function: 128
    Number of Cartesian functions: 148
    Spherical Harmonics?: true
    Max angular momentum: 3

  ==> DFT Potential <==

   => Composite Functional: B3LYP <= 

    B3LYP Hyb-GGA Exchange-Correlation Functional

    P. J. Stephens, F. J. Devlin, C. F. Chabalowski, and M. J. Frisch, J. Phys. Chem. 98, 11623 (1994)

    Deriv               =              1
    GGA                 =           TRUE
    Meta                =          FALSE

    Exchange Hybrid     =           TRUE
    MP2 Hybrid          =          FALSE

   => Exchange Functionals <=

    0.0800   Slater exchange
    0.7200         Becke 88

   => Exact (HF) Exchange <=

    0.2000               HF 

   => Correlation Functionals <=

    0.1900   Vosko, Wilk & Nusair (VWN5_RPA)
    0.8100   Lee, Yang & Parr

   => Molecular Quadrature <=

    Radial Scheme          =       TREUTLER
    Pruning Scheme         =           NONE
    Nuclear Scheme         =       TREUTLER

    BS radius alpha        =              1
    Pruning alpha          =              1
    Radial Points          =             99
    Spherical Points       =           1202
    Total Points           =         784658
    Total Blocks           =           5429
    Max Points             =            256
    Max Functions          =            127
    Weights Tolerance      =       1.00E-15

   => Loading Basis Set <=

    Name: (ANONYMOUSBAE58032 AUX)
    Role: JKFIT
    Keyword: DF_BASIS_SCF
    atoms 1    entry C          line   198 file /opt/psi/4/master/share/psi4/basis/def2-universal-jkfit.gbs 
    atoms 2, 4 entry O          line   318 file /opt/psi/4/master/share/psi4/basis/def2-universal-jkfit.gbs 
    atoms 3    entry N          line   258 file /opt/psi/4/master/share/psi4/basis/def2-universal-jkfit.gbs 
    atoms 5-7  entry H          line    18 file /opt/psi/4/master/share/psi4/basis/def2-universal-jkfit.gbs 

  ==> Integral Setup <==

  DFHelper Memory: AOs need 0.047 GiB; user supplied 7.553 GiB. Using in-core AOs.

  ==> MemDFJK: Density-Fitted J/K Matrices <==

    J tasked:                   Yes
    K tasked:                   Yes
    wK tasked:                   No
    OpenMP threads:               1
    Memory [MiB]:              7733
    Algorithm:                 Core
    Schwarz Cutoff:           1E-12
    Mask sparsity (%):       2.2339
    Fitting Condition:        1E-10

   => Auxiliary Basis Set <=

  Basis Set: (ANONYMOUSBAE58032 AUX)
    Blend: DEF2-UNIVERSAL-JKFIT
    Number of shells: 118
    Number of basis function: 360
    Number of Cartesian functions: 428
    Spherical Harmonics?: true
    Max angular momentum: 4

  Cached 100.0% of DFT collocation blocks in 2.226 [GiB].

  Minimum eigenvalue in the overlap matrix is 3.1803073571E-03.
  Reciprocal condition number of the overlap matrix is 6.2710976645E-04.
    Using symmetric orthogonalization.

  ==> Pre-Iterations <==

  SCF Guess: Superposition of Atomic Densities via on-the-fly atomic UHF (no occupation information).

   -------------------------
    Irrep   Nso     Nmo    
   -------------------------
     A        128     128 
   -------------------------
    Total     128     128
   -------------------------

  ==> Iterations <==

                           Total Energy        Delta E     RMS |[F,P]|

   @DF-RKS iter SAD:  -244.43572280539675   -2.44436e+02   0.00000e+00 
   @DF-RKS iter   1:  -244.87620676521291   -4.40484e-01   4.49690e-03 DIIS
   @DF-RKS iter   2:  -244.73308603467407    1.43121e-01   6.65849e-03 DIIS
   @DF-RKS iter   3:  -245.00015663118987   -2.67071e-01   1.60790e-03 DIIS
   @DF-RKS iter   4:  -245.01667927311283   -1.65226e-02   3.23032e-04 DIIS
   @DF-RKS iter   5:  -245.01705457364153   -3.75301e-04   2.32990e-04 DIIS
   @DF-RKS iter   6:  -245.01739803523949   -3.43462e-04   6.43262e-05 DIIS
   @DF-RKS iter   7:  -245.01742252452755   -2.44893e-05   1.18982e-05 DIIS
   @DF-RKS iter   8:  -245.01742344870840   -9.24181e-07   1.31535e-06 DIIS
   @DF-RKS iter   9:  -245.01742346164286   -1.29345e-08   2.89757e-07 DIIS
   @DF-RKS iter  10:  -245.01742346228272   -6.39858e-10   5.06803e-08 DIIS
   @DF-RKS iter  11:  -245.01742346230751   -2.47837e-11   1.54879e-08 DIIS
   @DF-RKS iter  12:  -245.01742346230969   -2.18847e-12   1.92173e-09 DIIS
   @DF-RKS iter  13:  -245.01742346230947    2.27374e-13   2.32467e-10 DIIS
   @DF-RKS iter  14:  -245.01742346230958   -1.13687e-13   6.72928e-11 DIIS
  Energy and wave function converged.


  ==> Post-Iterations <==

    Orbital Energies [Eh]
    ---------------------

    Doubly Occupied:                                                      

       1A    -19.220186     2A    -19.207041     3A    -14.509825  
       4A    -10.242365     5A     -1.218742     6A     -1.052531  
       7A     -0.736749     8A     -0.644036     9A     -0.540128  
      10A     -0.508395    11A     -0.506940    12A     -0.449445  
      13A     -0.419467    14A     -0.384848    15A     -0.313797  
      16A     -0.273366  

    Virtual:                                                              

      17A     -0.075214    18A      0.090396    19A      0.099766  
      20A      0.133889    21A      0.147100    22A      0.178167  
      23A      0.332976    24A      0.429382    25A      0.440938  
      26A      0.450536    27A      0.545116    28A      0.547657  
      29A      0.568654    30A      0.574810    31A      0.585117  
      32A      0.599392    33A      0.620150    34A      0.691208  
      35A      0.762972    36A      0.810162    37A      0.829756  
      38A      0.863457    39A      0.885317    40A      0.912405  
      41A      0.938557    42A      0.949681    43A      0.978402  
      44A      1.015079    45A      1.058070    46A      1.112878  
      47A      1.133947    48A      1.189942    49A      1.232496  
      50A      1.278748    51A      1.303541    52A      1.334383  
      53A      1.364437    54A      1.447663    55A      1.519303  
      56A      1.530414    57A      1.566381    58A      1.664932  
      59A      1.721113    60A      1.754844    61A      1.787481  
      62A      1.881566    63A      1.892355    64A      2.008334  
      65A      2.024890    66A      2.037921    67A      2.089412  
      68A      2.216551    69A      2.251884    70A      2.412372  
      71A      2.573312    72A      2.897816    73A      2.939594  
      74A      2.944550    75A      3.081734    76A      3.081776  
      77A      3.121255    78A      3.263581    79A      3.370547  
      80A      3.425619    81A      3.426432    82A      3.548425  
      83A      3.577746    84A      3.673557    85A      3.687976  
      86A      3.727301    87A      3.799571    88A      3.916299  
      89A      4.072384    90A      4.096891    91A      4.121442  
      92A      4.170948    93A      4.291480    94A      4.298637  
      95A      4.398082    96A      4.406439    97A      4.609124  
      98A      4.634677    99A      4.744105   100A      4.791421  
     101A      4.802037   102A      4.889374   103A      5.001575  
     104A      5.018997   105A      5.068764   106A      5.117326  
     107A      5.189962   108A      5.322245   109A      5.450254  
     110A      5.482710   111A      5.484431   112A      5.632090  
     113A      5.674950   114A      5.790130   115A      6.109819  
     116A      6.134418   117A      6.394164   118A      6.461626  
     119A      6.714854   120A      6.725550   121A      6.913866  
     122A      6.966653   123A      7.015115   124A      7.136418  
     125A      7.176765   126A      7.437541   127A      7.453371  
     128A      7.654589  

    Final Occupation by Irrep:
              A 
    DOCC [    16 ]

  @DF-RKS Final Energy:  -245.01742346230958

   => Energetics <=

    Nuclear Repulsion Energy =            119.7022075978551214
    One-Electron Energy =                -571.2524807233414776
    Two-Electron Energy =                 231.2135494881262900
    DFT Exchange-Correlation Energy =     -24.6806998249495351
    Empirical Dispersion Energy =           0.0000000000000000
    VV10 Nonlocal Energy =                  0.0000000000000000
    Total Energy =                       -245.0174234623095799

Computation Completed


Properties will be evaluated at   0.000000,   0.000000,   0.000000 [a0]

Properties computed using the SCF density matrix

  Nuclear Dipole Moment: [e a0]
     X:    -5.7478      Y:     0.9785      Z:    -0.0000

  Electronic Dipole Moment: [e a0]
     X:     4.8770      Y:    -0.6969      Z:     0.0000

  Dipole Moment: [e a0]
     X:    -0.8708      Y:     0.2817      Z:    -0.0000     Total:     0.9152

  Dipole Moment: [D]
     X:    -2.2133      Y:     0.7159      Z:    -0.0000     Total:     2.3262


*** tstop() called on n076 at Mon Oct 25 13:25:08 2021
Module time:
	user time   =      34.86 seconds =       0.58 minutes
	system time =       0.64 seconds =       0.01 minutes
	total time  =         36 seconds =       0.60 minutes
Total time:
	user time   =      34.86 seconds =       0.58 minutes
	system time =       0.64 seconds =       0.01 minutes
	total time  =         36 seconds =       0.60 minutes
Grab this energy -245.01742346230958
    Psi4 stopped on: Monday, 25 October 2021 01:25PM
    Psi4 wall time for execution: 0:00:35.54

*** Psi4 exiting successfully. Buy a developer a beer!
