
 Primary working directories    : /tmp/1003441.1.gen6.q
 Secondary working directories  : /tmp/1003441.1.gen6.q
 Wavefunction directory         : /home/vulcan/jj04645/wfu/
 Main file repository           : /tmp/1003441.1.gen6.q/

 ARCHNAME  : Linux/x86_64
 FC        : /opt/intel/compilers_and_libraries_2016.1.150/linux/bin/intel64/ifort
 FCVERSION : 16.0.1
 BLASLIB   : -mkl
 id        : ccgc

 Nodes     nprocs
 n080         1
 ga_uses_ma=false, calling ma_init with nominal heap.
 GA-space will be limited to   8.0 MW (determined by -G option)

 Using customized tuning parameters: mindgm=10; mindgv=16; mindgc=4; mindgr=1; noblas=0; mincuda=1000; minvec=7
 default implementation of scratch files=df  

 ***,Optimization of acetyl acetylene
 memory,1000,m
 gthresh,energy=1.0d-12,orbital=1.0d-10,oneint=1.0d-16,twoint=1.0d-16,optgrad=1.0d-6,compress=1.0d-13
 geomtyp=xyz
 
 bohr
 geometry = {
  H    3.3714519680   -1.7710446634   -1.6629925321
  C    2.2748218388   -2.3117775508    0.0000000000
  H    1.9278569694   -4.3384031794    0.0000000000
  C   -0.2125067352   -0.9155168663    0.0000000000
  H    3.3714519680   -1.7710446634    1.6629925321
  O   -2.2584949071   -1.9582225641    0.0000000000
  C   -0.0179423329    1.8511789274    0.0000000000
  C    0.2078247973    4.1326111319    0.0000000000
  H    0.3566616129    6.1377842652    0.0000000000
 }
 
 basis=VDZ
 {rhf;maxit,200}
 {ccsd(t);maxit,200}

 Variables initialized (661), CPU time= 0.00 sec
 Commands  initialized (458), CPU time= 0.01 sec, 486 directives.
 Default parameters read. Elapsed time= 0.04 sec

 Checking input...
 Passed
1


                                         ***  PROGRAM SYSTEM MOLPRO  ***
                         Copyright, University College Cardiff Consultants Limited, 2008

                                    Version 2010.1 linked May 16 2016 07:17:05


 **********************************************************************************************************************************
 LABEL *   Optimization of acetyl acetylene                                              
 Linux-4.4.3/n080(x86_64) 64 bit mpp version                                             DATE: 15-Feb-24          TIME: 13:06:22  
 **********************************************************************************************************************************

 SHA1:             9e8077add272b0f3cad6f7df79ec5211205f459d
 **********************************************************************************************************************************

 THRESHOLDS:

 ZERO    =  1.00D-12  ONEINT  =  1.00D-16  TWOINT  =  1.00D-16  PREFAC  =  1.00D-14  LOCALI  =  1.00D-09  EORDER  =  1.00D-04
 ENERGY  =  1.00D-12  ETEST   =  0.00D+00  EDENS   =  0.00D+00  THRDEDEF=  1.00D-06  GRADIENT=  1.00D-02  STEP    =  1.00D-03
 ORBITAL =  1.00D-10  CIVEC   =  1.00D-05  COEFF   =  1.00D-04  PRINTCI =  5.00D-02  PUNCHCI =  9.90D+01  OPTGRAD =  1.00D-06
 OPTENERG=  1.00D-06  OPTSTEP =  3.00D-04  THRGRAD =  1.00D-10  COMPRESS=  1.00D-13  VARMIN  =  1.00D-07  VARMAX  =  1.00D-03
 THRDOUB =  0.00D+00  THRDIV  =  1.00D-05  THRRED  =  1.00D-07  THRPSP  =  1.00D+00  THRDC   =  1.00D-10  THRCS   =  1.00D-10
 THRNRM  =  1.00D-08  THREQ   =  0.00D+00  THRDE   =  1.00D+00  THRREF  =  1.00D-05  SPARFAC =  1.00D+00  THRDLP  =  1.00D-07
 THRDIA  =  1.00D-10  THRDLS  =  1.00D-07  THRGPS  =  0.00D+00  THRKEX  =  0.00D+00  THRDIS  =  2.00D-01  THRVAR  =  1.00D-10
 THRLOC  =  1.00D-06  THRGAP  =  1.00D-06  THRLOCT = -1.00D+00  THRGAPT = -1.00D+00  THRORB  =  1.00D-06  THRMLTP =  0.00D+00
 THRCPQCI=  1.00D-10  KEXTA   =  0.00D+00  THRCOARS=  0.00D+00  SYMTOL  =  1.00D-06  GRADTOL =  1.00D-06  THROVL  =  1.00D-08
 THRORTH =  1.00D-08  GRID    =  1.00D-06  GRIDMAX =  1.00D-03  DTMAX   =  0.00D+00

 SETTING GEOMTYP        =    XYZ
 ZUNIT=BOHR
 

 Variable memory set to 1000000000 words,  buffer space   230000 words

 SETTING BASIS          =    VDZ


 Recomputing integrals since basis changed


 Using spherical harmonics

 Library entry H      S cc-pVDZ              selected for orbital group  1
 Library entry H      P cc-pVDZ              selected for orbital group  1
 Library entry C      S cc-pVDZ              selected for orbital group  2
 Library entry C      P cc-pVDZ              selected for orbital group  2
 Library entry C      D cc-pVDZ              selected for orbital group  2
 Library entry O      S cc-pVDZ              selected for orbital group  5
 Library entry O      P cc-pVDZ              selected for orbital group  5
 Library entry O      D cc-pVDZ              selected for orbital group  5

1PROGRAM * SEWARD (Integral evaluation for generally contracted gaussian basis sets)     Author: Roland Lindh, 1990

 Geometry written to block  1 of record 700


 Point group  Cs  



 ATOMIC COORDINATES

 NR  ATOM    CHARGE       X              Y              Z

   1  H       1.00    3.371451968   -1.771044663   -1.662992532
   2  H       1.00    3.371451968   -1.771044663    1.662992532
   3  C       6.00    2.274821839   -2.311777551    0.000000000
   4  H       1.00    1.927856969   -4.338403179    0.000000000
   5  C       6.00   -0.212506735   -0.915516866    0.000000000
   6  O       8.00   -2.258494907   -1.958222564    0.000000000
   7  C       6.00   -0.017942333    1.851178927    0.000000000
   8  C       6.00    0.207824797    4.132611132    0.000000000
   9  H       1.00    0.356661613    6.137784265    0.000000000

 Bond lengths in Bohr (Angstrom)

 1-3  2.064106067  2-3  2.064106067  3-4  2.056111879  3-5  2.852428322  5-6  2.296367299
     ( 1.092277888)     ( 1.092277888)     ( 1.088047546)     ( 1.509440058)     ( 1.215185238)

 5-7  2.773528605  7-8  2.292575779  8-9  2.010689357
     ( 1.467688126)     ( 1.213178852)     ( 1.064010982)

 Bond angles

  1-3-2  107.35041439   1-3-4  110.35685237   1-3-5  109.57554338   2-3-4  110.35685237

  2-3-5  109.57554338   3-5-6  123.68739543   3-5-7  115.28502355   4-3-5  109.59261870

  5-7-8  178.37112628   6-5-7  121.02758103   7-8-9  178.59357076

 NUCLEAR CHARGE:                   36
 NUMBER OF PRIMITIVE AOS:         163
 NUMBER OF SYMMETRY AOS:          158
 NUMBER OF CONTRACTIONS:           90   (  63A'  +  27A"  )
 NUMBER OF CORE ORBITALS:           5   (   5A'  +   0A"  )
 NUMBER OF VALENCE ORBITALS:       24   (  18A'  +   6A"  )


 NUCLEAR REPULSION ENERGY  142.22937512


 Eigenvalues of metric

         1 0.304E-03 0.212E-02 0.378E-02 0.954E-02 0.161E-01 0.176E-01 0.219E-01 0.328E-01
         2 0.345E-01 0.375E-01 0.737E-01 0.110E+00 0.140E+00 0.174E+00 0.186E+00 0.208E+00


 Contracted 2-electron integrals neglected if value below      1.0D-16
 AO integral compression algorithm  1   Integral accuracy      1.0D-16

     37.749 MB (compressed) written to integral file ( 95.3%)

     Node minimum: 37.749 MB, node maximum: 37.749 MB


 NUMBER OF SORTED TWO-ELECTRON INTEGRALS:    4390911.     BUFFER LENGTH:  32768
 NUMBER OF SEGMENTS:   1  SEGMENT LENGTH:    4390911      RECORD LENGTH: 524288

 Memory used in sort:       4.95 MW

 SORT1 READ     4939406. AND WROTE     4342141. INTEGRALS IN     13 RECORDS. CPU TIME:     0.05 SEC, REAL TIME:     0.08 SEC
 SORT2 READ     4342141. AND WROTE     4390911. INTEGRALS IN    144 RECORDS. CPU TIME:     0.05 SEC, REAL TIME:     0.08 SEC

 FILE SIZES:   FILE 1:    36.2 MBYTE,  FILE 4:    54.6 MBYTE,   TOTAL:     90.7 MBYTE

 OPERATOR DM      FOR CENTER  0  COORDINATES:    0.000000    0.000000    0.000000


 **********************************************************************************************************************************
 DATASETS  * FILE   NREC   LENGTH (MB)   RECORD NAMES
              1      19       36.21       500      610      700      900      950      970     1000      129      960     1100   
                                          VAR    BASINP    GEOM    SYMINP    ZMAT    AOBASIS   BASIS     P2S    ABASIS      S 
                                         1400     1410     1200     1210     1080     1600     1650     1300     1700   
                                           T        V       H0       H01     AOSYM     SMH    MOLCAS    ERIS     OPER   

 PROGRAMS   *        TOTAL       INT
 CPU TIMES  *         0.87      0.83
 REAL TIME  *         1.14 SEC
 DISK USED  *       129.21 MB      
 GA USED    *         0.00 MB       (max)       0.00 MB       (current)
 **********************************************************************************************************************************

1PROGRAM * RHF-SCF (CLOSED SHELL)       Authors: W. Meyer, H.-J. Werner


 NUMBER OF ELECTRONS:      18+   18-
 CONVERGENCE THRESHOLDS:    1.00E-10 (Density)    1.00E-13 (Energy)
 MAX. NUMBER OF ITERATIONS:      200
 INTERPOLATION TYPE:            DIIS
 INTERPOLATION STEPS:              2 (START)      1 (STEP)
 LEVEL SHIFTS:                  0.00 (CLOSED)  0.00 (OPEN) 



 Orbital guess generated from atomic densities. Full valence occupancy:   23   6

 Molecular orbital dump at record        2100.2

 Initial alpha occupancy:  15   3
 Initial beta  occupancy:  15   3
 Wave function symmetry:    1

 ITERATION    DDIFF          GRAD             ENERGY        2-EL.EN.            DIPOLE MOMENTS         DIIS
    1      0.000D+00      0.000D+00      -228.51846858    442.464621    1.92162    1.01342    0.00000    0
    2      0.000D+00      0.117D-01      -228.57145020    440.623325    0.82686    0.44525    0.00000    1
    3      0.277D-01      0.854D-02      -228.60354203    441.177264    1.22508    0.61503    0.00000    2
    4      0.102D-01      0.138D-02      -228.60539451    441.309108    1.16742    0.62517    0.00000    3
    5      0.310D-02      0.525D-03      -228.60565736    441.202637    1.16332    0.58315    0.00000    4
    6      0.109D-02      0.193D-03      -228.60569430    441.235187    1.16441    0.59328    0.00000    5
    7      0.418D-03      0.816D-04      -228.60570320    441.225078    1.16091    0.58573    0.00000    6
    8      0.214D-03      0.337D-04      -228.60570478    441.228128    1.16065    0.58503    0.00000    7
    9      0.101D-03      0.927D-05      -228.60570494    441.226870    1.16011    0.58454    0.00000    8
   10      0.368D-04      0.211D-05      -228.60570495    441.227302    1.16002    0.58453    0.00000    7
   11      0.716D-05      0.976D-06      -228.60570496    441.227070    1.15998    0.58453    0.00000    8
   12      0.312D-05      0.527D-06      -228.60570496    441.227110    1.15997    0.58452    0.00000    8
   13      0.248D-05      0.250D-06      -228.60570496    441.227099    1.15997    0.58451    0.00000    9
   14      0.111D-05      0.853D-07      -228.60570496    441.227101    1.15997    0.58451    0.00000    9
   15      0.361D-06      0.175D-07      -228.60570496    441.227102    1.15997    0.58451    0.00000    8
   16      0.613D-07      0.557D-08      -228.60570496    441.227102    1.15997    0.58450    0.00000    8
   17      0.118D-07      0.257D-08      -228.60570496    441.227102    1.15997    0.58450    0.00000    9
   18      0.560D-08      0.792D-09      -228.60570496    441.227102    1.15997    0.58450    0.00000    9
   19      0.194D-08      0.262D-09      -228.60570496    441.227102    1.15997    0.58450    0.00000    9
   20      0.706D-09      0.501D-10      -228.60570496    441.227102    1.15997    0.58450    0.00000    7
   21      0.147D-09      0.110D-10      -228.60570496    441.227102    1.15997    0.58450    0.00000    7
   22      0.277D-10      0.363D-11      -228.60570496    441.227102    1.15997    0.58450    0.00000    0

 Final occupancy:  15   3

 !RHF STATE 1.1 Energy               -228.605704959545
 Nuclear energy                       142.22937512
 One-electron energy                 -591.44863108
 Two-electron energy                  220.61355101
 Virial quotient                       -1.00147504
 !RHF STATE 1.1 Dipole moment           1.15996846     0.58450467     0.00000000
 Dipole moment /Debye                   2.94815264     1.48556539     0.00000000

 Orbital energies:

         1.1          2.1          3.1          4.1          5.1          6.1          7.1          8.1          9.1         10.1
    -20.568332   -11.368627   -11.272683   -11.261563   -11.252573    -1.403909    -1.070679    -1.015782    -0.860362    -0.733040

        11.1         12.1         13.1         14.1         15.1         16.1         17.1
     -0.684878    -0.637247    -0.571520    -0.445513    -0.417698     0.180260     0.188264

         1.2          2.2          3.2          4.2          5.2
     -0.614270    -0.517736    -0.414352     0.094178     0.229239


 **********************************************************************************************************************************
 DATASETS  * FILE   NREC   LENGTH (MB)   RECORD NAMES
              1      19       36.21       500      610      700      900      950      970     1000      129      960     1100   
                                          VAR    BASINP    GEOM    SYMINP    ZMAT    AOBASIS   BASIS     P2S    ABASIS      S 
                                         1400     1410     1200     1210     1080     1600     1650     1300     1700   
                                           T        V       H0       H01     AOSYM     SMH    MOLCAS    ERIS     OPER   

              2       3        0.50       700     1000     2100   
                                         GEOM     BASIS     RHF  

 PROGRAMS   *        TOTAL       RHF       INT
 CPU TIMES  *         1.34      0.47      0.83
 REAL TIME  *         1.70 SEC
 DISK USED  *       129.21 MB      
 GA USED    *         0.00 MB       (max)       0.00 MB       (current)
 **********************************************************************************************************************************


1PROGRAM * CCSD (Closed-shell coupled cluster)     Authors: C. Hampel, H.-J. Werner, 1991, M. Deegan, P.J. Knowles, 1992


 Convergence thresholds:  THRVAR = 1.00D-08  THRDEN = 1.00D-12

 CCSD(T)     terms to be evaluated (factor= 1.000)


 Number of core orbitals:           5 (   5   0 )
 Number of closed-shell orbitals:  13 (  10   3 )
 Number of external orbitals:      72 (  48  24 )

 Molecular orbitals read from record     2100.2  Type=RHF/CANONICAL (state 1.1)

 Number of N-1 electron functions:              13
 Number of N-2 electron functions:              91
 Number of singly external CSFs:               552
 Number of doubly external CSFs:            226548
 Total number of CSFs:                      227101

 Length of J-op  integral file:               0.00 MB
 Length of K-op  integral file:               0.35 MB
 Length of 3-ext integral record:             0.00 MB

 Memory could be reduced to 3.88 Mwords without degradation in triples

 Integral transformation finished. Total CPU:   0.10 sec, npass=  1  Memory used:   1.89 MW

 Reference energy:                   -228.60570496

 MP2 singlet pair energy:              -0.43052429
 MP2 triplet pair energy:              -0.26903132
 MP2 correlation energy:               -0.69955561
 MP2 total energy:                   -229.30526057

 SCS-MP2 correlation energy:           -0.68402642   (PS=  1.200000  PT=  0.333333)
 SCS-MP2 total energy:               -229.28973137

 ITER.      SQ.NORM     CORR.ENERGY   TOTAL ENERGY   ENERGY CHANGE        DEN1      VAR(S)    VAR(P)  DIIS     TIME
   1      1.25726317    -0.72722427  -229.33292923    -0.02766866    -0.00370595  0.60D-02  0.55D-02  1  1     0.35
   2      1.28001237    -0.72999652  -229.33570148    -0.00277225    -0.02080633  0.12D-03  0.98D-03  2  2     0.60
   3      1.29066911    -0.73077185  -229.33647681    -0.00077533    -0.00476007  0.11D-03  0.92D-04  3  3     0.86
   4      1.29495228    -0.73073673  -229.33644169     0.00003512    -0.00140746  0.80D-05  0.18D-04  4  4     1.11
   5      1.29681197    -0.73075778  -229.33646274    -0.00002105    -0.00044456  0.16D-05  0.20D-05  5  5     1.37
   6      1.29723696    -0.73075371  -229.33645867     0.00000407    -0.00006261  0.28D-06  0.27D-06  6  6     1.63
   7      1.29732462    -0.73074952  -229.33645448     0.00000419    -0.00000186  0.56D-07  0.30D-07  6  1     1.89
   8      1.29736270    -0.73075049  -229.33645545    -0.00000097    -0.00000947  0.11D-07  0.48D-08  6  2     2.15
   9      1.29736488    -0.73075059  -229.33645555    -0.00000010     0.00000298  0.17D-08  0.83D-09  6  3     2.41
  10      1.29736762    -0.73075031  -229.33645527     0.00000028    -0.00000057  0.33D-09  0.16D-09  6  4     2.66
  11      1.29736744    -0.73075056  -229.33645552    -0.00000025     0.00000057  0.42D-10  0.32D-10  6  5     2.92
  12      1.29736715    -0.73075052  -229.33645548     0.00000004     0.00000015  0.82D-11  0.62D-11  6  6     3.18
  13      1.29736680    -0.73075054  -229.33645550    -0.00000003     0.00000015  0.94D-12  0.16D-11  6  1     3.44
  14      1.29736657    -0.73075055  -229.33645551    -0.00000000     0.00000006  0.28D-12  0.23D-12  6  2     3.70
  15      1.29736646    -0.73075055  -229.33645551    -0.00000000     0.00000003  0.43D-13  0.50D-13  6  3     3.96
  16      1.29736642    -0.73075055  -229.33645551    -0.00000000     0.00000001  0.82D-14  0.99D-14  6  4     4.22
  17      1.29736640    -0.73075055  -229.33645551    -0.00000000     0.00000000  0.25D-14  0.12D-14  6  5     4.48
  18      1.29736639    -0.73075055  -229.33645551    -0.00000000     0.00000000  0.34D-15  0.24D-15  6  6     4.74
  19      1.29736639    -0.73075055  -229.33645551    -0.00000000    -0.00000000  0.79D-16  0.45D-16  6  1     5.00
  20      1.29736639    -0.73075055  -229.33645551    -0.00000000    -0.00000000  0.20D-16  0.80D-17  6  4     5.25
  21      1.29736639    -0.73075055  -229.33645551    -0.00000000    -0.00000000  0.57D-17  0.18D-17  6  1     5.51
  22      1.29736639    -0.73075055  -229.33645551    -0.00000000     0.00000000  0.65D-18  0.32D-18  6  2     5.76
  23      1.29736639    -0.73075055  -229.33645551     0.00000000     0.00000000  0.15D-18  0.75D-19  6  3     6.02
  24      1.29736639    -0.73075055  -229.33645551    -0.00000000     0.00000000  0.25D-19  0.13D-19  6  5     6.29
  25      1.29736639    -0.73075055  -229.33645551     0.00000000    -0.00000000  0.53D-20  0.31D-20  6  6     6.55
  26      1.29736639    -0.73075055  -229.33645551     0.00000000    -0.00000000  0.11D-20  0.83D-21  6  1     6.81

 Norm of t1 vector:      0.10831877      S-energy:     0.00000000      T1 diagnostic:  0.01502111
                                                                       D1 diagnostic:  0.05036632

 Doubles amplitudes (print threshold =  0.500E-01):

         I         J         SYM. A    SYM. B    A         B      T(IJ, AB)

        10        10         1         1         1         1     -0.06484180
        12        12         2         2         1         1     -0.05804865
        13        13         2         2         1         1     -0.07377819


 Total CPU time for triples:      2.83 sec


 RESULTS
 =======

  Reference energy                   -228.605704959545
  CCSD singlet pair energy             -0.496639093096
  CCSD triplet pair energy             -0.234111458968
  CCSD correlation energy              -0.730750552064

  Triples (T) contribution             -0.028476828247
  Total correlation energy             -0.759227380311

  CCSD total energy                  -229.336455511609
  CCSD[T] energy                     -229.366788312517
  CCSD-T energy                      -229.364229334695
 !CCSD(T) total energy               -229.364932339856

 Timing summary (sec):

 STEP                 CPU(USER)    SYS     CPU(TOT)    WALL
 Transformation          0.10      0.02      0.12      0.13
 CCSD iterations         6.71      0.31      7.02      7.06
 Triples                 2.83      0.06      2.89      2.89

 Program statistics:

 Available memory in ccsd:               999999224
 Min. memory needed in ccsd:                665989
 Max. memory used in ccsd:                  860707
 Max. memory used in cckext:                949946 (26 integral passes)



 **********************************************************************************************************************************
 DATASETS  * FILE   NREC   LENGTH (MB)   RECORD NAMES
              1      20       51.18       500      610      700      900      950      970     1000      129      960     1100   
                                          VAR    BASINP    GEOM    SYMINP    ZMAT    AOBASIS   BASIS     P2S    ABASIS      S 
                                         1400     1410     1200     1210     1080     1600     1650     1300     1700     1380   
                                           T        V       H0       H01     AOSYM     SMH    MOLCAS    ERIS     OPER     JKOP   

              2       3        0.50       700     1000     2100   
                                         GEOM     BASIS     RHF  

 PROGRAMS   *        TOTAL   CCSD(T)       RHF       INT
 CPU TIMES  *        10.99      9.65      0.47      0.83
 REAL TIME  *        11.81 SEC
 DISK USED  *       130.77 MB      
 GA USED    *         0.00 MB       (max)       0.00 MB       (current)
 **********************************************************************************************************************************

        CCSD(T)         RHF-SCF 
   -229.36493234   -228.60570496
 **********************************************************************************************************************************
 Variable memory released
