
 Primary working directories    : /tmp/878919.657.gen5.q
 Secondary working directories  : /tmp/878919.657.gen5.q
 Wavefunction directory         : /home/vulcan/lo21740/wfu/
 Main file repository           : /tmp/878919.657.gen5.q/

 ARCHNAME  : Linux/x86_64
 FC        : /opt/intel/compilers_and_libraries_2016.1.150/linux/bin/intel64/ifort
 FCVERSION : 16.0.1
 BLASLIB   : -mkl
 id        : ccgc

 Nodes     nprocs
 n072         1
 ga_uses_ma=false, calling ma_init with nominal heap.
 GA-space will be limited to   8.0 MW (determined by -G option)

 Using customized tuning parameters: mindgm=10; mindgv=16; mindgc=4; mindgr=1; noblas=0; mincuda=1000; minvec=7
 default implementation of scratch files=df  

 ***,Optimization of formamide
 memory,1000,m
 gthresh,energy=1.0d-12,orbital=1.0d-10,oneint=1.0d-16,twoint=1.0d-16,optgrad=1.0d-6,compress=1.0d-13
 geomtyp=xyz
 
 bohr
 geometry = {
  C   -3.8221311613    0.0849774486   -0.0000000000
  O   -2.7259769802    2.1382702361    0.0000000000
  N   -2.6829732493   -2.1837475432   -0.0000000000
  H   -3.7469563464   -3.7548577601   -0.0000000000
  H   -0.7507701030   -2.3099254751   -0.0000000000
  H   -5.9006069685   -0.0084108496   -0.0000000000
  C    3.8294667200   -0.0876954596   -0.0000000000
  O    2.7344484083   -2.1396309752   -0.0000000000
  N    2.6797544445    2.1751283386    0.0000000000
  H    3.7311926217    3.7572155286    0.0000000000
  H    0.7505975701    2.3002182075    0.0000000000
  H    5.9039550441    0.0284583035   -0.0000000000
 }
 
 basis=VDZ
 {rhf;maxit,200}
 {ccsd(t);maxit,200}

 Variables initialized (661), CPU time= 0.00 sec
 Commands  initialized (458), CPU time= 0.00 sec, 486 directives.
 Default parameters read. Elapsed time= 0.05 sec

 Checking input...
 Passed
1


                                         ***  PROGRAM SYSTEM MOLPRO  ***
                         Copyright, University College Cardiff Consultants Limited, 2008

                                    Version 2010.1 linked May 16 2016 07:17:05


 **********************************************************************************************************************************
 LABEL *   Optimization of formamide                                                     
 Linux-4.4.3/n072(x86_64) 64 bit mpp version                                             DATE: 22-May-23          TIME: 21:08:08  
 **********************************************************************************************************************************

 SHA1:             9e8077add272b0f3cad6f7df79ec5211205f459d
 **********************************************************************************************************************************

 THRESHOLDS:

 ZERO    =  1.00D-12  ONEINT  =  1.00D-16  TWOINT  =  1.00D-16  PREFAC  =  1.00D-14  LOCALI  =  1.00D-09  EORDER  =  1.00D-04
 ENERGY  =  1.00D-12  ETEST   =  0.00D+00  EDENS   =  0.00D+00  THRDEDEF=  1.00D-06  GRADIENT=  1.00D-02  STEP    =  1.00D-03
 ORBITAL =  1.00D-10  CIVEC   =  1.00D-05  COEFF   =  1.00D-04  PRINTCI =  5.00D-02  PUNCHCI =  9.90D+01  OPTGRAD =  1.00D-06
 OPTENERG=  1.00D-06  OPTSTEP =  3.00D-04  THRGRAD =  1.00D-10  COMPRESS=  1.00D-13  VARMIN  =  1.00D-07  VARMAX  =  1.00D-03
 THRDOUB =  0.00D+00  THRDIV  =  1.00D-05  THRRED  =  1.00D-07  THRPSP  =  1.00D+00  THRDC   =  1.00D-10  THRCS   =  1.00D-10
 THRNRM  =  1.00D-08  THREQ   =  0.00D+00  THRDE   =  1.00D+00  THRREF  =  1.00D-05  SPARFAC =  1.00D+00  THRDLP  =  1.00D-07
 THRDIA  =  1.00D-10  THRDLS  =  1.00D-07  THRGPS  =  0.00D+00  THRKEX  =  0.00D+00  THRDIS  =  2.00D-01  THRVAR  =  1.00D-10
 THRLOC  =  1.00D-06  THRGAP  =  1.00D-06  THRLOCT = -1.00D+00  THRGAPT = -1.00D+00  THRORB  =  1.00D-06  THRMLTP =  0.00D+00
 THRCPQCI=  1.00D-10  KEXTA   =  0.00D+00  THRCOARS=  0.00D+00  SYMTOL  =  1.00D-06  GRADTOL =  1.00D-06  THROVL  =  1.00D-08
 THRORTH =  1.00D-08  GRID    =  1.00D-06  GRIDMAX =  1.00D-03  DTMAX   =  0.00D+00

 SETTING GEOMTYP        =    XYZ
 ZUNIT=BOHR
 

 Variable memory set to 1000000000 words,  buffer space   230000 words

 SETTING BASIS          =    VDZ


 Recomputing integrals since basis changed


 Using spherical harmonics

 Library entry C      S cc-pVDZ              selected for orbital group  1
 Library entry C      P cc-pVDZ              selected for orbital group  1
 Library entry C      D cc-pVDZ              selected for orbital group  1
 Library entry O      S cc-pVDZ              selected for orbital group  2
 Library entry O      P cc-pVDZ              selected for orbital group  2
 Library entry O      D cc-pVDZ              selected for orbital group  2
 Library entry N      S cc-pVDZ              selected for orbital group  3
 Library entry N      P cc-pVDZ              selected for orbital group  3
 Library entry N      D cc-pVDZ              selected for orbital group  3
 Library entry H      S cc-pVDZ              selected for orbital group  4
 Library entry H      P cc-pVDZ              selected for orbital group  4

1PROGRAM * SEWARD (Integral evaluation for generally contracted gaussian basis sets)     Author: Roland Lindh, 1990

 Geometry written to block  1 of record 700


 Point group  Cs  



 ATOMIC COORDINATES

 NR  ATOM    CHARGE       X              Y              Z

   1  C       6.00   -3.822131161    0.084977449    0.000000000
   2  O       8.00   -2.725976980    2.138270236    0.000000000
   3  N       7.00   -2.682973249   -2.183747543    0.000000000
   4  H       1.00   -3.746956346   -3.754857760    0.000000000
   5  H       1.00   -0.750770103   -2.309925475    0.000000000
   6  H       1.00   -5.900606968   -0.008410850    0.000000000
   7  C       6.00    3.829466720   -0.087695460    0.000000000
   8  O       8.00    2.734448408   -2.139630975    0.000000000
   9  N       7.00    2.679754444    2.175128339    0.000000000
  10  H       1.00    3.731192622    3.757215529    0.000000000
  11  H       1.00    0.750597570    2.300218207    0.000000000
  12  H       1.00    5.903955044    0.028458304    0.000000000

 Bond lengths in Bohr (Angstrom)

 1-2  2.327566381  1-3  2.538659851  1-6  2.080572771  3-4  1.897484478  3-5  1.936318638
     ( 1.231695081)     ( 1.343400934)     ( 1.100991692)     ( 1.004105540)     ( 1.024655693)

  7- 8  2.325834144   7- 9  2.538150874   7-12  2.077737593   9-10  1.899611044   9-11  1.933208142
       ( 1.230778421)       ( 1.343131595)       ( 1.099491380)       ( 1.005230870)       ( 1.023009689)

 Bond angles

  1-3-4  119.23160687   1-3-5  120.39811401   2-1-3  125.24253338   2-1-6  120.66824696

  3- 1- 6  114.08921966   4- 3- 5  120.37027912   7- 9-10  119.45786385   7- 9-11  120.64451396

  8- 7- 9  124.97877555   8- 7-12  121.29140613   9- 7-12  113.72981832  10- 9-11  119.89762218

 NUCLEAR CHARGE:                   48
 NUMBER OF PRIMITIVE AOS:         204
 NUMBER OF SYMMETRY AOS:          198
 NUMBER OF CONTRACTIONS:          114   (  84A'  +  30A"  )
 NUMBER OF CORE ORBITALS:           6   (   6A'  +   0A"  )
 NUMBER OF VALENCE ORBITALS:       30   (  24A'  +   6A"  )


 NUCLEAR REPULSION ENERGY  230.50418428


 Eigenvalues of metric

         1 0.555E-02 0.571E-02 0.108E-01 0.113E-01 0.153E-01 0.154E-01 0.238E-01 0.242E-01
         2 0.105E+00 0.106E+00 0.169E+00 0.173E+00 0.192E+00 0.196E+00 0.400E+00 0.408E+00


 Contracted 2-electron integrals neglected if value below      1.0D-16
 AO integral compression algorithm  1   Integral accuracy      1.0D-16

     84.935 MB (compressed) written to integral file ( 85.9%)

     Node minimum: 84.935 MB, node maximum: 84.935 MB


 NUMBER OF SORTED TWO-ELECTRON INTEGRALS:   11462730.     BUFFER LENGTH:  32768
 NUMBER OF SEGMENTS:   1  SEGMENT LENGTH:   11462730      RECORD LENGTH: 524288

 Memory used in sort:      12.02 MW

 SORT1 READ    12320984. AND WROTE    11136447. INTEGRALS IN     32 RECORDS. CPU TIME:     0.16 SEC, REAL TIME:     0.23 SEC
 SORT2 READ    11136447. AND WROTE    11462730. INTEGRALS IN    324 RECORDS. CPU TIME:     0.14 SEC, REAL TIME:     0.19 SEC

 FILE SIZES:   FILE 1:    81.1 MBYTE,  FILE 4:   134.3 MBYTE,   TOTAL:    215.3 MBYTE

 OPERATOR DM      FOR CENTER  0  COORDINATES:    0.000000    0.000000    0.000000


 **********************************************************************************************************************************
 DATASETS  * FILE   NREC   LENGTH (MB)   RECORD NAMES
              1      19       81.15       500      610      700      900      950      970     1000      129      960     1100   
                                          VAR    BASINP    GEOM    SYMINP    ZMAT    AOBASIS   BASIS     P2S    ABASIS      S 
                                         1400     1410     1200     1210     1080     1600     1650     1300     1700   
                                           T        V       H0       H01     AOSYM     SMH    MOLCAS    ERIS     OPER   

 PROGRAMS   *        TOTAL       INT
 CPU TIMES  *         2.72      2.68
 REAL TIME  *         3.25 SEC
 DISK USED  *       301.11 MB      
 GA USED    *         0.00 MB       (max)       0.00 MB       (current)
 **********************************************************************************************************************************

1PROGRAM * RHF-SCF (CLOSED SHELL)       Authors: W. Meyer, H.-J. Werner


 NUMBER OF ELECTRONS:      24+   24-
 CONVERGENCE THRESHOLDS:    1.00E-10 (Density)    1.00E-13 (Energy)
 MAX. NUMBER OF ITERATIONS:      200
 INTERPOLATION TYPE:            DIIS
 INTERPOLATION STEPS:              2 (START)      1 (STEP)
 LEVEL SHIFTS:                  0.00 (CLOSED)  0.00 (OPEN) 



 Orbital guess generated from atomic densities. Full valence occupancy:   30   6

 Molecular orbital dump at record        2100.2

 Initial alpha occupancy:  20   4
 Initial beta  occupancy:  20   4
 Wave function symmetry:    1

 ITERATION    DDIFF          GRAD             ENERGY        2-EL.EN.            DIPOLE MOMENTS         DIIS
    1      0.000D+00      0.000D+00      -337.77923756    705.413367   -0.00457   -0.00323    0.00000    0
    2      0.000D+00      0.121D-01      -337.85781202    700.214650   -0.00473    0.00189    0.00000    1
    3      0.242D-01      0.863D-02      -337.91347471    702.692316   -0.00447   -0.00076    0.00000    2
    4      0.929D-02      0.114D-02      -337.91557602    702.677611   -0.00401   -0.00007    0.00000    3
    5      0.205D-02      0.400D-03      -337.91584308    702.606169   -0.00410   -0.00039    0.00000    4
    6      0.736D-03      0.133D-03      -337.91591083    702.625236   -0.00399   -0.00023    0.00000    5
    7      0.341D-03      0.597D-04      -337.91592217    702.620746   -0.00401   -0.00034    0.00000    6
    8      0.173D-03      0.157D-04      -337.91592287    702.621243   -0.00396   -0.00020    0.00000    7
    9      0.442D-04      0.414D-05      -337.91592292    702.620882   -0.00401   -0.00040    0.00000    7
   10      0.118D-04      0.167D-05      -337.91592292    702.620976   -0.00397   -0.00025    0.00000    7
   11      0.303D-05      0.567D-06      -337.91592293    702.621035   -0.00398   -0.00029    0.00000    8
   12      0.122D-05      0.816D-07      -337.91592293    702.621001   -0.00398   -0.00029    0.00000    8
   13      0.201D-06      0.272D-07      -337.91592293    702.621011   -0.00398   -0.00029    0.00000    8
   14      0.591D-07      0.108D-07      -337.91592293    702.621012   -0.00398   -0.00029    0.00000    7
   15      0.304D-07      0.318D-08      -337.91592293    702.621011   -0.00398   -0.00029    0.00000    7
   16      0.591D-08      0.670D-09      -337.91592293    702.621012   -0.00398   -0.00029    0.00000    7
   17      0.145D-08      0.322D-09      -337.91592293    702.621012   -0.00398   -0.00029    0.00000    7
   18      0.716D-09      0.106D-09      -337.91592293    702.621012   -0.00398   -0.00029    0.00000    7
   19      0.270D-09      0.419D-10      -337.91592293    702.621012   -0.00398   -0.00029    0.00000    8
   20      0.834D-10      0.149D-10      -337.91592293    702.621012   -0.00398   -0.00029    0.00000    8
   21      0.331D-10      0.378D-11      -337.91592293    702.621012   -0.00398   -0.00029    0.00000    8
   22      0.840D-11      0.834D-12      -337.91592293    702.621012   -0.00398   -0.00029    0.00000    0

 Final occupancy:  20   4

 !RHF STATE 1.1 Energy               -337.915922925510
 Nuclear energy                       230.50418428
 One-electron energy                 -919.73061300
 Two-electron energy                  351.31050579
 Virial quotient                       -1.00144654
 !RHF STATE 1.1 Dipole moment          -0.00398309    -0.00028757     0.00000000
 Dipole moment /Debye                  -0.01012334    -0.00073087     0.00000000

 Orbital energies:

         1.1          2.1          3.1          4.1          5.1          6.1          7.1          8.1          9.1         10.1
    -20.525314   -20.525271   -15.577720   -15.576889   -11.359367   -11.359080    -1.378035    -1.373255    -1.208309    -1.202112

        11.1         12.1         13.1         14.1         15.1         16.1         17.1         18.1         19.1         20.1
     -0.851828    -0.826734    -0.740334    -0.731394    -0.695496    -0.634097    -0.610058    -0.583560    -0.443443    -0.418501

        21.1         22.1
      0.186231     0.188117

         1.2          2.2          3.2          4.2          5.2          6.2
     -0.564980    -0.557508    -0.410546    -0.400972     0.194435     0.201332


 **********************************************************************************************************************************
 DATASETS  * FILE   NREC   LENGTH (MB)   RECORD NAMES
              1      19       81.15       500      610      700      900      950      970     1000      129      960     1100   
                                          VAR    BASINP    GEOM    SYMINP    ZMAT    AOBASIS   BASIS     P2S    ABASIS      S 
                                         1400     1410     1200     1210     1080     1600     1650     1300     1700   
                                           T        V       H0       H01     AOSYM     SMH    MOLCAS    ERIS     OPER   

              2       3        0.62       700     1000     2100   
                                         GEOM     BASIS     RHF  

 PROGRAMS   *        TOTAL       RHF       INT
 CPU TIMES  *         4.37      1.65      2.68
 REAL TIME  *         5.13 SEC
 DISK USED  *       301.11 MB      
 GA USED    *         0.00 MB       (max)       0.00 MB       (current)
 **********************************************************************************************************************************


1PROGRAM * CCSD (Closed-shell coupled cluster)     Authors: C. Hampel, H.-J. Werner, 1991, M. Deegan, P.J. Knowles, 1992


 Convergence thresholds:  THRVAR = 1.00D-08  THRDEN = 1.00D-12

 CCSD(T)     terms to be evaluated (factor= 1.000)


 Number of core orbitals:           6 (   6   0 )
 Number of closed-shell orbitals:  18 (  14   4 )
 Number of external orbitals:      90 (  64  26 )

 Molecular orbitals read from record     2100.2  Type=RHF/CANONICAL (state 1.1)

 Number of N-1 electron functions:              18
 Number of N-2 electron functions:             171
 Number of singly external CSFs:              1000
 Number of doubly external CSFs:            693010
 Total number of CSFs:                      694011

 Length of J-op  integral file:               0.00 MB
 Length of K-op  integral file:               0.59 MB
 Length of 3-ext integral record:             0.00 MB

 Memory could be reduced to 9.94 Mwords without degradation in triples

 Integral transformation finished. Total CPU:   0.49 sec, npass=  1  Memory used:   5.91 MW

 Reference energy:                   -337.91592293

 MP2 singlet pair energy:              -0.58961302
 MP2 triplet pair energy:              -0.38312416
 MP2 correlation energy:               -0.97273718
 MP2 total energy:                   -338.88866011

 SCS-MP2 correlation energy:           -0.94592399   (PS=  1.200000  PT=  0.333333)
 SCS-MP2 total energy:               -338.86184692

 ITER.      SQ.NORM     CORR.ENERGY   TOTAL ENERGY   ENERGY CHANGE        DEN1      VAR(S)    VAR(P)  DIIS     TIME
   1      1.29766700    -1.00470573  -338.92062866    -0.03196855    -0.00230906  0.97D-02  0.55D-02  1  1     1.85
   2      1.32257291    -1.00734511  -338.92326803    -0.00263938    -0.02515264  0.22D-03  0.11D-02  2  2     3.26
   3      1.33523769    -1.00832105  -338.92424398    -0.00097595    -0.00560867  0.22D-03  0.47D-04  3  3     4.66
   4      1.34061038    -1.00809176  -338.92401469     0.00022929    -0.00169820  0.20D-04  0.81D-05  4  4     6.07
   5      1.34272684    -1.00802785  -338.92395078     0.00006391    -0.00043605  0.19D-05  0.10D-05  5  5     7.48
   6      1.34319585    -1.00799700  -338.92391993     0.00003085    -0.00004153  0.15D-06  0.13D-06  6  6     8.90
   7      1.34330128    -1.00798729  -338.92391021     0.00000971    -0.00000529  0.14D-07  0.15D-07  6  2    10.31
   8      1.34331919    -1.00798738  -338.92391030    -0.00000009     0.00000002  0.18D-08  0.17D-08  6  1    11.72
   9      1.34332066    -1.00798706  -338.92390999     0.00000031     0.00000150  0.28D-09  0.21D-09  6  4    13.14
  10      1.34332365    -1.00798702  -338.92390995     0.00000004    -0.00000041  0.73D-10  0.19D-10  6  3    14.55
  11      1.34332354    -1.00798709  -338.92391002    -0.00000007     0.00000017  0.14D-10  0.46D-11  6  5    15.96
  12      1.34332333    -1.00798711  -338.92391004    -0.00000002     0.00000008  0.30D-11  0.12D-11  6  6    17.37
  13      1.34332310    -1.00798714  -338.92391007    -0.00000003     0.00000010  0.41D-12  0.17D-12  6  2    18.79
  14      1.34332300    -1.00798715  -338.92391007    -0.00000001     0.00000003  0.72D-13  0.29D-13  6  1    20.21
  15      1.34332298    -1.00798715  -338.92391008    -0.00000000     0.00000000  0.12D-13  0.67D-14  6  4    21.63
  16      1.34332297    -1.00798715  -338.92391008    -0.00000000    -0.00000000  0.30D-14  0.12D-14  6  3    23.04
  17      1.34332297    -1.00798715  -338.92391008    -0.00000000    -0.00000000  0.80D-15  0.17D-15  6  5    24.46
  18      1.34332297    -1.00798715  -338.92391008    -0.00000000     0.00000000  0.62D-16  0.53D-16  6  6    25.87
  19      1.34332297    -1.00798715  -338.92391008    -0.00000000     0.00000000  0.17D-16  0.67D-17  6  2    27.29
  20      1.34332297    -1.00798715  -338.92391008    -0.00000000     0.00000000  0.22D-17  0.11D-17  6  1    28.69
  21      1.34332297    -1.00798715  -338.92391008    -0.00000000     0.00000000  0.25D-18  0.23D-18  6  4    30.10
  22      1.34332297    -1.00798715  -338.92391008     0.00000000     0.00000000  0.78D-19  0.33D-19  6  3    31.52
  23      1.34332297    -1.00798715  -338.92391008    -0.00000000     0.00000000  0.12D-19  0.46D-20  6  5    32.93
  24      1.34332297    -1.00798715  -338.92391008     0.00000000    -0.00000000  0.19D-20  0.11D-20  6  6    34.35
  25      1.34332297    -1.00798715  -338.92391008     0.00000000    -0.00000000  0.50D-21  0.20D-21  6  2    35.76

 Norm of t1 vector:      0.14912786      S-energy:     0.00000000      T1 diagnostic:  0.01757489
                                                                       D1 diagnostic:  0.06230968

 Singles amplitudes (print threshold =  0.500E-01):

         I         SYM. A    A   T(IA)

        15         2         1      0.05776646
        16         2         2      0.05870747


 Total CPU time for triples:     21.46 sec


 RESULTS
 =======

  Reference energy                   -337.915922925510
  CCSD singlet pair energy             -0.667886348336
  CCSD triplet pair energy             -0.340100802818
  CCSD correlation energy              -1.007987151152

  Triples (T) contribution             -0.032247544525
  Total correlation energy             -1.040234695678

  CCSD total energy                  -338.923910076662
  CCSD[T] energy                     -338.959156813835
  CCSD-T energy                      -338.955178509487
 !CCSD(T) total energy               -338.956157621187

 Timing summary (sec):

 STEP                 CPU(USER)    SYS     CPU(TOT)    WALL
 Transformation          0.52      0.07      0.59      0.58
 CCSD iterations        35.24      1.12     36.36     36.42
 Triples                21.46      0.48     21.94     21.94

 Program statistics:

 Available memory in ccsd:               999998604
 Min. memory needed in ccsd:               1904590
 Max. memory used in ccsd:                 2522532
 Max. memory used in cckext:               2734922 (25 integral passes)



 **********************************************************************************************************************************
 DATASETS  * FILE   NREC   LENGTH (MB)   RECORD NAMES
              1      20      123.95       500      610      700      900      950      970     1000      129      960     1100   
                                          VAR    BASINP    GEOM    SYMINP    ZMAT    AOBASIS   BASIS     P2S    ABASIS      S 
                                         1400     1410     1200     1210     1080     1600     1650     1300     1700     1380   
                                           T        V       H0       H01     AOSYM     SMH    MOLCAS    ERIS     OPER     JKOP   

              2       3        0.62       700     1000     2100   
                                         GEOM     BASIS     RHF  

 PROGRAMS   *        TOTAL   CCSD(T)       RHF       INT
 CPU TIMES  *        61.60     57.23      1.65      2.68
 REAL TIME  *        64.11 SEC
 DISK USED  *       332.23 MB      
 GA USED    *         0.00 MB       (max)       0.00 MB       (current)
 **********************************************************************************************************************************

        CCSD(T)         RHF-SCF 
   -338.95615762   -337.91592293
 **********************************************************************************************************************************
 Variable memory released
