
 Primary working directories    : /tmp/984874.10.gen4.q
 Secondary working directories  : /tmp/984874.10.gen4.q
 Wavefunction directory         : /home/vulcan/mel64643/wfu/
 Main file repository           : /tmp/984874.10.gen4.q/

 ARCHNAME  : Linux/x86_64
 FC        : /opt/intel/compilers_and_libraries_2016.1.150/linux/bin/intel64/ifort
 FCVERSION : 16.0.1
 BLASLIB   : -mkl
 id        : ccgc

 Nodes     nprocs
 n056         1
 ga_uses_ma=false, calling ma_init with nominal heap.
 GA-space will be limited to   8.0 MW (determined by -G option)

 Using customized tuning parameters: mindgm=10; mindgv=16; mindgc=4; mindgr=1; noblas=0; mincuda=1000; minvec=7
 default implementation of scratch files=df  

 ***,Optimization of formic acid
 memory,1000,m
 gthresh,energy=1.0d-12,orbital=1.0d-10,oneint=1.0d-16,twoint=1.0d-16,optgrad=1.0d-6,compress=1.0d-13
 geomtyp=xyz
 
 
 
 bohr
 geometry = {
  C   -3.5062418911   -0.8303158813   -0.0000000000
  O   -3.1007891392    1.6232727483    0.0000000000
  O   -1.8855286760   -2.4852864650   -0.0000000000
  H   -5.5253361508   -1.2735923526   -0.0000000000
  H   -1.2417727850    1.9564840504    0.0000000000
  C    3.5062418911    0.8303158813   -0.0000000000
  O    3.1007891392   -1.6232727483    0.0000000000
  O    1.8855286760    2.4852864650   -0.0000000000
  H    5.5253361508    1.2735923526    0.0000000000
  H    1.2417727850   -1.9564840504    0.0000000000
 }
 
 basis=VTZ
 {rhf;maxit,200}
 {ccsd(t);maxit,200}

 Variables initialized (661), CPU time= 0.01 sec
 Commands  initialized (458), CPU time= 0.00 sec, 486 directives.
 Default parameters read. Elapsed time= 0.05 sec

 Checking input...
 Passed
1


                                         ***  PROGRAM SYSTEM MOLPRO  ***
                         Copyright, University College Cardiff Consultants Limited, 2008

                                    Version 2010.1 linked May 16 2016 07:17:05


 **********************************************************************************************************************************
 LABEL *   Optimization of formic acid                                                   
 Linux-4.4.3/n056(x86_64) 64 bit mpp version                                             DATE: 24-Jan-24          TIME: 08:57:30  
 **********************************************************************************************************************************

 SHA1:             9e8077add272b0f3cad6f7df79ec5211205f459d
 **********************************************************************************************************************************

 THRESHOLDS:

 ZERO    =  1.00D-12  ONEINT  =  1.00D-16  TWOINT  =  1.00D-16  PREFAC  =  1.00D-14  LOCALI  =  1.00D-09  EORDER  =  1.00D-04
 ENERGY  =  1.00D-12  ETEST   =  0.00D+00  EDENS   =  0.00D+00  THRDEDEF=  1.00D-06  GRADIENT=  1.00D-02  STEP    =  1.00D-03
 ORBITAL =  1.00D-10  CIVEC   =  1.00D-05  COEFF   =  1.00D-04  PRINTCI =  5.00D-02  PUNCHCI =  9.90D+01  OPTGRAD =  1.00D-06
 OPTENERG=  1.00D-06  OPTSTEP =  3.00D-04  THRGRAD =  1.00D-10  COMPRESS=  1.00D-13  VARMIN  =  1.00D-07  VARMAX  =  1.00D-03
 THRDOUB =  0.00D+00  THRDIV  =  1.00D-05  THRRED  =  1.00D-07  THRPSP  =  1.00D+00  THRDC   =  1.00D-10  THRCS   =  1.00D-10
 THRNRM  =  1.00D-08  THREQ   =  0.00D+00  THRDE   =  1.00D+00  THRREF  =  1.00D-05  SPARFAC =  1.00D+00  THRDLP  =  1.00D-07
 THRDIA  =  1.00D-10  THRDLS  =  1.00D-07  THRGPS  =  0.00D+00  THRKEX  =  0.00D+00  THRDIS  =  2.00D-01  THRVAR  =  1.00D-10
 THRLOC  =  1.00D-06  THRGAP  =  1.00D-06  THRLOCT = -1.00D+00  THRGAPT = -1.00D+00  THRORB  =  1.00D-06  THRMLTP =  0.00D+00
 THRCPQCI=  1.00D-10  KEXTA   =  0.00D+00  THRCOARS=  0.00D+00  SYMTOL  =  1.00D-06  GRADTOL =  1.00D-06  THROVL  =  1.00D-08
 THRORTH =  1.00D-08  GRID    =  1.00D-06  GRIDMAX =  1.00D-03  DTMAX   =  0.00D+00

 SETTING GEOMTYP        =    XYZ
 ZUNIT=BOHR
 

 Variable memory set to 1000000000 words,  buffer space   230000 words

 SETTING BASIS          =    VTZ


 Recomputing integrals since basis changed


 Using spherical harmonics

 Library entry C      S cc-pVTZ              selected for orbital group  1
 Library entry C      P cc-pVTZ              selected for orbital group  1
 Library entry C      D cc-pVTZ              selected for orbital group  1
 Library entry C      F cc-pVTZ              selected for orbital group  1
 Library entry O      S cc-pVTZ              selected for orbital group  2
 Library entry O      P cc-pVTZ              selected for orbital group  2
 Library entry O      D cc-pVTZ              selected for orbital group  2
 Library entry O      F cc-pVTZ              selected for orbital group  2
 Library entry H      S cc-pVTZ              selected for orbital group  3
 Library entry H      P cc-pVTZ              selected for orbital group  3
 Library entry H      D cc-pVTZ              selected for orbital group  3

1PROGRAM * SEWARD (Integral evaluation for generally contracted gaussian basis sets)     Author: Roland Lindh, 1990

 Geometry written to block  1 of record 700


 Point group  C2h 



 ATOMIC COORDINATES

 NR  ATOM    CHARGE       X              Y              Z

   1  C       6.00   -3.506241891   -0.830315881    0.000000000
   2  C       6.00    3.506241891    0.830315881    0.000000000
   3  O       8.00   -3.100789139    1.623272748    0.000000000
   4  O       8.00    3.100789139   -1.623272748    0.000000000
   5  O       8.00   -1.885528676   -2.485286465    0.000000000
   6  O       8.00    1.885528676    2.485286465    0.000000000
   7  H       1.00   -5.525336151   -1.273592353    0.000000000
   8  H       1.00    5.525336151    1.273592353    0.000000000
   9  H       1.00   -1.241772785    1.956484050    0.000000000
  10  H       1.00    1.241772785   -1.956484050    0.000000000

 Bond lengths in Bohr (Angstrom)

 1-3  2.486863305  1-5  2.316384890  1-7  2.067180606  2-4  2.486863305  2-6  2.316384890
     ( 1.315991383)     ( 1.225778091)     ( 1.093904864)     ( 1.315991383)     ( 1.225778091)

  2- 8  2.067180606   3- 9  1.888642787   4-10  1.888642787
       ( 1.093904864)       ( 0.999426719)       ( 0.999426719)

 Bond angles

  1- 3- 9  109.54509198   2- 4-10  109.54509198   3- 1- 5  126.21591619   3- 1- 7  111.76566499

  4-2-6  126.21591619   4-2-8  111.76566499   5-1-7  122.01841882   6-2-8  122.01841882

 NUCLEAR CHARGE:                   48
 NUMBER OF PRIMITIVE AOS:         350
 NUMBER OF SYMMETRY AOS:          316
 NUMBER OF CONTRACTIONS:          236   (  80Ag  +  38Au  +  80Bu  +  38Bg  )
 NUMBER OF CORE ORBITALS:           6   (   3Ag  +   0Au  +   3Bu  +   0Bg  )
 NUMBER OF VALENCE ORBITALS:       28   (  11Ag  +   3Au  +  11Bu  +   3Bg  )


 NUCLEAR REPULSION ENERGY  235.18625619


 Eigenvalues of metric

         1 0.142E-02 0.160E-02 0.226E-02 0.355E-02 0.403E-02 0.542E-02 0.575E-02 0.904E-02
         2 0.291E-01 0.394E-01 0.440E-01 0.719E-01 0.851E-01 0.934E-01 0.135E+00 0.188E+00
         3 0.133E-02 0.160E-02 0.271E-02 0.362E-02 0.394E-02 0.555E-02 0.645E-02 0.768E-02
         4 0.291E-01 0.388E-01 0.432E-01 0.761E-01 0.843E-01 0.102E+00 0.126E+00 0.174E+00


 Contracted 2-electron integrals neglected if value below      1.0D-16
 AO integral compression algorithm  1   Integral accuracy      1.0D-16

     940.048 MB (compressed) written to integral file ( 98.5%)

     Node minimum: 940.048 MB, node maximum: 940.048 MB


 NUMBER OF SORTED TWO-ELECTRON INTEGRALS:  100725585.     BUFFER LENGTH:  32768
 NUMBER OF SEGMENTS:   7  SEGMENT LENGTH:   15999120      RECORD LENGTH: 524288

 Memory used in sort:      16.56 MW

 SORT1 READ   119317192. AND WROTE   100723595. INTEGRALS IN    290 RECORDS. CPU TIME:     2.14 SEC, REAL TIME:     2.92 SEC
 SORT2 READ   100723595. AND WROTE   100725585. INTEGRALS IN   3586 RECORDS. CPU TIME:     0.98 SEC, REAL TIME:     1.41 SEC

 FILE SIZES:   FILE 1:   813.5 MBYTE,  FILE 4:  1216.4 MBYTE,   TOTAL:   2029.8 MBYTE

 OPERATOR DM      FOR CENTER  0  COORDINATES:    0.000000    0.000000    0.000000


 **********************************************************************************************************************************
 DATASETS  * FILE   NREC   LENGTH (MB)   RECORD NAMES
              1      19      813.64       500      610      700      900      950      970     1000      129      960     1100   
                                          VAR    BASINP    GEOM    SYMINP    ZMAT    AOBASIS   BASIS     P2S    ABASIS      S 
                                         1400     1410     1200     1210     1080     1600     1650     1300     1700   
                                           T        V       H0       H01     AOSYM     SMH    MOLCAS    ERIS     OPER   

 PROGRAMS   *        TOTAL       INT
 CPU TIMES  *        13.37     13.33
 REAL TIME  *        15.55 SEC
 DISK USED  *         2.97 GB      
 GA USED    *         0.00 MB       (max)       0.00 MB       (current)
 **********************************************************************************************************************************

1PROGRAM * RHF-SCF (CLOSED SHELL)       Authors: W. Meyer, H.-J. Werner


 NUMBER OF ELECTRONS:      24+   24-
 CONVERGENCE THRESHOLDS:    1.00E-10 (Density)    1.00E-13 (Energy)
 MAX. NUMBER OF ITERATIONS:      200
 INTERPOLATION TYPE:            DIIS
 INTERPOLATION STEPS:              2 (START)      1 (STEP)
 LEVEL SHIFTS:                  0.00 (CLOSED)  0.00 (OPEN) 



 Orbital guess generated from atomic densities. Full valence occupancy:   14   3  14   3

 Molecular orbital dump at record        2100.2

 Initial alpha occupancy:  10   2  10   2
 Initial beta  occupancy:  10   2  10   2
 Wave function symmetry:    1

 ITERATION    DDIFF          GRAD             ENERGY        2-EL.EN.            DIPOLE MOMENTS         DIIS
    1      0.000D+00      0.000D+00      -377.55999764    746.591217    0.00000    0.00000    0.00000    0
    2      0.000D+00      0.944D-02      -377.64762363    743.531644    0.00000    0.00000    0.00000    1
    3      0.152D-01      0.618D-02      -377.69788337    745.867029    0.00000    0.00000    0.00000    2
    4      0.601D-02      0.824D-03      -377.69943585    745.551445    0.00000    0.00000    0.00000    3
    5      0.113D-02      0.362D-03      -377.69971760    745.588858    0.00000    0.00000    0.00000    4
    6      0.473D-03      0.105D-03      -377.69976591    745.633972    0.00000    0.00000    0.00000    5
    7      0.181D-03      0.451D-04      -377.69977711    745.616289    0.00000    0.00000    0.00000    6
    8      0.996D-04      0.146D-04      -377.69977844    745.622114    0.00000    0.00000    0.00000    7
    9      0.381D-04      0.471D-05      -377.69977856    745.620625    0.00000    0.00000    0.00000    8
   10      0.115D-04      0.143D-05      -377.69977858    745.620823    0.00000    0.00000    0.00000    7
   11      0.390D-05      0.425D-06      -377.69977858    745.620771    0.00000    0.00000    0.00000    8
   12      0.119D-05      0.706D-07      -377.69977858    745.620773    0.00000    0.00000    0.00000    8
   13      0.185D-06      0.173D-07      -377.69977858    745.620772    0.00000    0.00000    0.00000    7
   14      0.421D-07      0.421D-08      -377.69977858    745.620773    0.00000    0.00000    0.00000    7
   15      0.105D-07      0.112D-08      -377.69977858    745.620773    0.00000    0.00000    0.00000    7
   16      0.202D-08      0.454D-09      -377.69977858    745.620773    0.00000    0.00000    0.00000    7
   17      0.799D-09      0.137D-09      -377.69977858    745.620773    0.00000    0.00000    0.00000    7
   18      0.219D-09      0.388D-10      -377.69977858    745.620773    0.00000    0.00000    0.00000    7
   19      0.697D-10      0.148D-10      -377.69977858    745.620773    0.00000    0.00000    0.00000    7
   20      0.253D-10      0.370D-11      -377.69977858    745.620773    0.00000    0.00000    0.00000    8
   21      0.719D-11      0.159D-11      -377.69977858    745.620773    0.00000    0.00000    0.00000    8
   22      0.287D-11      0.401D-12      -377.69977858    745.620773    0.00000    0.00000    0.00000    8
   23      0.851D-12      0.137D-12      -377.69977858    745.620773    0.00000    0.00000    0.00000    8
   24      0.361D-12      0.661D-13      -377.69977858    745.620773    0.00000    0.00000    0.00000    8
   25      0.259D-12      0.477D-13      -377.69977858    745.620773    0.00000    0.00000    0.00000    9
   26      0.149D-12      0.401D-13      -377.69977858    745.620773    0.00000    0.00000    0.00000    9
   27      0.757D-13      0.438D-13      -377.69977858    745.620773    0.00000    0.00000    0.00000    9
   28      0.408D-13      0.369D-13      -377.69977858    745.620773    0.00000    0.00000    0.00000    9
   29      0.565D-13      0.293D-13      -377.69977858    745.620773    0.00000    0.00000    0.00000    9
   30      0.854D-13      0.312D-13      -377.69977858    745.620773    0.00000    0.00000    0.00000    9
   31      0.635D-13      0.412D-13      -377.69977858    745.620773    0.00000    0.00000    0.00000    0

 Final occupancy:  10   2  10   2

 !RHF STATE 1.1 Energy               -377.699778576318
 Nuclear energy                       235.18625619
 One-electron energy                 -985.69642117
 Two-electron energy                  372.81038640
 Virial quotient                       -1.00179383
 !RHF STATE 1.1 Dipole moment           0.00000000     0.00000000     0.00000000
 Dipole moment /Debye                   0.00000000     0.00000000     0.00000000

 Orbital energies:

         1.1          2.1          3.1          4.1          5.1          6.1          7.1          8.1          9.1         10.1
    -20.614409   -20.573347   -11.406993    -1.481381    -1.369068    -0.916790    -0.730695    -0.692114    -0.619052    -0.495605

        11.1         12.1
      0.163665     0.234151

         1.2          2.2          3.2          4.2
     -0.642472    -0.492758     0.146030     0.399522

         1.3          2.3          3.3          4.3          5.3          6.3          7.3          8.3          9.3         10.3
    -20.614408   -20.573347   -11.406993    -1.468772    -1.382953    -0.881248    -0.765974    -0.721961    -0.578019    -0.473101

        11.3         12.3
      0.164585     0.260054

         1.4          2.4          3.4          4.4
     -0.632341    -0.504022     0.153158     0.441019


 **********************************************************************************************************************************
 DATASETS  * FILE   NREC   LENGTH (MB)   RECORD NAMES
              1      19      813.64       500      610      700      900      950      970     1000      129      960     1100   
                                          VAR    BASINP    GEOM    SYMINP    ZMAT    AOBASIS   BASIS     P2S    ABASIS      S 
                                         1400     1410     1200     1210     1080     1600     1650     1300     1700   
                                           T        V       H0       H01     AOSYM     SMH    MOLCAS    ERIS     OPER   

              2       3        0.77       700     1000     2100   
                                         GEOM     BASIS     RHF  

 PROGRAMS   *        TOTAL       RHF       INT
 CPU TIMES  *        22.83      9.46     13.33
 REAL TIME  *        27.01 SEC
 DISK USED  *         2.97 GB      
 GA USED    *         0.00 MB       (max)       0.00 MB       (current)
 **********************************************************************************************************************************


1PROGRAM * CCSD (Closed-shell coupled cluster)     Authors: C. Hampel, H.-J. Werner, 1991, M. Deegan, P.J. Knowles, 1992


 Convergence thresholds:  THRVAR = 1.00D-08  THRDEN = 1.00D-12

 CCSD(T)     terms to be evaluated (factor= 1.000)


 Number of core orbitals:           6 (   3   0   3   0 )
 Number of closed-shell orbitals:  18 (   7   2   7   2 )
 Number of external orbitals:     212 (  70  36  70  36 )

 Molecular orbitals read from record     2100.2  Type=RHF/CANONICAL (state 1.1)

 Number of N-1 electron functions:              18
 Number of N-2 electron functions:             171
 Number of singly external CSFs:              1124
 Number of doubly external CSFs:           1879940
 Total number of CSFs:                     1881065

 Length of J-op  integral file:               0.00 MB
 Length of K-op  integral file:               1.12 MB
 Length of 3-ext integral record:             0.00 MB

 Memory could be reduced to 55.25 Mwords without degradation in triples

 Integral transformation finished. Total CPU:   2.78 sec, npass=  1  Memory used:  13.09 MW

 Reference energy:                   -377.69977858

 MP2 singlet pair energy:              -0.77683723
 MP2 triplet pair energy:              -0.49272825
 MP2 correlation energy:               -1.26956548
 MP2 total energy:                   -378.96934406

 SCS-MP2 correlation energy:           -1.23879114   (PS=  1.200000  PT=  0.333333)
 SCS-MP2 total energy:               -378.93856972

 ITER.      SQ.NORM     CORR.ENERGY   TOTAL ENERGY   ENERGY CHANGE        DEN1      VAR(S)    VAR(P)  DIIS     TIME
   1      1.31016804    -1.27675891  -378.97653748    -0.00719343     0.03030484  0.10D-01  0.65D-02  1  1     6.56
   2      1.33341677    -1.27603940  -378.97581797     0.00071951    -0.02923097  0.23D-03  0.94D-03  2  2    10.58
   3      1.34473376    -1.27662897  -378.97640754    -0.00058957    -0.00518293  0.24D-03  0.47D-04  3  3    14.62
   4      1.35008103    -1.27637561  -378.97615419     0.00025335    -0.00198129  0.25D-04  0.89D-05  4  4    18.68
   5      1.35253883    -1.27632348  -378.97610206     0.00005213    -0.00055278  0.26D-05  0.86D-06  5  5    22.75
   6      1.35313649    -1.27627298  -378.97605156     0.00005050    -0.00005579  0.15D-06  0.81D-07  6  6    26.82
   7      1.35323057    -1.27626802  -378.97604659     0.00000497    -0.00000900  0.12D-07  0.12D-07  6  2    30.88
   8      1.35323267    -1.27626836  -378.97604694    -0.00000035     0.00000413  0.20D-08  0.11D-08  6  1    34.95
   9      1.35323578    -1.27626784  -378.97604641     0.00000053     0.00000080  0.21D-09  0.13D-09  6  3    39.02
  10      1.35323535    -1.27626796  -378.97604654    -0.00000013     0.00000008  0.44D-10  0.23D-10  6  5    43.10
  11      1.35323531    -1.27626802  -378.97604660    -0.00000005     0.00000018  0.80D-11  0.26D-11  6  4    47.15
  12      1.35323515    -1.27626803  -378.97604660    -0.00000001     0.00000007  0.17D-11  0.50D-12  6  6    51.21
  13      1.35323499    -1.27626805  -378.97604663    -0.00000002     0.00000004  0.44D-12  0.11D-12  6  2    55.29
  14      1.35323487    -1.27626805  -378.97604663    -0.00000001     0.00000003  0.68D-13  0.31D-13  6  1    59.37
  15      1.35323481    -1.27626806  -378.97604664    -0.00000000     0.00000001  0.95D-14  0.37D-14  6  3    63.42
  16      1.35323479    -1.27626806  -378.97604664    -0.00000000     0.00000000  0.14D-14  0.79D-15  6  4    67.48
  17      1.35323479    -1.27626806  -378.97604664    -0.00000000     0.00000000  0.23D-15  0.13D-15  6  5    71.55
  18      1.35323479    -1.27626806  -378.97604664    -0.00000000    -0.00000000  0.47D-16  0.17D-16  6  6    75.60
  19      1.35323479    -1.27626806  -378.97604664     0.00000000    -0.00000000  0.89D-17  0.42D-17  6  2    79.64
  20      1.35323479    -1.27626806  -378.97604664     0.00000000    -0.00000000  0.12D-17  0.72D-18  6  4    83.70
  21      1.35323479    -1.27626806  -378.97604664     0.00000000    -0.00000000  0.16D-18  0.76D-19  6  1    87.77
  22      1.35323479    -1.27626806  -378.97604664     0.00000000    -0.00000000  0.25D-19  0.84D-20  6  3    91.81
  23      1.35323479    -1.27626806  -378.97604664     0.00000000    -0.00000000  0.47D-20  0.20D-20  6  5    95.86
  24      1.35323479    -1.27626806  -378.97604664     0.00000000    -0.00000000  0.14D-20  0.38D-21  6  6    99.93
  25      1.35323479    -1.27626806  -378.97604664     0.00000000    -0.00000000  0.16D-21  0.59D-22  6  2   104.00

 Norm of t1 vector:      0.14535497      S-energy:    -0.00000000      T1 diagnostic:  0.01713025
                                                                       D1 diagnostic:  0.06144279

 Singles amplitudes (print threshold =  0.500E-01):

         I         SYM. A    A   T(IA)

         8         2         1      0.05405888
        17         4         1      0.05605221


 Total CPU time for triples:    147.70 sec


 RESULTS
 =======

  Reference energy                   -377.699778576319
  CCSD singlet pair energy             -0.841222672981
  CCSD triplet pair energy             -0.435045387622
  CCSD correlation energy              -1.276268060603

  Triples (T) contribution             -0.054646103227
  Total correlation energy             -1.330914163830

  CCSD total energy                  -378.976046636922
  CCSD[T] energy                     -379.034145886479
  CCSD-T energy                      -379.029309275008
 !CCSD(T) total energy               -379.030692740149

 Timing summary (sec):

 STEP                 CPU(USER)    SYS     CPU(TOT)    WALL
 Transformation          2.82      0.32      3.14      3.14
 CCSD iterations       101.18      4.62    105.80    105.89
 Triples               147.70      4.20    151.90    151.92

 Program statistics:

 Available memory in ccsd:               999998604
 Min. memory needed in ccsd:               4696764
 Max. memory used in ccsd:                 6451180
 Max. memory used in cckext:               5695119 (25 integral passes)



 **********************************************************************************************************************************
 DATASETS  * FILE   NREC   LENGTH (MB)   RECORD NAMES
              1      20     1022.38       500      610      700      900      950      970     1000      129      960     1100   
                                          VAR    BASINP    GEOM    SYMINP    ZMAT    AOBASIS   BASIS     P2S    ABASIS      S 
                                         1400     1410     1200     1210     1080     1600     1650     1300     1700     1380   
                                           T        V       H0       H01     AOSYM     SMH    MOLCAS    ERIS     OPER     JKOP   

              2       3        0.77       700     1000     2100   
                                         GEOM     BASIS     RHF  

 PROGRAMS   *        TOTAL   CCSD(T)       RHF       INT
 CPU TIMES  *       274.55    251.71      9.46     13.33
 REAL TIME  *       288.01 SEC
 DISK USED  *         2.97 GB      
 GA USED    *         0.00 MB       (max)       0.00 MB       (current)
 **********************************************************************************************************************************

        CCSD(T)         RHF-SCF 
   -379.03069274   -377.69977858
 **********************************************************************************************************************************
 Variable memory released
