
 Primary working directories    : /tmp/943420.373.gen4.q
 Secondary working directories  : /tmp/943420.373.gen4.q
 Wavefunction directory         : /home/vulcan/mel64643/wfu/
 Main file repository           : /tmp/943420.373.gen4.q/

 ARCHNAME  : Linux/x86_64
 FC        : /opt/intel/compilers_and_libraries_2016.1.150/linux/bin/intel64/ifort
 FCVERSION : 16.0.1
 BLASLIB   : -mkl
 id        : ccgc

 Nodes     nprocs
 n062         1
 ga_uses_ma=false, calling ma_init with nominal heap.
 GA-space will be limited to   8.0 MW (determined by -G option)

 Using customized tuning parameters: mindgm=10; mindgv=16; mindgc=4; mindgr=1; noblas=0; mincuda=1000; minvec=7
 default implementation of scratch files=df  

 ***,Optimization of nh3_nitrosmethane
 memory,1000,m
 gthresh,energy=1.0d-12,orbital=1.0d-10,oneint=1.0d-16,twoint=1.0d-16,optgrad=1.0d-6,compress=1.0d-13
 geomtyp=xyz
 
 bohr
 geometry = {
  N   -5.2222474295   -0.1834273330   -0.0015178311
  H   -6.3030933724    0.2313102707   -1.5313220474
  H   -3.7569842807    1.0585702087    0.0003316376
  H   -6.3047843396    0.2287498737    1.5277826500
  H   -0.9238589629   -2.3991590683    0.0001641334
  H    1.8728708234   -3.4338203270   -1.6669690698
  H    1.8929237880   -3.4348510692    1.6663464992
  C    1.1366351017   -2.4699066340    0.0044763945
  N    2.2679186896    0.0975484565   -0.0015353405
  O    0.7047384723    1.7820426307    0.0022429740
 }
 
 basis=aug-cc-pvdz, H=cc-pvdz
 {rhf;maxit,200}
 {ccsd(t);maxit,200}

 Variables initialized (661), CPU time= 0.00 sec
 Commands  initialized (458), CPU time= 0.00 sec, 486 directives.
 Default parameters read. Elapsed time= 0.04 sec

 Checking input...
 Passed
1


                                         ***  PROGRAM SYSTEM MOLPRO  ***
                         Copyright, University College Cardiff Consultants Limited, 2008

                                    Version 2010.1 linked May 16 2016 07:17:05


 **********************************************************************************************************************************
 LABEL *   Optimization of nh3_nitrosmethane                                             
 Linux-4.4.3/n062(x86_64) 64 bit mpp version                                             DATE: 26-Oct-23          TIME: 08:01:18  
 **********************************************************************************************************************************

 SHA1:             9e8077add272b0f3cad6f7df79ec5211205f459d
 **********************************************************************************************************************************

 THRESHOLDS:

 ZERO    =  1.00D-12  ONEINT  =  1.00D-16  TWOINT  =  1.00D-16  PREFAC  =  1.00D-14  LOCALI  =  1.00D-09  EORDER  =  1.00D-04
 ENERGY  =  1.00D-12  ETEST   =  0.00D+00  EDENS   =  0.00D+00  THRDEDEF=  1.00D-06  GRADIENT=  1.00D-02  STEP    =  1.00D-03
 ORBITAL =  1.00D-10  CIVEC   =  1.00D-05  COEFF   =  1.00D-04  PRINTCI =  5.00D-02  PUNCHCI =  9.90D+01  OPTGRAD =  1.00D-06
 OPTENERG=  1.00D-06  OPTSTEP =  3.00D-04  THRGRAD =  1.00D-10  COMPRESS=  1.00D-13  VARMIN  =  1.00D-07  VARMAX  =  1.00D-03
 THRDOUB =  0.00D+00  THRDIV  =  1.00D-05  THRRED  =  1.00D-07  THRPSP  =  1.00D+00  THRDC   =  1.00D-10  THRCS   =  1.00D-10
 THRNRM  =  1.00D-08  THREQ   =  0.00D+00  THRDE   =  1.00D+00  THRREF  =  1.00D-05  SPARFAC =  1.00D+00  THRDLP  =  1.00D-07
 THRDIA  =  1.00D-10  THRDLS  =  1.00D-07  THRGPS  =  0.00D+00  THRKEX  =  0.00D+00  THRDIS  =  2.00D-01  THRVAR  =  1.00D-10
 THRLOC  =  1.00D-06  THRGAP  =  1.00D-06  THRLOCT = -1.00D+00  THRGAPT = -1.00D+00  THRORB  =  1.00D-06  THRMLTP =  0.00D+00
 THRCPQCI=  1.00D-10  KEXTA   =  0.00D+00  THRCOARS=  0.00D+00  SYMTOL  =  1.00D-06  GRADTOL =  1.00D-06  THROVL  =  1.00D-08
 THRORTH =  1.00D-08  GRID    =  1.00D-06  GRIDMAX =  1.00D-03  DTMAX   =  0.00D+00

 SETTING GEOMTYP        =    XYZ
 ZUNIT=BOHR
 

 Variable memory set to 1000000000 words,  buffer space   230000 words

 SETTING BASIS          =    AUG-CC-PVDZ,H=CC-PVDZ


 Recomputing integrals since basis changed


 Using spherical harmonics

 Library entry N      S aug-cc-pVDZ          selected for orbital group  1
 Library entry N      P aug-cc-pVDZ          selected for orbital group  1
 Library entry N      D aug-cc-pVDZ          selected for orbital group  1
 Library entry H      S cc-pVDZ              selected for orbital group  2
 Library entry H      P cc-pVDZ              selected for orbital group  2
 Library entry C      S aug-cc-pVDZ          selected for orbital group  3
 Library entry C      P aug-cc-pVDZ          selected for orbital group  3
 Library entry C      D aug-cc-pVDZ          selected for orbital group  3
 Library entry O      S aug-cc-pVDZ          selected for orbital group  5
 Library entry O      P aug-cc-pVDZ          selected for orbital group  5
 Library entry O      D aug-cc-pVDZ          selected for orbital group  5

1PROGRAM * SEWARD (Integral evaluation for generally contracted gaussian basis sets)     Author: Roland Lindh, 1990

 Geometry written to block  1 of record 700


 Point group  C1  



 ATOMIC COORDINATES

 NR  ATOM    CHARGE       X              Y              Z

   1  N       7.00   -5.222247430   -0.183427333   -0.001517831
   2  H       1.00   -6.303093372    0.231310271   -1.531322047
   3  H       1.00   -3.756984281    1.058570209    0.000331638
   4  H       1.00   -6.304784340    0.228749874    1.527782650
   5  H       1.00   -0.923858963   -2.399159068    0.000164133
   6  H       1.00    1.872870823   -3.433820327   -1.666969070
   7  H       1.00    1.892923788   -3.434851069    1.666346499
   8  C       6.00    1.136635102   -2.469906634    0.004476394
   9  N       7.00    2.267918690    0.097548457   -0.001535341
  10  O       8.00    0.704738472    1.782042631    0.002242974

 Bond lengths in Bohr (Angstrom)

 1-2  1.918472354  1-3  1.920822066  1-4  1.918472354  5-8  2.061712784  6-8  2.065164058
     ( 1.015211846)     ( 1.016455260)     ( 1.015211846)     ( 1.091011417)     ( 1.092837752)

  7- 8  2.065164058   8- 9  2.805648649   9-10  2.298057286
       ( 1.092837752)       ( 1.484685321)       ( 1.216079541)

 Bond angles

  2-1-3  106.90324332   2-1-4  105.74163658   3-1-4  106.90324332   5-8-6  111.75356308

  5-8-7  112.56384403   5-8-9  111.81259323   6-8-7  107.61715628   6-8-9  106.35819341

  7- 8- 9  106.35819140   8- 9-10  113.35946296

 NUCLEAR CHARGE:                   34
 NUMBER OF PRIMITIVE AOS:         190
 NUMBER OF SYMMETRY AOS:          182
 NUMBER OF CONTRACTIONS:          122   ( 122A   )
 NUMBER OF CORE ORBITALS:           4   (   4A   )
 NUMBER OF VALENCE ORBITALS:       22   (  22A   )


 NUCLEAR REPULSION ENERGY  117.38454215


 Eigenvalues of metric

         1 0.465E-03 0.142E-02 0.195E-02 0.432E-02 0.526E-02 0.749E-02 0.800E-02 0.856E-02


 Contracted 2-electron integrals neglected if value below      1.0D-16
 AO integral compression algorithm  1   Integral accuracy      1.0D-16

     235.143 MB (compressed) written to integral file ( 87.5%)

     Node minimum: 235.143 MB, node maximum: 235.143 MB


 NUMBER OF SORTED TWO-ELECTRON INTEGRALS:   28151256.     BUFFER LENGTH:  32768
 NUMBER OF SEGMENTS:   2  SEGMENT LENGTH:   15997996      RECORD LENGTH: 524288

 Memory used in sort:      16.56 MW

 SORT1 READ    33603370. AND WROTE    27849255. INTEGRALS IN     81 RECORDS. CPU TIME:     0.33 SEC, REAL TIME:     0.49 SEC
 SORT2 READ    27849255. AND WROTE    28151256. INTEGRALS IN    897 RECORDS. CPU TIME:     0.28 SEC, REAL TIME:     0.39 SEC

 FILE SIZES:   FILE 1:   202.3 MBYTE,  FILE 4:   339.8 MBYTE,   TOTAL:    542.1 MBYTE

 OPERATOR DM      FOR CENTER  0  COORDINATES:    0.000000    0.000000    0.000000


 **********************************************************************************************************************************
 DATASETS  * FILE   NREC   LENGTH (MB)   RECORD NAMES
              1      19      202.49       500      610      700      900      950      970     1000      129      960     1100   
                                          VAR    BASINP    GEOM    SYMINP    ZMAT    AOBASIS   BASIS     P2S    ABASIS      S 
                                         1400     1410     1200     1210     1080     1600     1650     1300     1700   
                                           T        V       H0       H01     AOSYM     SMH    MOLCAS    ERIS     OPER   

 PROGRAMS   *        TOTAL       INT
 CPU TIMES  *         2.15      2.11
 REAL TIME  *         2.72 SEC
 DISK USED  *       778.01 MB      
 GA USED    *         0.00 MB       (max)       0.00 MB       (current)
 **********************************************************************************************************************************

1PROGRAM * RHF-SCF (CLOSED SHELL)       Authors: W. Meyer, H.-J. Werner


 NUMBER OF ELECTRONS:      17+   17-    SPACE SYMMETRY=1    SPIN SYMMETRY: Singlet 
 CONVERGENCE THRESHOLDS:    1.00E-10 (Density)    1.00E-13 (Energy)
 MAX. NUMBER OF ITERATIONS:      200
 INTERPOLATION TYPE:            DIIS
 INTERPOLATION STEPS:              2 (START)      1 (STEP)
 LEVEL SHIFTS:                  0.00 (CLOSED)  0.00 (OPEN) 



 Orbital guess generated from atomic densities. Full valence occupancy:   26

 Molecular orbital dump at record        2100.2

 ITERATION    DDIFF          GRAD             ENERGY        2-EL.EN.            DIPOLE MOMENTS         DIIS
    1      0.000D+00      0.000D+00      -224.96498617    393.076108    0.06703   -0.57527   -0.00198    0
    2      0.000D+00      0.710D-02      -225.02577863    392.706649   -0.58310   -0.37523    0.00096    1
    3      0.132D-01      0.496D-02      -225.05964977    393.251491   -0.23832   -0.55471   -0.00002    2
    4      0.572D-02      0.994D-03      -225.06191816    393.086289   -0.31637   -0.45739    0.00019    3
    5      0.146D-02      0.393D-03      -225.06234237    393.098153   -0.31402   -0.48683    0.00024    4
    6      0.638D-03      0.952D-04      -225.06238467    393.125336   -0.31938   -0.48401    0.00027    5
    7      0.217D-03      0.363D-04      -225.06239072    393.109288   -0.32100   -0.48411    0.00028    6
    8      0.864D-04      0.148D-04      -225.06239172    393.115769   -0.32202   -0.48403    0.00028    7
    9      0.331D-04      0.633D-05      -225.06239193    393.114601   -0.32229   -0.48373    0.00029    8
   10      0.184D-04      0.193D-05      -225.06239196    393.114316   -0.32237   -0.48355    0.00029    8
   11      0.562D-05      0.651D-06      -225.06239196    393.114422   -0.32239   -0.48346    0.00029    8
   12      0.184D-05      0.199D-06      -225.06239196    393.114386   -0.32239   -0.48343    0.00029    8
   13      0.689D-06      0.646D-07      -225.06239196    393.114380   -0.32239   -0.48343    0.00029    8
   14      0.170D-06      0.353D-07      -225.06239196    393.114383   -0.32239   -0.48343    0.00029    9
   15      0.899D-07      0.131D-07      -225.06239196    393.114383   -0.32239   -0.48343    0.00029    8
   16      0.403D-07      0.978D-08      -225.06239196    393.114383   -0.32239   -0.48343    0.00029    8
   17      0.797D-07      0.393D-08      -225.06239196    393.114383   -0.32239   -0.48343    0.00029    8
   18      0.345D-07      0.133D-08      -225.06239196    393.114383   -0.32239   -0.48343    0.00029    9
   19      0.776D-08      0.297D-09      -225.06239196    393.114383   -0.32239   -0.48343    0.00029    9
   20      0.955D-09      0.104D-09      -225.06239196    393.114383   -0.32239   -0.48343    0.00029    9
   21      0.269D-09      0.333D-10      -225.06239196    393.114383   -0.32239   -0.48343    0.00029    9
   22      0.859D-10      0.117D-10      -225.06239196    393.114383   -0.32239   -0.48343    0.00029    9
   23      0.305D-10      0.506D-11      -225.06239196    393.114383   -0.32239   -0.48343    0.00029    9
   24      0.129D-10      0.221D-11      -225.06239196    393.114383   -0.32239   -0.48343    0.00029    8
   25      0.482D-11      0.118D-11      -225.06239196    393.114383   -0.32239   -0.48343    0.00029    8
   26      0.377D-11      0.475D-12      -225.06239196    393.114383   -0.32239   -0.48343    0.00029    9
   27      0.179D-11      0.105D-12      -225.06239196    393.114383   -0.32239   -0.48343    0.00029    9
   28      0.921D-12      0.591D-13      -225.06239196    393.114383   -0.32239   -0.48343    0.00029    0

 Final occupancy:  17

 !RHF STATE 1.1 Energy               -225.062391959190
 Nuclear energy                       117.38454215
 One-electron energy                 -539.00412547
 Two-electron energy                  196.55719136
 Virial quotient                       -1.00219713
 !RHF STATE 1.1 Dipole moment          -0.32239092    -0.48343057     0.00029123
 Dipole moment /Debye                  -0.81938231    -1.22867746     0.00074019

 Orbital energies:

         1.1          2.1          3.1          4.1          5.1          6.1          7.1          8.1          9.1         10.1
    -20.640422   -15.714784   -15.548890   -11.271282    -1.515186    -1.140048    -1.076239    -0.862465    -0.691443    -0.676066

        11.1         12.1         13.1         14.1         15.1         16.1         17.1         18.1         19.1
     -0.636293    -0.624246    -0.622862    -0.555696    -0.534546    -0.428145    -0.406257     0.077531     0.084423


 **********************************************************************************************************************************
 DATASETS  * FILE   NREC   LENGTH (MB)   RECORD NAMES
              1      19      202.49       500      610      700      900      950      970     1000      129      960     1100   
                                          VAR    BASINP    GEOM    SYMINP    ZMAT    AOBASIS   BASIS     P2S    ABASIS      S 
                                         1400     1410     1200     1210     1080     1600     1650     1300     1700   
                                           T        V       H0       H01     AOSYM     SMH    MOLCAS    ERIS     OPER   

              2       3        0.72       700     1000     2100   
                                         GEOM     BASIS     RHF  

 PROGRAMS   *        TOTAL       RHF       INT
 CPU TIMES  *         8.58      6.43      2.11
 REAL TIME  *         9.84 SEC
 DISK USED  *       778.01 MB      
 GA USED    *         0.00 MB       (max)       0.00 MB       (current)
 **********************************************************************************************************************************


1PROGRAM * CCSD (Closed-shell coupled cluster)     Authors: C. Hampel, H.-J. Werner, 1991, M. Deegan, P.J. Knowles, 1992


 Convergence thresholds:  THRVAR = 1.00D-08  THRDEN = 1.00D-12

 CCSD(T)     terms to be evaluated (factor= 1.000)


 Number of core orbitals:           4 (   4 )
 Number of closed-shell orbitals:  13 (  13 )
 Number of external orbitals:     105 ( 105 )

 Molecular orbitals read from record     2100.2  Type=RHF/CANONICAL (state 1.1)

 Number of N-1 electron functions:              13
 Number of N-2 electron functions:              91
 Number of singly external CSFs:              1365
 Number of doubly external CSFs:            932295
 Total number of CSFs:                      933661

 Length of J-op  integral file:               0.00 MB
 Length of K-op  integral file:               1.06 MB
 Length of 3-ext integral record:             0.00 MB

 Memory could be reduced to 20.68 Mwords without degradation in triples

 Integral transformation finished. Total CPU:   1.27 sec, npass=  1  Memory used:  15.40 MW

 Reference energy:                   -225.06239196

 MP2 singlet pair energy:              -0.44860063
 MP2 triplet pair energy:              -0.26463566
 MP2 correlation energy:               -0.71323629
 MP2 total energy:                   -225.77562825

 SCS-MP2 correlation energy:           -0.70298295   (PS=  1.200000  PT=  0.333333)
 SCS-MP2 total energy:               -225.76537490

 ITER.      SQ.NORM     CORR.ENERGY   TOTAL ENERGY   ENERGY CHANGE        DEN1      VAR(S)    VAR(P)  DIIS     TIME
   1      1.24159962    -0.74722439  -225.80961635    -0.03398810    -0.01022319  0.52D-02  0.49D-02  1  1     3.89
   2      1.26337989    -0.75031230  -225.81270426    -0.00308792    -0.02110905  0.17D-03  0.87D-03  2  2     6.57
   3      1.27338483    -0.75101728  -225.81340924    -0.00070497    -0.00461175  0.12D-03  0.62D-04  3  3     9.23
   4      1.27753907    -0.75098271  -225.81337467     0.00003457    -0.00137321  0.11D-04  0.11D-04  4  4    11.90
   5      1.27919206    -0.75100071  -225.81339267    -0.00001801    -0.00036056  0.19D-05  0.17D-05  5  5    14.58
   6      1.27965178    -0.75096989  -225.81336185     0.00003082    -0.00005484  0.15D-06  0.33D-06  6  6    17.27
   7      1.27975225    -0.75096709  -225.81335905     0.00000280    -0.00000375  0.33D-07  0.87D-07  6  2    19.94
   8      1.27977594    -0.75096784  -225.81335980    -0.00000075    -0.00000032  0.43D-08  0.20D-07  6  1    22.63
   9      1.27977620    -0.75096723  -225.81335919     0.00000061     0.00000435  0.26D-08  0.32D-08  6  4    25.30
  10      1.27977852    -0.75096802  -225.81335998    -0.00000079    -0.00000121  0.52D-09  0.44D-09  6  3    27.98
  11      1.27977644    -0.75096823  -225.81336019    -0.00000021     0.00000043  0.17D-09  0.78D-10  6  5    30.66
  12      1.27977493    -0.75096830  -225.81336026    -0.00000007     0.00000032  0.39D-10  0.17D-10  6  6    33.34
  13      1.27977332    -0.75096842  -225.81336038    -0.00000012     0.00000040  0.56D-11  0.40D-11  6  1    36.01
  14      1.27977263    -0.75096844  -225.81336040    -0.00000001     0.00000018  0.13D-11  0.57D-12  6  2    38.67
  15      1.27977238    -0.75096844  -225.81336040    -0.00000001     0.00000005  0.26D-12  0.91D-13  6  4    41.35
  16      1.27977232    -0.75096845  -225.81336041    -0.00000000     0.00000001  0.10D-12  0.27D-13  6  3    44.03
  17      1.27977230    -0.75096845  -225.81336041     0.00000000    -0.00000000  0.44D-13  0.80D-14  6  6    46.71
  18      1.27977229    -0.75096845  -225.81336041    -0.00000000    -0.00000000  0.25D-13  0.31D-14  6  5    49.39
  19      1.27977229    -0.75096845  -225.81336041     0.00000000    -0.00000000  0.14D-13  0.17D-14  6  1    52.06
  20      1.27977229    -0.75096845  -225.81336041     0.00000000     0.00000000  0.71D-14  0.10D-14  6  2    54.72
  21      1.27977230    -0.75096845  -225.81336041     0.00000000     0.00000000  0.18D-14  0.51D-15  6  3    57.40
  22      1.27977230    -0.75096845  -225.81336041     0.00000000    -0.00000000  0.24D-15  0.12D-15  6  4    60.08
  23      1.27977230    -0.75096845  -225.81336041    -0.00000000    -0.00000000  0.40D-16  0.34D-16  6  5    62.76
  24      1.27977230    -0.75096845  -225.81336041    -0.00000000    -0.00000000  0.95D-17  0.81D-17  6  1    65.43
  25      1.27977230    -0.75096845  -225.81336041     0.00000000    -0.00000000  0.92D-18  0.11D-17  6  6    68.10

 Norm of t1 vector:      0.11114911      S-energy:     0.00000000      T1 diagnostic:  0.01541361
                                                                       D1 diagnostic:  0.04945950

 Doubles amplitudes (print threshold =  0.500E-01):

         I         J         SYM. A    SYM. B    A         B      T(IJ, AB)

        11        11         1         1         2         2     -0.05764653


 Total CPU time for triples:     39.02 sec


 RESULTS
 =======

  Reference energy                   -225.062391959191
  CCSD singlet pair energy             -0.516900317789
  CCSD triplet pair energy             -0.234068129784
  CCSD correlation energy              -0.750968447569

  Triples (T) contribution             -0.026300872318
  Total correlation energy             -0.777269319887

  CCSD total energy                  -225.813360406759
  CCSD[T] energy                     -225.841269369927
  CCSD-T energy                      -225.839169377919
 !CCSD(T) total energy               -225.839661279078

 Timing summary (sec):

 STEP                 CPU(USER)    SYS     CPU(TOT)    WALL
 Transformation          1.31      0.13      1.44      1.44
 CCSD iterations        66.80      1.81     68.61     68.69
 Triples                39.02      0.73     39.75     39.76

 Program statistics:

 Available memory in ccsd:               999999224
 Min. memory needed in ccsd:               2510565
 Max. memory used in ccsd:                 3320127
 Max. memory used in cckext:               2903072 (25 integral passes)



 **********************************************************************************************************************************
 DATASETS  * FILE   NREC   LENGTH (MB)   RECORD NAMES
              1      20      279.88       500      610      700      900      950      970     1000      129      960     1100   
                                          VAR    BASINP    GEOM    SYMINP    ZMAT    AOBASIS   BASIS     P2S    ABASIS      S 
                                         1400     1410     1200     1210     1080     1600     1650     1300     1700     1380   
                                           T        V       H0       H01     AOSYM     SMH    MOLCAS    ERIS     OPER     JKOP   

              2       3        0.72       700     1000     2100   
                                         GEOM     BASIS     RHF  

 PROGRAMS   *        TOTAL   CCSD(T)       RHF       INT
 CPU TIMES  *       115.73    107.15      6.43      2.11
 REAL TIME  *       119.77 SEC
 DISK USED  *       778.01 MB      
 GA USED    *         0.00 MB       (max)       0.00 MB       (current)
 **********************************************************************************************************************************

        CCSD(T)         RHF-SCF 
   -225.83966128   -225.06239196
 **********************************************************************************************************************************
 Variable memory released
