
    -----------------------------------------------------------------------
          Psi4: An Open-Source Ab Initio Electronic Structure Package
                               Psi4 1.4a2.dev629 

                         Git: Rev {master} 2938fc2 dirty


    D. G. A. Smith, L. A. Burns, A. C. Simmonett, R. M. Parrish,
    M. C. Schieber, R. Galvelis, P. Kraus, H. Kruse, R. Di Remigio,
    A. Alenaizan, A. M. James, S. Lehtola, J. P. Misiewicz, M. Scheurer,
    R. A. Shaw, J. B. Schriber, Y. Xie, Z. L. Glick, D. A. Sirianni,
    J. S. O'Brien, J. M. Waldrop, A. Kumar, E. G. Hohenstein,
    B. P. Pritchard, B. R. Brooks, H. F. Schaefer III, A. Yu. Sokolov,
    K. Patkowski, A. E. DePrince III, U. Bozkaya, R. A. King,
    F. A. Evangelista, J. M. Turney, T. D. Crawford, C. D. Sherrill,
    J. Chem. Phys. 152(18) 184108 (2020). https://doi.org/10.1063/5.0006002

                            Additional Code Authors
    E. T. Seidl, C. L. Janssen, E. F. Valeev, M. L. Leininger,
    J. F. Gonthier, R. M. Richard, H. R. McAlexander, M. Saitow, X. Wang,
    P. Verma, and M. H. Lechner

             Previous Authors, Complete List of Code Contributors,
                       and Citations for Specific Modules
    https://github.com/psi4/psi4/blob/master/codemeta.json
    https://github.com/psi4/psi4/graphs/contributors
    http://psicode.org/psi4manual/master/introduction.html#citing-psifour

    -----------------------------------------------------------------------


    Psi4 started on: Sunday, 31 October 2021 05:12PM

    Process ID: 132713
    Host:       n070
    PSIDATADIR: /opt/psi/4/master/share/psi4
    Memory:     500.0 MiB
    Threads:    1
    
  ==> Input File <==

--------------------------------------------------------------------------
import os
memory 14 GB 
 
molecule {
 C   -2.7527673712   -0.0768255757    0.0014528703
 C    0.0748330918    0.1897552053   -0.0017230312
 O    1.2470535952    2.1456666642    0.0006237773
 O    1.2237207452   -2.0973244288    0.0004774718
 H   -3.6136161382    1.7855152911   -0.0004183772
 H   -3.3457807680   -1.1380162474   -1.6639309469
 H   -3.3459013965   -1.1382267171    1.6635684379
 H    3.0129375018   -1.7303940515   -0.0000510621
units bohr
}

basis {

assign 6-31g_2dfp_

[ 6-31g_2dfp_ ]

spherical

!----------------------------------------------------------------------
! Basis Set Exchange
! Version v0.8.13
! https://www.basissetexchange.org
!----------------------------------------------------------------------
!   Basis set: 6-31G(2df,p)
! Description: 6-31G(2df,p)
!        Role: orbital
!     Version: 0  (Data from the original Basis Set Exchange)
!----------------------------------------------------------------------


****
H     0
S    3   1.00
     18.7311370              0.03349460
      2.8253937              0.23472695
      0.6401217              0.81375733
S    1   1.00
      0.1612778              1.00000000
P    1   1.00
      1.5000000              1.0000000
P    1   1.00
      0.3750000              1.0000000
****
B     0
S    6   1.00
   2068.8823000              0.0018663
    310.6495700              0.0142515
     70.6830330              0.0695516
     19.8610800              0.2325729
      6.2993048              0.4670787
      2.1270270              0.3634314
SP   3   1.00
      4.7279710             -0.1303938              0.0745976
      1.1903377             -0.1307889              0.3078467
      0.3594117              1.1309444              0.7434568
SP   1   1.00
      0.1267512              1.0000000              1.0000000
D    1   1.00
      0.8020000              1.0000000
D    1   1.00
      0.2005000              1.0000000
F    1   1.00
      0.5000000              1.0000000
****
C     0
S    6   1.00
   3047.5249000              0.0018347
    457.3695100              0.0140373
    103.9486900              0.0688426
     29.2101550              0.2321844
      9.2866630              0.4679413
      3.1639270              0.3623120
SP   3   1.00
      7.8682724             -0.1193324              0.0689991
      1.8812885             -0.1608542              0.3164240
      0.5442493              1.1434564              0.7443083
SP   1   1.00
      0.1687144              1.0000000              1.0000000
D    1   1.00
      1.2520000              1.0000000
D    1   1.00
      0.3130000              1.0000000
F    1   1.00
      0.8000000              1.0000000
****
N     0
S    6   1.00
   4173.5110000              0.0018348
    627.4579000              0.0139950
    142.9021000              0.0685870
     40.2343300              0.2322410
     12.8202100              0.4690700
      4.3904370              0.3604550
SP   3   1.00
     11.6263580             -0.1149610              0.0675800
      2.7162800             -0.1691180              0.3239070
      0.7722180              1.1458520              0.7408950
SP   1   1.00
      0.2120313              1.0000000              1.0000000
D    1   1.00
      1.8260000              1.0000000
D    1   1.00
      0.4565000              1.0000000
F    1   1.00
      1.0000000              1.0000000
****
O     0
S    6   1.00
   5484.6717000              0.0018311
    825.2349500              0.0139501
    188.0469600              0.0684451
     52.9645000              0.2327143
     16.8975700              0.4701930
      5.7996353              0.3585209
SP   3   1.00
     15.5396160             -0.1107775              0.0708743
      3.5999336             -0.1480263              0.3397528
      1.0137618              1.1307670              0.7271586
SP   1   1.00
      0.2700058              1.0000000              1.0000000
D    1   1.00
      2.5840000              1.0000000
D    1   1.00
      0.6460000              1.0000000
F    1   1.00
      1.4000000              1.0000000
****
F     0
S    6   1.00
   7001.7130900              0.0018196169
   1051.3660900              0.0139160796
    239.2856900              0.0684053245
     67.3974453              0.233185760
     21.5199573              0.471267439
      7.40310130             0.356618546
SP   3   1.00
     20.8479528             -0.108506975            0.0716287243
      4.80830834            -0.146451658            0.3459121030
      1.34406986             1.128688580            0.7224699570
SP   1   1.00
      0.358151393            1.0000000              1.0000000
D    1   1.00
      3.5000000              1.0000000
D    1   1.00
      0.8750000              1.0000000
F    1   1.00
      1.8500000              1.0000000
****
Al     0
S    6   1.00
  13983.1000000              0.00194267
   2098.7500000              0.0148599
    477.7050000              0.0728494
    134.3600000              0.2468300
     42.8709000              0.4872580
     14.5189000              0.3234960
SP   6   1.00
    239.6680000             -0.00292619             0.00460285
     57.4419000             -0.0374080              0.0331990
     18.2859000             -0.1144870              0.1362820
      6.5991400              0.1156350              0.3304760
      2.4904900              0.6125950              0.4491460
      0.9445400              0.3937990              0.2657040
SP   3   1.00
      1.2779000             -0.2276060             -0.0175130
      0.3975900              0.00144583             0.2445330
      0.1600950              1.0927900              0.8049340
SP   1   1.00
      0.0556577              1.0000000              1.0000000
D    1   1.00
      0.6500000              1.0000000
D    1   1.00
      0.1625000              1.0000000
F    1   1.00
      0.2500000              1.0000000
****
Si     0
S    6   1.00
  16115.9000000              0.00195948
   2425.5800000              0.01492880
    553.8670000              0.07284780
    156.3400000              0.24613000
     50.0683000              0.48591400
     17.0178000              0.32500200
SP   6   1.00
    292.7180000             -0.00278094             0.00443826
     69.8731000             -0.03571460             0.03266790
     22.3363000             -0.11498500             0.13472100
      8.1503900              0.09356340             0.32867800
      3.1345800              0.60301700             0.44964000
      1.2254300              0.41895900             0.26137200
SP   3   1.00
      1.7273800             -0.24463000            -0.01779510
      0.5729220              0.00431572             0.25353900
      0.2221920              1.09818000             0.80066900
SP   1   1.00
      0.0778369              1.00000000             1.00000000
D    1   1.00
      0.9000000              1.0000000
D    1   1.00
      0.2250000              1.0000000
F    1   1.00
      0.3200000              1.0000000
****
P     0
S    6   1.00
  19413.3000000              0.0018516
   2909.4200000              0.0142062
    661.3640000              0.0699995
    185.7590000              0.2400790
     59.1943000              0.4847620
     20.0310000              0.3352000
SP   6   1.00
    339.4780000             -0.00278217             0.00456462
     81.0101000             -0.0360499              0.03369360
     25.8780000             -0.1166310              0.13975500
      9.4522100              0.0968328              0.33936200
      3.6656600              0.6144180              0.45092100
      1.4674600              0.4037980              0.23858600
SP   3   1.00
      2.1562300             -0.2529230             -0.01776530
      0.7489970              0.0328517              0.27405800
      0.2831450              1.0812500              0.78542100
SP   1   1.00
      0.0998317              1.0000000              1.00000000
D    1   1.00
      1.1000000              1.0000000
D    1   1.00
      0.2750000              1.0000000
F    1   1.00
      0.4500000              1.0000000
****
S     0
S    6   1.00
  21917.1000000              0.0018690
   3301.4900000              0.0142300
    754.1460000              0.0696960
    212.7110000              0.2384870
     67.9896000              0.4833070
     23.0515000              0.3380740
SP   6   1.00
    423.7350000             -0.0023767              0.0040610
    100.7100000             -0.0316930              0.0306810
     32.1599000             -0.1133170              0.1304520
     11.8079000              0.0560900              0.3272050
      4.6311000              0.5922550              0.4528510
      1.8702500              0.4550060              0.2560420
SP   3   1.00
      2.6158400             -0.2503740             -0.0145110
      0.9221670              0.0669570              0.3102630
      0.3412870              1.0545100              0.7544830
SP   1   1.00
      0.1171670              1.0000000              1.0000000
D    1   1.00
      1.3000000              1.0000000
D    1   1.00
      0.3250000              1.0000000
F    1   1.00
      0.5500000              1.0000000
****
Cl     0
S    6   1.00
  25180.1000000              0.0018330
   3780.3500000              0.0140340
    860.4740000              0.0690970
    242.1450000              0.2374520
     77.3349000              0.4830340
     26.2470000              0.3398560
SP   6   1.00
    491.7650000             -0.0022974              0.0039894
    116.9840000             -0.0307140              0.0303180
     37.4153000             -0.1125280              0.1298800
     13.7834000              0.0450160              0.3279510
      5.4521500              0.5893530              0.4535270
      2.2258800              0.4652060              0.2521540
SP   3   1.00
      3.1864900             -0.2518300             -0.0142990
      1.1442700              0.0615890              0.3235720
      0.4203770              1.0601800              0.7435070
SP   1   1.00
      0.1426570              1.0000000              1.0000000
D    1   1.00
      1.5000000              1.0000000
D    1   1.00
      0.3750000              1.0000000
F    1   1.00
      0.7000000              1.0000000
****
}


set {
reference rhf                          
freeze_core true
e_convergence 10                       
d_convergence 10                      
dft_spherical_points 1202
dft_radial_points 99
}

e = energy('b3lyp')

print_out('Grab this energy {0}'.format(e))
--------------------------------------------------------------------------

  Memory set to  13.039 GiB by Python driver.

Scratch directory: /tmp/

*** tstart() called on n070
*** at Sun Oct 31 17:12:52 2021

   => Loading Basis Set <=

    Name: ANONYMOUSF1B1B5A1
    Role: ORBITAL
    Keyword: BASIS
    atoms 1-2 entry C          line    48 inputblock 6-31g_2dfp_ 
    atoms 3-4 entry O          line    90 inputblock 6-31g_2dfp_ 
    atoms 5-8 entry H          line    15 inputblock 6-31g_2dfp_ 


         ---------------------------------------------------------
                                   SCF
               by Justin Turney, Rob Parrish, Andy Simmonett
                          and Daniel G. A. Smith
                              RKS Reference
                        1 Threads,  13351 MiB Core
         ---------------------------------------------------------

  ==> Geometry <==

    Molecular point group: c1
    Full point group: C1

    Geometry (in Bohr), charge = 0, multiplicity = 1:

       Center              X                  Y                   Z               Mass       
    ------------   -----------------  -----------------  -----------------  -----------------
         C           -2.753353656518    -0.074990945259     0.001227383103    12.000000000000
         C            0.074246806482     0.191589835741    -0.001948518397    12.000000000000
         O            1.246467309882     2.147501294641     0.000398290103    15.994914619570
         O            1.223134459882    -2.095489798359     0.000251984603    15.994914619570
         H           -3.614202423518     1.787349921541    -0.000643864397     1.007825032230
         H           -3.346367053318    -1.136181616959    -1.664156434097     1.007825032230
         H           -3.346487681818    -1.136392086659     1.663342950703     1.007825032230
         H            3.012351216482    -1.728559421059    -0.000276549297     1.007825032230

  Running in c1 symmetry.

  Rotational constants: A =      0.37881  B =      0.31637  C =      0.17808 [cm^-1]
  Rotational constants: A =  11356.56729  B =   9484.44838  C =   5338.81838 [MHz]
  Nuclear repulsion =  121.208732538765346

  Charge       = 0
  Multiplicity = 1
  Electrons    = 32
  Nalpha       = 16
  Nbeta        = 16

  ==> Algorithm <==

  SCF Algorithm Type is DF.
  DIIS enabled.
  MOM disabled.
  Fractional occupation disabled.
  Guess Type is SAD.
  Energy threshold   = 1.00e-10
  Density threshold  = 1.00e-10
  Integral threshold = 0.00e+00

  ==> Primary Basis <==

  Basis Set: ANONYMOUSF1B1B5A1
    Blend: 6-31G_2DFP_
    Number of shells: 48
    Number of basis function: 136
    Number of Cartesian functions: 156
    Spherical Harmonics?: true
    Max angular momentum: 3

  ==> DFT Potential <==

   => Composite Functional: B3LYP <= 

    B3LYP Hyb-GGA Exchange-Correlation Functional

    P. J. Stephens, F. J. Devlin, C. F. Chabalowski, and M. J. Frisch, J. Phys. Chem. 98, 11623 (1994)

    Deriv               =              1
    GGA                 =           TRUE
    Meta                =          FALSE

    Exchange Hybrid     =           TRUE
    MP2 Hybrid          =          FALSE

   => Exchange Functionals <=

    0.0800   Slater exchange
    0.7200         Becke 88

   => Exact (HF) Exchange <=

    0.2000               HF 

   => Correlation Functionals <=

    0.1900   Vosko, Wilk & Nusair (VWN5_RPA)
    0.8100   Lee, Yang & Parr

   => Molecular Quadrature <=

    Radial Scheme          =       TREUTLER
    Pruning Scheme         =           NONE
    Nuclear Scheme         =       TREUTLER

    BS radius alpha        =              1
    Pruning alpha          =              1
    Radial Points          =             99
    Spherical Points       =           1202
    Total Points           =         894436
    Total Blocks           =           6050
    Max Points             =            256
    Max Functions          =            135
    Weights Tolerance      =       1.00E-15

   => Loading Basis Set <=

    Name: (ANONYMOUSF1B1B5A1 AUX)
    Role: JKFIT
    Keyword: DF_BASIS_SCF
    atoms 1-2 entry C          line   198 file /opt/psi/4/master/share/psi4/basis/def2-universal-jkfit.gbs 
    atoms 3-4 entry O          line   318 file /opt/psi/4/master/share/psi4/basis/def2-universal-jkfit.gbs 
    atoms 5-8 entry H          line    18 file /opt/psi/4/master/share/psi4/basis/def2-universal-jkfit.gbs 

  ==> Integral Setup <==

  DFHelper Memory: AOs need 0.056 GiB; user supplied 6.968 GiB. Using in-core AOs.

  ==> MemDFJK: Density-Fitted J/K Matrices <==

    J tasked:                   Yes
    K tasked:                   Yes
    wK tasked:                   No
    OpenMP threads:               1
    Memory [MiB]:              7135
    Algorithm:                 Core
    Schwarz Cutoff:           1E-12
    Mask sparsity (%):       1.0381
    Fitting Condition:        1E-10

   => Auxiliary Basis Set <=

  Basis Set: (ANONYMOUSF1B1B5A1 AUX)
    Blend: DEF2-UNIVERSAL-JKFIT
    Number of shells: 124
    Number of basis function: 376
    Number of Cartesian functions: 444
    Spherical Harmonics?: true
    Max angular momentum: 4

  Cached 100.0% of DFT collocation blocks in 2.810 [GiB].

  Minimum eigenvalue in the overlap matrix is 1.4033014214E-03.
  Reciprocal condition number of the overlap matrix is 2.6060484361E-04.
    Using symmetric orthogonalization.

  ==> Pre-Iterations <==

  SCF Guess: Superposition of Atomic Densities via on-the-fly atomic UHF (no occupation information).

   -------------------------
    Irrep   Nso     Nmo    
   -------------------------
     A        136     136 
   -------------------------
    Total     136     136
   -------------------------

  ==> Iterations <==

                           Total Energy        Delta E     RMS |[F,P]|

   @DF-RKS iter SAD:  -228.57013042586931   -2.28570e+02   0.00000e+00 
   @DF-RKS iter   1:  -228.83214672527404   -2.62016e-01   5.87750e-03 DIIS
   @DF-RKS iter   2:  -228.62694075369731    2.05206e-01   7.92656e-03 DIIS
   @DF-RKS iter   3:  -229.07284270784828   -4.45902e-01   1.87374e-03 DIIS
   @DF-RKS iter   4:  -229.09867916966442   -2.58365e-02   3.36510e-04 DIIS
   @DF-RKS iter   5:  -229.09919528847334   -5.16119e-04   1.82221e-04 DIIS
   @DF-RKS iter   6:  -229.09944339343195   -2.48105e-04   2.40849e-05 DIIS
   @DF-RKS iter   7:  -229.09944775112595   -4.35769e-06   5.73703e-06 DIIS
   @DF-RKS iter   8:  -229.09944799493707   -2.43811e-07   1.61399e-06 DIIS
   @DF-RKS iter   9:  -229.09944801669587   -2.17588e-08   2.08192e-07 DIIS
   @DF-RKS iter  10:  -229.09944801706573   -3.69852e-10   3.75553e-08 DIIS
   @DF-RKS iter  11:  -229.09944801707778   -1.20508e-11   7.70655e-09 DIIS
   @DF-RKS iter  12:  -229.09944801707832   -5.40012e-13   1.64492e-09 DIIS
   @DF-RKS iter  13:  -229.09944801707874   -4.26326e-13   2.34318e-10 DIIS
   @DF-RKS iter  14:  -229.09944801707854    1.98952e-13   5.65572e-11 DIIS
  Energy and wave function converged.


  ==> Post-Iterations <==

    Orbital Energies [Eh]
    ---------------------

    Doubly Occupied:                                                      

       1A    -19.190391     2A    -19.134511     3A    -10.315624  
       4A    -10.193826     5A     -1.104993     6A     -1.013064  
       7A     -0.759764     8A     -0.608125     9A     -0.488395  
      10A     -0.476529    11A     -0.469094    12A     -0.412445  
      13A     -0.393766    14A     -0.392758    15A     -0.319813  
      16A     -0.275254  

    Virtual:                                                              

      17A      0.010324    18A      0.074310    19A      0.104201  
      20A      0.148422    21A      0.159085    22A      0.208175  
      23A      0.274932    24A      0.311338    25A      0.434571  
      26A      0.439712    27A      0.456263    28A      0.489380  
      29A      0.499935    30A      0.529427    31A      0.545248  
      32A      0.564128    33A      0.595352    34A      0.605853  
      35A      0.633356    36A      0.668816    37A      0.720349  
      38A      0.752310    39A      0.785789    40A      0.802334  
      41A      0.837768    42A      0.838359    43A      0.923475  
      44A      0.937908    45A      0.947042    46A      0.952809  
      47A      1.020904    48A      1.078264    49A      1.096166  
      50A      1.171429    51A      1.213717    52A      1.285466  
      53A      1.305028    54A      1.331215    55A      1.333938  
      56A      1.406055    57A      1.418086    58A      1.441721  
      59A      1.464187    60A      1.567068    61A      1.597811  
      62A      1.628854    63A      1.653587    64A      1.728113  
      65A      1.741292    66A      1.818157    67A      1.820170  
      68A      1.847489    69A      1.973193    70A      2.031260  
      71A      2.108925    72A      2.230076    73A      2.301372  
      74A      2.447449    75A      2.617647    76A      2.707131  
      77A      2.715212    78A      2.855735    79A      2.901537  
      80A      2.965658    81A      2.975047    82A      3.087819  
      83A      3.127891    84A      3.156469    85A      3.196694  
      86A      3.248180    87A      3.328734    88A      3.335546  
      89A      3.391181    90A      3.431489    91A      3.470416  
      92A      3.474617    93A      3.594397    94A      3.634347  
      95A      3.663052    96A      3.710435    97A      3.792066  
      98A      3.912790    99A      3.989682   100A      3.992148  
     101A      4.098756   102A      4.139321   103A      4.167086  
     104A      4.223822   105A      4.273712   106A      4.405379  
     107A      4.448972   108A      4.498978   109A      4.540633  
     110A      4.941093   111A      5.052567   112A      5.084168  
     113A      5.127541   114A      5.195967   115A      5.221576  
     116A      5.358526   117A      5.393572   118A      5.488017  
     119A      5.496431   120A      5.608296   121A      5.772647  
     122A      5.806733   123A      5.998462   124A      6.000851  
     125A      6.260154   126A      6.664689   127A      6.796613  
     128A      6.866377   129A      6.899457   130A      7.025593  
     131A      7.075149   132A      7.189386   133A      7.208088  
     134A      7.445032   135A      7.538402   136A      7.640066  

    Final Occupation by Irrep:
              A 
    DOCC [    16 ]

  @DF-RKS Final Energy:  -229.09944801707854

   => Energetics <=

    Nuclear Repulsion Energy =            121.2087325387653465
    One-Electron Energy =                -552.3478218568728835
    Two-Electron Energy =                 225.9449020331562963
    DFT Exchange-Correlation Energy =     -23.9052607321272745
    Empirical Dispersion Energy =           0.0000000000000000
    VV10 Nonlocal Energy =                  0.0000000000000000
    Total Energy =                       -229.0994480170785437

Computation Completed


Properties will be evaluated at   0.000000,   0.000000,   0.000000 [a0]

Properties computed using the SCF density matrix

  Nuclear Dipole Moment: [e a0]
     X:    -3.6125      Y:    -1.0981      Z:    -0.0009

  Electronic Dipole Moment: [e a0]
     X:     3.3211      Y:     0.5389      Z:     0.0001

  Dipole Moment: [e a0]
     X:    -0.2914      Y:    -0.5592      Z:    -0.0007     Total:     0.6306

  Dipole Moment: [D]
     X:    -0.7408      Y:    -1.4214      Z:    -0.0019     Total:     1.6028


*** tstop() called on n070 at Sun Oct 31 17:13:44 2021
Module time:
	user time   =      51.80 seconds =       0.86 minutes
	system time =       0.90 seconds =       0.01 minutes
	total time  =         52 seconds =       0.87 minutes
Total time:
	user time   =      51.80 seconds =       0.86 minutes
	system time =       0.90 seconds =       0.01 minutes
	total time  =         52 seconds =       0.87 minutes
Grab this energy -229.09944801707854
    Psi4 stopped on: Sunday, 31 October 2021 05:13PM
    Psi4 wall time for execution: 0:00:52.78

*** Psi4 exiting successfully. Buy a developer a beer!
