
    -----------------------------------------------------------------------
          Psi4: An Open-Source Ab Initio Electronic Structure Package
                               Psi4 1.4a2.dev629 

                         Git: Rev {master} 2938fc2 dirty


    D. G. A. Smith, L. A. Burns, A. C. Simmonett, R. M. Parrish,
    M. C. Schieber, R. Galvelis, P. Kraus, H. Kruse, R. Di Remigio,
    A. Alenaizan, A. M. James, S. Lehtola, J. P. Misiewicz, M. Scheurer,
    R. A. Shaw, J. B. Schriber, Y. Xie, Z. L. Glick, D. A. Sirianni,
    J. S. O'Brien, J. M. Waldrop, A. Kumar, E. G. Hohenstein,
    B. P. Pritchard, B. R. Brooks, H. F. Schaefer III, A. Yu. Sokolov,
    K. Patkowski, A. E. DePrince III, U. Bozkaya, R. A. King,
    F. A. Evangelista, J. M. Turney, T. D. Crawford, C. D. Sherrill,
    J. Chem. Phys. 152(18) 184108 (2020). https://doi.org/10.1063/5.0006002

                            Additional Code Authors
    E. T. Seidl, C. L. Janssen, E. F. Valeev, M. L. Leininger,
    J. F. Gonthier, R. M. Richard, H. R. McAlexander, M. Saitow, X. Wang,
    P. Verma, and M. H. Lechner

             Previous Authors, Complete List of Code Contributors,
                       and Citations for Specific Modules
    https://github.com/psi4/psi4/blob/master/codemeta.json
    https://github.com/psi4/psi4/graphs/contributors
    http://psicode.org/psi4manual/master/introduction.html#citing-psifour

    -----------------------------------------------------------------------


    Psi4 started on: Sunday, 31 October 2021 05:11PM

    Process ID: 9416
    Host:       n078
    PSIDATADIR: /opt/psi/4/master/share/psi4
    Memory:     500.0 MiB
    Threads:    1
    
  ==> Input File <==

--------------------------------------------------------------------------
import os
memory 14 GB 
 
molecule {
 C   -2.7546989339   -0.0742203500    0.0014520391
 C    0.0752061792    0.1914426805   -0.0017299250
 O    1.2405792429    2.1529459768    0.0006252150
 O    1.2290876558   -2.1000956582    0.0004713896
 H   -3.6158287267    1.7817239618   -0.0004163946
 H   -3.3477711374   -1.1351134071   -1.6682698009
 H   -3.3478907753   -1.1353227844    1.6679102204
 H    3.0217957553   -1.7412102794   -0.0000436035
units bohr
}

basis {

assign 6-31g_2dfp_

[ 6-31g_2dfp_ ]

spherical

!----------------------------------------------------------------------
! Basis Set Exchange
! Version v0.8.13
! https://www.basissetexchange.org
!----------------------------------------------------------------------
!   Basis set: 6-31G(2df,p)
! Description: 6-31G(2df,p)
!        Role: orbital
!     Version: 0  (Data from the original Basis Set Exchange)
!----------------------------------------------------------------------


****
H     0
S    3   1.00
     18.7311370              0.03349460
      2.8253937              0.23472695
      0.6401217              0.81375733
S    1   1.00
      0.1612778              1.00000000
P    1   1.00
      1.5000000              1.0000000
P    1   1.00
      0.3750000              1.0000000
****
B     0
S    6   1.00
   2068.8823000              0.0018663
    310.6495700              0.0142515
     70.6830330              0.0695516
     19.8610800              0.2325729
      6.2993048              0.4670787
      2.1270270              0.3634314
SP   3   1.00
      4.7279710             -0.1303938              0.0745976
      1.1903377             -0.1307889              0.3078467
      0.3594117              1.1309444              0.7434568
SP   1   1.00
      0.1267512              1.0000000              1.0000000
D    1   1.00
      0.8020000              1.0000000
D    1   1.00
      0.2005000              1.0000000
F    1   1.00
      0.5000000              1.0000000
****
C     0
S    6   1.00
   3047.5249000              0.0018347
    457.3695100              0.0140373
    103.9486900              0.0688426
     29.2101550              0.2321844
      9.2866630              0.4679413
      3.1639270              0.3623120
SP   3   1.00
      7.8682724             -0.1193324              0.0689991
      1.8812885             -0.1608542              0.3164240
      0.5442493              1.1434564              0.7443083
SP   1   1.00
      0.1687144              1.0000000              1.0000000
D    1   1.00
      1.2520000              1.0000000
D    1   1.00
      0.3130000              1.0000000
F    1   1.00
      0.8000000              1.0000000
****
N     0
S    6   1.00
   4173.5110000              0.0018348
    627.4579000              0.0139950
    142.9021000              0.0685870
     40.2343300              0.2322410
     12.8202100              0.4690700
      4.3904370              0.3604550
SP   3   1.00
     11.6263580             -0.1149610              0.0675800
      2.7162800             -0.1691180              0.3239070
      0.7722180              1.1458520              0.7408950
SP   1   1.00
      0.2120313              1.0000000              1.0000000
D    1   1.00
      1.8260000              1.0000000
D    1   1.00
      0.4565000              1.0000000
F    1   1.00
      1.0000000              1.0000000
****
O     0
S    6   1.00
   5484.6717000              0.0018311
    825.2349500              0.0139501
    188.0469600              0.0684451
     52.9645000              0.2327143
     16.8975700              0.4701930
      5.7996353              0.3585209
SP   3   1.00
     15.5396160             -0.1107775              0.0708743
      3.5999336             -0.1480263              0.3397528
      1.0137618              1.1307670              0.7271586
SP   1   1.00
      0.2700058              1.0000000              1.0000000
D    1   1.00
      2.5840000              1.0000000
D    1   1.00
      0.6460000              1.0000000
F    1   1.00
      1.4000000              1.0000000
****
F     0
S    6   1.00
   7001.7130900              0.0018196169
   1051.3660900              0.0139160796
    239.2856900              0.0684053245
     67.3974453              0.233185760
     21.5199573              0.471267439
      7.40310130             0.356618546
SP   3   1.00
     20.8479528             -0.108506975            0.0716287243
      4.80830834            -0.146451658            0.3459121030
      1.34406986             1.128688580            0.7224699570
SP   1   1.00
      0.358151393            1.0000000              1.0000000
D    1   1.00
      3.5000000              1.0000000
D    1   1.00
      0.8750000              1.0000000
F    1   1.00
      1.8500000              1.0000000
****
Al     0
S    6   1.00
  13983.1000000              0.00194267
   2098.7500000              0.0148599
    477.7050000              0.0728494
    134.3600000              0.2468300
     42.8709000              0.4872580
     14.5189000              0.3234960
SP   6   1.00
    239.6680000             -0.00292619             0.00460285
     57.4419000             -0.0374080              0.0331990
     18.2859000             -0.1144870              0.1362820
      6.5991400              0.1156350              0.3304760
      2.4904900              0.6125950              0.4491460
      0.9445400              0.3937990              0.2657040
SP   3   1.00
      1.2779000             -0.2276060             -0.0175130
      0.3975900              0.00144583             0.2445330
      0.1600950              1.0927900              0.8049340
SP   1   1.00
      0.0556577              1.0000000              1.0000000
D    1   1.00
      0.6500000              1.0000000
D    1   1.00
      0.1625000              1.0000000
F    1   1.00
      0.2500000              1.0000000
****
Si     0
S    6   1.00
  16115.9000000              0.00195948
   2425.5800000              0.01492880
    553.8670000              0.07284780
    156.3400000              0.24613000
     50.0683000              0.48591400
     17.0178000              0.32500200
SP   6   1.00
    292.7180000             -0.00278094             0.00443826
     69.8731000             -0.03571460             0.03266790
     22.3363000             -0.11498500             0.13472100
      8.1503900              0.09356340             0.32867800
      3.1345800              0.60301700             0.44964000
      1.2254300              0.41895900             0.26137200
SP   3   1.00
      1.7273800             -0.24463000            -0.01779510
      0.5729220              0.00431572             0.25353900
      0.2221920              1.09818000             0.80066900
SP   1   1.00
      0.0778369              1.00000000             1.00000000
D    1   1.00
      0.9000000              1.0000000
D    1   1.00
      0.2250000              1.0000000
F    1   1.00
      0.3200000              1.0000000
****
P     0
S    6   1.00
  19413.3000000              0.0018516
   2909.4200000              0.0142062
    661.3640000              0.0699995
    185.7590000              0.2400790
     59.1943000              0.4847620
     20.0310000              0.3352000
SP   6   1.00
    339.4780000             -0.00278217             0.00456462
     81.0101000             -0.0360499              0.03369360
     25.8780000             -0.1166310              0.13975500
      9.4522100              0.0968328              0.33936200
      3.6656600              0.6144180              0.45092100
      1.4674600              0.4037980              0.23858600
SP   3   1.00
      2.1562300             -0.2529230             -0.01776530
      0.7489970              0.0328517              0.27405800
      0.2831450              1.0812500              0.78542100
SP   1   1.00
      0.0998317              1.0000000              1.00000000
D    1   1.00
      1.1000000              1.0000000
D    1   1.00
      0.2750000              1.0000000
F    1   1.00
      0.4500000              1.0000000
****
S     0
S    6   1.00
  21917.1000000              0.0018690
   3301.4900000              0.0142300
    754.1460000              0.0696960
    212.7110000              0.2384870
     67.9896000              0.4833070
     23.0515000              0.3380740
SP   6   1.00
    423.7350000             -0.0023767              0.0040610
    100.7100000             -0.0316930              0.0306810
     32.1599000             -0.1133170              0.1304520
     11.8079000              0.0560900              0.3272050
      4.6311000              0.5922550              0.4528510
      1.8702500              0.4550060              0.2560420
SP   3   1.00
      2.6158400             -0.2503740             -0.0145110
      0.9221670              0.0669570              0.3102630
      0.3412870              1.0545100              0.7544830
SP   1   1.00
      0.1171670              1.0000000              1.0000000
D    1   1.00
      1.3000000              1.0000000
D    1   1.00
      0.3250000              1.0000000
F    1   1.00
      0.5500000              1.0000000
****
Cl     0
S    6   1.00
  25180.1000000              0.0018330
   3780.3500000              0.0140340
    860.4740000              0.0690970
    242.1450000              0.2374520
     77.3349000              0.4830340
     26.2470000              0.3398560
SP   6   1.00
    491.7650000             -0.0022974              0.0039894
    116.9840000             -0.0307140              0.0303180
     37.4153000             -0.1125280              0.1298800
     13.7834000              0.0450160              0.3279510
      5.4521500              0.5893530              0.4535270
      2.2258800              0.4652060              0.2521540
SP   3   1.00
      3.1864900             -0.2518300             -0.0142990
      1.1442700              0.0615890              0.3235720
      0.4203770              1.0601800              0.7435070
SP   1   1.00
      0.1426570              1.0000000              1.0000000
D    1   1.00
      1.5000000              1.0000000
D    1   1.00
      0.3750000              1.0000000
F    1   1.00
      0.7000000              1.0000000
****
}


set {
reference rhf                          
freeze_core true
e_convergence 10                       
d_convergence 10                      
dft_spherical_points 1202
dft_radial_points 99
}

e = energy('b3lyp')

print_out('Grab this energy {0}'.format(e))
--------------------------------------------------------------------------

  Memory set to  13.039 GiB by Python driver.

Scratch directory: /tmp/

*** tstart() called on n078
*** at Sun Oct 31 17:11:32 2021

   => Loading Basis Set <=

    Name: ANONYMOUS77DE3EEC
    Role: ORBITAL
    Keyword: BASIS
    atoms 1-2 entry C          line    48 inputblock 6-31g_2dfp_ 
    atoms 3-4 entry O          line    90 inputblock 6-31g_2dfp_ 
    atoms 5-8 entry H          line    15 inputblock 6-31g_2dfp_ 


         ---------------------------------------------------------
                                   SCF
               by Justin Turney, Rob Parrish, Andy Simmonett
                          and Daniel G. A. Smith
                              RKS Reference
                        1 Threads,  13351 MiB Core
         ---------------------------------------------------------

  ==> Geometry <==

    Molecular point group: c1
    Full point group: C1

    Geometry (in Bohr), charge = 0, multiplicity = 1:

       Center              X                  Y                   Z               Mass       
    ------------   -----------------  -----------------  -----------------  -----------------
         C           -2.754723277753    -0.074297532403     0.001229126361    12.000000000000
         C            0.075181835347     0.191365498097    -0.001952837739    12.000000000000
         O            1.240554899047     2.152868794397     0.000402302261    15.994914619570
         O            1.229063311947    -2.100172840603     0.000248476861    15.994914619570
         H           -3.615853070553     1.781646779397    -0.000639307339     1.007825032230
         H           -3.347795481253    -1.135190589503    -1.668492713639     1.007825032230
         H           -3.347915119153    -1.135399966803     1.667687307661     1.007825032230
         H            3.021771411447    -1.741287461803    -0.000266516239     1.007825032230

  Running in c1 symmetry.

  Rotational constants: A =      0.37707  B =      0.31603  C =      0.17762 [cm^-1]
  Rotational constants: A =  11304.34903  B =   9474.34035  C =   5324.97521 [MHz]
  Nuclear repulsion =  121.053809088559433

  Charge       = 0
  Multiplicity = 1
  Electrons    = 32
  Nalpha       = 16
  Nbeta        = 16

  ==> Algorithm <==

  SCF Algorithm Type is DF.
  DIIS enabled.
  MOM disabled.
  Fractional occupation disabled.
  Guess Type is SAD.
  Energy threshold   = 1.00e-10
  Density threshold  = 1.00e-10
  Integral threshold = 0.00e+00

  ==> Primary Basis <==

  Basis Set: ANONYMOUS77DE3EEC
    Blend: 6-31G_2DFP_
    Number of shells: 48
    Number of basis function: 136
    Number of Cartesian functions: 156
    Spherical Harmonics?: true
    Max angular momentum: 3

  ==> DFT Potential <==

   => Composite Functional: B3LYP <= 

    B3LYP Hyb-GGA Exchange-Correlation Functional

    P. J. Stephens, F. J. Devlin, C. F. Chabalowski, and M. J. Frisch, J. Phys. Chem. 98, 11623 (1994)

    Deriv               =              1
    GGA                 =           TRUE
    Meta                =          FALSE

    Exchange Hybrid     =           TRUE
    MP2 Hybrid          =          FALSE

   => Exchange Functionals <=

    0.0800   Slater exchange
    0.7200         Becke 88

   => Exact (HF) Exchange <=

    0.2000               HF 

   => Correlation Functionals <=

    0.1900   Vosko, Wilk & Nusair (VWN5_RPA)
    0.8100   Lee, Yang & Parr

   => Molecular Quadrature <=

    Radial Scheme          =       TREUTLER
    Pruning Scheme         =           NONE
    Nuclear Scheme         =       TREUTLER

    BS radius alpha        =              1
    Pruning alpha          =              1
    Radial Points          =             99
    Spherical Points       =           1202
    Total Points           =         894492
    Total Blocks           =           6038
    Max Points             =            256
    Max Functions          =            135
    Weights Tolerance      =       1.00E-15

   => Loading Basis Set <=

    Name: (ANONYMOUS77DE3EEC AUX)
    Role: JKFIT
    Keyword: DF_BASIS_SCF
    atoms 1-2 entry C          line   198 file /opt/psi/4/master/share/psi4/basis/def2-universal-jkfit.gbs 
    atoms 3-4 entry O          line   318 file /opt/psi/4/master/share/psi4/basis/def2-universal-jkfit.gbs 
    atoms 5-8 entry H          line    18 file /opt/psi/4/master/share/psi4/basis/def2-universal-jkfit.gbs 

  ==> Integral Setup <==

  DFHelper Memory: AOs need 0.056 GiB; user supplied 6.969 GiB. Using in-core AOs.

  ==> MemDFJK: Density-Fitted J/K Matrices <==

    J tasked:                   Yes
    K tasked:                   Yes
    wK tasked:                   No
    OpenMP threads:               1
    Memory [MiB]:              7136
    Algorithm:                 Core
    Schwarz Cutoff:           1E-12
    Mask sparsity (%):       1.0597
    Fitting Condition:        1E-10

   => Auxiliary Basis Set <=

  Basis Set: (ANONYMOUS77DE3EEC AUX)
    Blend: DEF2-UNIVERSAL-JKFIT
    Number of shells: 124
    Number of basis function: 376
    Number of Cartesian functions: 444
    Spherical Harmonics?: true
    Max angular momentum: 4

  Cached 100.0% of DFT collocation blocks in 2.810 [GiB].

  Minimum eigenvalue in the overlap matrix is 1.4061671680E-03.
  Reciprocal condition number of the overlap matrix is 2.6131186822E-04.
    Using symmetric orthogonalization.

  ==> Pre-Iterations <==

  SCF Guess: Superposition of Atomic Densities via on-the-fly atomic UHF (no occupation information).

   -------------------------
    Irrep   Nso     Nmo    
   -------------------------
     A        136     136 
   -------------------------
    Total     136     136
   -------------------------

  ==> Iterations <==

                           Total Energy        Delta E     RMS |[F,P]|

   @DF-RKS iter SAD:  -228.56141611980857   -2.28561e+02   0.00000e+00 
   @DF-RKS iter   1:  -228.83209880380576   -2.70683e-01   5.87824e-03 DIIS
   @DF-RKS iter   2:  -228.62412086729367    2.07978e-01   7.95003e-03 DIIS
   @DF-RKS iter   3:  -229.07250649454303   -4.48386e-01   1.88504e-03 DIIS
   @DF-RKS iter   4:  -229.09868000391239   -2.61735e-02   3.38677e-04 DIIS
   @DF-RKS iter   5:  -229.09920063968221   -5.20636e-04   1.84084e-04 DIIS
   @DF-RKS iter   6:  -229.09945422518308   -2.53586e-04   2.43306e-05 DIIS
   @DF-RKS iter   7:  -229.09945867377564   -4.44859e-06   5.83881e-06 DIIS
   @DF-RKS iter   8:  -229.09945892724417   -2.53469e-07   1.62336e-06 DIIS
   @DF-RKS iter   9:  -229.09945894925065   -2.20065e-08   2.08781e-07 DIIS
   @DF-RKS iter  10:  -229.09945894962203   -3.71386e-10   3.77090e-08 DIIS
   @DF-RKS iter  11:  -229.09945894963374   -1.17097e-11   7.80037e-09 DIIS
   @DF-RKS iter  12:  -229.09945894963488   -1.13687e-12   1.64544e-09 DIIS
   @DF-RKS iter  13:  -229.09945894963471    1.70530e-13   2.34864e-10 DIIS
   @DF-RKS iter  14:  -229.09945894963471    0.00000e+00   5.67444e-11 DIIS
  Energy and wave function converged.


  ==> Post-Iterations <==

    Orbital Energies [Eh]
    ---------------------

    Doubly Occupied:                                                      

       1A    -19.190382     2A    -19.134874     3A    -10.316077  
       4A    -10.194002     5A     -1.103391     6A     -1.012862  
       7A     -0.759302     8A     -0.607968     9A     -0.488200  
      10A     -0.475750    11A     -0.468449    12A     -0.412769  
      13A     -0.393536    14A     -0.392373    15A     -0.319838  
      16A     -0.275215  

    Virtual:                                                              

      17A      0.009806    18A      0.073887    19A      0.103823  
      20A      0.149030    21A      0.158569    22A      0.207081  
      23A      0.273755    24A      0.311128    25A      0.434246  
      26A      0.440148    27A      0.455474    28A      0.489114  
      29A      0.498761    30A      0.529884    31A      0.545592  
      32A      0.563718    33A      0.595826    34A      0.605492  
      35A      0.632429    36A      0.668262    37A      0.718719  
      38A      0.752252    39A      0.785861    40A      0.802558  
      41A      0.837907    42A      0.839065    43A      0.924257  
      44A      0.937467    45A      0.946318    46A      0.953932  
      47A      1.020006    48A      1.078019    49A      1.095990  
      50A      1.170977    51A      1.212661    52A      1.284121  
      53A      1.303944    54A      1.330241    55A      1.334015  
      56A      1.404758    57A      1.416983    58A      1.443143  
      59A      1.462191    60A      1.566544    61A      1.596945  
      62A      1.627111    63A      1.652247    64A      1.727920  
      65A      1.741375    66A      1.816991    67A      1.820185  
      68A      1.844570    69A      1.974517    70A      2.028696  
      71A      2.108884    72A      2.228960    73A      2.299347  
      74A      2.446069    75A      2.615821    76A      2.703306  
      77A      2.714346    78A      2.854471    79A      2.901658  
      80A      2.967067    81A      2.973444    82A      3.088821  
      83A      3.125557    84A      3.153935    85A      3.195978  
      86A      3.247040    87A      3.330003    88A      3.333407  
      89A      3.392418    90A      3.431656    91A      3.469533  
      92A      3.472758    93A      3.595557    94A      3.633712  
      95A      3.662519    96A      3.711235    97A      3.790673  
      98A      3.909114    99A      3.989093   100A      3.990445  
     101A      4.095546   102A      4.140115   103A      4.164191  
     104A      4.223091   105A      4.273805   106A      4.404214  
     107A      4.447374   108A      4.497112   109A      4.540416  
     110A      4.940478   111A      5.052137   112A      5.083282  
     113A      5.126105   114A      5.198335   115A      5.216116  
     116A      5.355265   117A      5.389116   118A      5.485355  
     119A      5.495020   120A      5.607010   121A      5.768659  
     122A      5.803778   123A      5.994648   124A      5.997083  
     125A      6.259037   126A      6.657505   127A      6.796265  
     128A      6.864381   129A      6.899290   130A      7.022631  
     131A      7.073545   132A      7.189487   133A      7.207710  
     134A      7.443071   135A      7.536686   136A      7.637158  

    Final Occupation by Irrep:
              A 
    DOCC [    16 ]

  @DF-RKS Final Energy:  -229.09945894963471

   => Energetics <=

    Nuclear Repulsion Energy =            121.0538090885594329
    One-Electron Energy =                -552.0468276287895151
    Two-Electron Energy =                 225.7957075664446052
    DFT Exchange-Correlation Energy =     -23.9021479758492355
    Empirical Dispersion Energy =           0.0000000000000000
    VV10 Nonlocal Energy =                  0.0000000000000000
    Total Energy =                       -229.0994589496347089

Computation Completed


Properties will be evaluated at   0.000000,   0.000000,   0.000000 [a0]

Properties computed using the SCF density matrix

  Nuclear Dipole Moment: [e a0]
     X:    -3.6101      Y:    -1.1063      Z:    -0.0008

  Electronic Dipole Moment: [e a0]
     X:     3.3221      Y:     0.5477      Z:     0.0001

  Dipole Moment: [e a0]
     X:    -0.2880      Y:    -0.5585      Z:    -0.0007     Total:     0.6284

  Dipole Moment: [D]
     X:    -0.7319      Y:    -1.4196      Z:    -0.0019     Total:     1.5972


*** tstop() called on n078 at Sun Oct 31 17:12:16 2021
Module time:
	user time   =      43.39 seconds =       0.72 minutes
	system time =       0.79 seconds =       0.01 minutes
	total time  =         44 seconds =       0.73 minutes
Total time:
	user time   =      43.39 seconds =       0.72 minutes
	system time =       0.79 seconds =       0.01 minutes
	total time  =         44 seconds =       0.73 minutes
Grab this energy -229.0994589496347
    Psi4 stopped on: Sunday, 31 October 2021 05:12PM
    Psi4 wall time for execution: 0:00:44.23

*** Psi4 exiting successfully. Buy a developer a beer!
