
    -----------------------------------------------------------------------
          Psi4: An Open-Source Ab Initio Electronic Structure Package
                               Psi4 1.4a2.dev629 

                         Git: Rev {master} 2938fc2 dirty


    D. G. A. Smith, L. A. Burns, A. C. Simmonett, R. M. Parrish,
    M. C. Schieber, R. Galvelis, P. Kraus, H. Kruse, R. Di Remigio,
    A. Alenaizan, A. M. James, S. Lehtola, J. P. Misiewicz, M. Scheurer,
    R. A. Shaw, J. B. Schriber, Y. Xie, Z. L. Glick, D. A. Sirianni,
    J. S. O'Brien, J. M. Waldrop, A. Kumar, E. G. Hohenstein,
    B. P. Pritchard, B. R. Brooks, H. F. Schaefer III, A. Yu. Sokolov,
    K. Patkowski, A. E. DePrince III, U. Bozkaya, R. A. King,
    F. A. Evangelista, J. M. Turney, T. D. Crawford, C. D. Sherrill,
    J. Chem. Phys. 152(18) 184108 (2020). https://doi.org/10.1063/5.0006002

                            Additional Code Authors
    E. T. Seidl, C. L. Janssen, E. F. Valeev, M. L. Leininger,
    J. F. Gonthier, R. M. Richard, H. R. McAlexander, M. Saitow, X. Wang,
    P. Verma, and M. H. Lechner

             Previous Authors, Complete List of Code Contributors,
                       and Citations for Specific Modules
    https://github.com/psi4/psi4/blob/master/codemeta.json
    https://github.com/psi4/psi4/graphs/contributors
    http://psicode.org/psi4manual/master/introduction.html#citing-psifour

    -----------------------------------------------------------------------


    Psi4 started on: Sunday, 31 October 2021 05:24PM

    Process ID: 29453
    Host:       n082
    PSIDATADIR: /opt/psi/4/master/share/psi4
    Memory:     500.0 MiB
    Threads:    1
    
  ==> Input File <==

--------------------------------------------------------------------------
import os
memory 14 GB 
 
molecule {
 C   -2.7547222988   -0.0752250699    0.0000000602
 C    0.0714044875    0.1939299539    0.0000000501
 O    1.2416312132    2.1517747495    0.0000000099
 O    1.2317717786   -2.0997231496   -0.0000000302
 H   -3.6156122204    1.7868101057    0.0000000502
 H   -3.3473154982   -1.1376514006   -1.6637318155
 H   -3.3473155182   -1.1376529005    1.6637309652
 H    3.0206373161   -1.7421121484   -0.0000001499
units bohr
}

basis {

assign 6-31g_2dfp_

[ 6-31g_2dfp_ ]

spherical

!----------------------------------------------------------------------
! Basis Set Exchange
! Version v0.8.13
! https://www.basissetexchange.org
!----------------------------------------------------------------------
!   Basis set: 6-31G(2df,p)
! Description: 6-31G(2df,p)
!        Role: orbital
!     Version: 0  (Data from the original Basis Set Exchange)
!----------------------------------------------------------------------


****
H     0
S    3   1.00
     18.7311370              0.03349460
      2.8253937              0.23472695
      0.6401217              0.81375733
S    1   1.00
      0.1612778              1.00000000
P    1   1.00
      1.5000000              1.0000000
P    1   1.00
      0.3750000              1.0000000
****
B     0
S    6   1.00
   2068.8823000              0.0018663
    310.6495700              0.0142515
     70.6830330              0.0695516
     19.8610800              0.2325729
      6.2993048              0.4670787
      2.1270270              0.3634314
SP   3   1.00
      4.7279710             -0.1303938              0.0745976
      1.1903377             -0.1307889              0.3078467
      0.3594117              1.1309444              0.7434568
SP   1   1.00
      0.1267512              1.0000000              1.0000000
D    1   1.00
      0.8020000              1.0000000
D    1   1.00
      0.2005000              1.0000000
F    1   1.00
      0.5000000              1.0000000
****
C     0
S    6   1.00
   3047.5249000              0.0018347
    457.3695100              0.0140373
    103.9486900              0.0688426
     29.2101550              0.2321844
      9.2866630              0.4679413
      3.1639270              0.3623120
SP   3   1.00
      7.8682724             -0.1193324              0.0689991
      1.8812885             -0.1608542              0.3164240
      0.5442493              1.1434564              0.7443083
SP   1   1.00
      0.1687144              1.0000000              1.0000000
D    1   1.00
      1.2520000              1.0000000
D    1   1.00
      0.3130000              1.0000000
F    1   1.00
      0.8000000              1.0000000
****
N     0
S    6   1.00
   4173.5110000              0.0018348
    627.4579000              0.0139950
    142.9021000              0.0685870
     40.2343300              0.2322410
     12.8202100              0.4690700
      4.3904370              0.3604550
SP   3   1.00
     11.6263580             -0.1149610              0.0675800
      2.7162800             -0.1691180              0.3239070
      0.7722180              1.1458520              0.7408950
SP   1   1.00
      0.2120313              1.0000000              1.0000000
D    1   1.00
      1.8260000              1.0000000
D    1   1.00
      0.4565000              1.0000000
F    1   1.00
      1.0000000              1.0000000
****
O     0
S    6   1.00
   5484.6717000              0.0018311
    825.2349500              0.0139501
    188.0469600              0.0684451
     52.9645000              0.2327143
     16.8975700              0.4701930
      5.7996353              0.3585209
SP   3   1.00
     15.5396160             -0.1107775              0.0708743
      3.5999336             -0.1480263              0.3397528
      1.0137618              1.1307670              0.7271586
SP   1   1.00
      0.2700058              1.0000000              1.0000000
D    1   1.00
      2.5840000              1.0000000
D    1   1.00
      0.6460000              1.0000000
F    1   1.00
      1.4000000              1.0000000
****
F     0
S    6   1.00
   7001.7130900              0.0018196169
   1051.3660900              0.0139160796
    239.2856900              0.0684053245
     67.3974453              0.233185760
     21.5199573              0.471267439
      7.40310130             0.356618546
SP   3   1.00
     20.8479528             -0.108506975            0.0716287243
      4.80830834            -0.146451658            0.3459121030
      1.34406986             1.128688580            0.7224699570
SP   1   1.00
      0.358151393            1.0000000              1.0000000
D    1   1.00
      3.5000000              1.0000000
D    1   1.00
      0.8750000              1.0000000
F    1   1.00
      1.8500000              1.0000000
****
Al     0
S    6   1.00
  13983.1000000              0.00194267
   2098.7500000              0.0148599
    477.7050000              0.0728494
    134.3600000              0.2468300
     42.8709000              0.4872580
     14.5189000              0.3234960
SP   6   1.00
    239.6680000             -0.00292619             0.00460285
     57.4419000             -0.0374080              0.0331990
     18.2859000             -0.1144870              0.1362820
      6.5991400              0.1156350              0.3304760
      2.4904900              0.6125950              0.4491460
      0.9445400              0.3937990              0.2657040
SP   3   1.00
      1.2779000             -0.2276060             -0.0175130
      0.3975900              0.00144583             0.2445330
      0.1600950              1.0927900              0.8049340
SP   1   1.00
      0.0556577              1.0000000              1.0000000
D    1   1.00
      0.6500000              1.0000000
D    1   1.00
      0.1625000              1.0000000
F    1   1.00
      0.2500000              1.0000000
****
Si     0
S    6   1.00
  16115.9000000              0.00195948
   2425.5800000              0.01492880
    553.8670000              0.07284780
    156.3400000              0.24613000
     50.0683000              0.48591400
     17.0178000              0.32500200
SP   6   1.00
    292.7180000             -0.00278094             0.00443826
     69.8731000             -0.03571460             0.03266790
     22.3363000             -0.11498500             0.13472100
      8.1503900              0.09356340             0.32867800
      3.1345800              0.60301700             0.44964000
      1.2254300              0.41895900             0.26137200
SP   3   1.00
      1.7273800             -0.24463000            -0.01779510
      0.5729220              0.00431572             0.25353900
      0.2221920              1.09818000             0.80066900
SP   1   1.00
      0.0778369              1.00000000             1.00000000
D    1   1.00
      0.9000000              1.0000000
D    1   1.00
      0.2250000              1.0000000
F    1   1.00
      0.3200000              1.0000000
****
P     0
S    6   1.00
  19413.3000000              0.0018516
   2909.4200000              0.0142062
    661.3640000              0.0699995
    185.7590000              0.2400790
     59.1943000              0.4847620
     20.0310000              0.3352000
SP   6   1.00
    339.4780000             -0.00278217             0.00456462
     81.0101000             -0.0360499              0.03369360
     25.8780000             -0.1166310              0.13975500
      9.4522100              0.0968328              0.33936200
      3.6656600              0.6144180              0.45092100
      1.4674600              0.4037980              0.23858600
SP   3   1.00
      2.1562300             -0.2529230             -0.01776530
      0.7489970              0.0328517              0.27405800
      0.2831450              1.0812500              0.78542100
SP   1   1.00
      0.0998317              1.0000000              1.00000000
D    1   1.00
      1.1000000              1.0000000
D    1   1.00
      0.2750000              1.0000000
F    1   1.00
      0.4500000              1.0000000
****
S     0
S    6   1.00
  21917.1000000              0.0018690
   3301.4900000              0.0142300
    754.1460000              0.0696960
    212.7110000              0.2384870
     67.9896000              0.4833070
     23.0515000              0.3380740
SP   6   1.00
    423.7350000             -0.0023767              0.0040610
    100.7100000             -0.0316930              0.0306810
     32.1599000             -0.1133170              0.1304520
     11.8079000              0.0560900              0.3272050
      4.6311000              0.5922550              0.4528510
      1.8702500              0.4550060              0.2560420
SP   3   1.00
      2.6158400             -0.2503740             -0.0145110
      0.9221670              0.0669570              0.3102630
      0.3412870              1.0545100              0.7544830
SP   1   1.00
      0.1171670              1.0000000              1.0000000
D    1   1.00
      1.3000000              1.0000000
D    1   1.00
      0.3250000              1.0000000
F    1   1.00
      0.5500000              1.0000000
****
Cl     0
S    6   1.00
  25180.1000000              0.0018330
   3780.3500000              0.0140340
    860.4740000              0.0690970
    242.1450000              0.2374520
     77.3349000              0.4830340
     26.2470000              0.3398560
SP   6   1.00
    491.7650000             -0.0022974              0.0039894
    116.9840000             -0.0307140              0.0303180
     37.4153000             -0.1125280              0.1298800
     13.7834000              0.0450160              0.3279510
      5.4521500              0.5893530              0.4535270
      2.2258800              0.4652060              0.2521540
SP   3   1.00
      3.1864900             -0.2518300             -0.0142990
      1.1442700              0.0615890              0.3235720
      0.4203770              1.0601800              0.7435070
SP   1   1.00
      0.1426570              1.0000000              1.0000000
D    1   1.00
      1.5000000              1.0000000
D    1   1.00
      0.3750000              1.0000000
F    1   1.00
      0.7000000              1.0000000
****
}


set {
reference rhf                          
freeze_core true
e_convergence 10                       
d_convergence 10                      
dft_spherical_points 1202
dft_radial_points 99
}

e = energy('b3lyp')

print_out('Grab this energy {0}'.format(e))
--------------------------------------------------------------------------

  Memory set to  13.039 GiB by Python driver.

Scratch directory: /tmp/

*** tstart() called on n082
*** at Sun Oct 31 17:24:32 2021

   => Loading Basis Set <=

    Name: ANONYMOUS7FFDD8B8
    Role: ORBITAL
    Keyword: BASIS
    atoms 1-2 entry C          line    48 inputblock 6-31g_2dfp_ 
    atoms 3-4 entry O          line    90 inputblock 6-31g_2dfp_ 
    atoms 5-8 entry H          line    15 inputblock 6-31g_2dfp_ 


         ---------------------------------------------------------
                                   SCF
               by Justin Turney, Rob Parrish, Andy Simmonett
                          and Daniel G. A. Smith
                              RKS Reference
                        1 Threads,  13351 MiB Core
         ---------------------------------------------------------

  ==> Geometry <==

    Molecular point group: c1
    Full point group: C1

    Geometry (in Bohr), charge = 0, multiplicity = 1:

       Center              X                  Y                   Z               Mass       
    ------------   -----------------  -----------------  -----------------  -----------------
         C           -2.754979018662    -0.075374327236     0.000000059509    12.000000000000
         C            0.071147767638     0.193780696564     0.000000049409    12.000000000000
         O            1.241374493338     2.151625492164     0.000000009209    15.994914619570
         O            1.231515058738    -2.099872406936    -0.000000030891    15.994914619570
         H           -3.615868940262     1.786660848364     0.000000049509     1.007825032230
         H           -3.347572218062    -1.137800657936    -1.663731816191     1.007825032230
         H           -3.347572238062    -1.137802157836     1.663730964509     1.007825032230
         H            3.020380596238    -1.742261405736    -0.000000150591     1.007825032230

  Running in c1 symmetry.

  Rotational constants: A =      0.37728  B =      0.31587  C =      0.17759 [cm^-1]
  Rotational constants: A =  11310.68159  B =   9469.48678  C =   5323.92396 [MHz]
  Nuclear repulsion =  121.051192035629413

  Charge       = 0
  Multiplicity = 1
  Electrons    = 32
  Nalpha       = 16
  Nbeta        = 16

  ==> Algorithm <==

  SCF Algorithm Type is DF.
  DIIS enabled.
  MOM disabled.
  Fractional occupation disabled.
  Guess Type is SAD.
  Energy threshold   = 1.00e-10
  Density threshold  = 1.00e-10
  Integral threshold = 0.00e+00

  ==> Primary Basis <==

  Basis Set: ANONYMOUS7FFDD8B8
    Blend: 6-31G_2DFP_
    Number of shells: 48
    Number of basis function: 136
    Number of Cartesian functions: 156
    Spherical Harmonics?: true
    Max angular momentum: 3

  ==> DFT Potential <==

   => Composite Functional: B3LYP <= 

    B3LYP Hyb-GGA Exchange-Correlation Functional

    P. J. Stephens, F. J. Devlin, C. F. Chabalowski, and M. J. Frisch, J. Phys. Chem. 98, 11623 (1994)

    Deriv               =              1
    GGA                 =           TRUE
    Meta                =          FALSE

    Exchange Hybrid     =           TRUE
    MP2 Hybrid          =          FALSE

   => Exchange Functionals <=

    0.0800   Slater exchange
    0.7200         Becke 88

   => Exact (HF) Exchange <=

    0.2000               HF 

   => Correlation Functionals <=

    0.1900   Vosko, Wilk & Nusair (VWN5_RPA)
    0.8100   Lee, Yang & Parr

   => Molecular Quadrature <=

    Radial Scheme          =       TREUTLER
    Pruning Scheme         =           NONE
    Nuclear Scheme         =       TREUTLER

    BS radius alpha        =              1
    Pruning alpha          =              1
    Radial Points          =             99
    Spherical Points       =           1202
    Total Points           =         894505
    Total Blocks           =           6030
    Max Points             =            256
    Max Functions          =            135
    Weights Tolerance      =       1.00E-15

   => Loading Basis Set <=

    Name: (ANONYMOUS7FFDD8B8 AUX)
    Role: JKFIT
    Keyword: DF_BASIS_SCF
    atoms 1-2 entry C          line   198 file /opt/psi/4/master/share/psi4/basis/def2-universal-jkfit.gbs 
    atoms 3-4 entry O          line   318 file /opt/psi/4/master/share/psi4/basis/def2-universal-jkfit.gbs 
    atoms 5-8 entry H          line    18 file /opt/psi/4/master/share/psi4/basis/def2-universal-jkfit.gbs 

  ==> Integral Setup <==

  DFHelper Memory: AOs need 0.056 GiB; user supplied 6.970 GiB. Using in-core AOs.

  ==> MemDFJK: Density-Fitted J/K Matrices <==

    J tasked:                   Yes
    K tasked:                   Yes
    wK tasked:                   No
    OpenMP threads:               1
    Memory [MiB]:              7136
    Algorithm:                 Core
    Schwarz Cutoff:           1E-12
    Mask sparsity (%):       1.0597
    Fitting Condition:        1E-10

   => Auxiliary Basis Set <=

  Basis Set: (ANONYMOUS7FFDD8B8 AUX)
    Blend: DEF2-UNIVERSAL-JKFIT
    Number of shells: 124
    Number of basis function: 376
    Number of Cartesian functions: 444
    Spherical Harmonics?: true
    Max angular momentum: 4

  Cached 100.0% of DFT collocation blocks in 2.809 [GiB].

  Minimum eigenvalue in the overlap matrix is 1.4037702323E-03.
  Reciprocal condition number of the overlap matrix is 2.6077978578E-04.
    Using symmetric orthogonalization.

  ==> Pre-Iterations <==

  SCF Guess: Superposition of Atomic Densities via on-the-fly atomic UHF (no occupation information).

   -------------------------
    Irrep   Nso     Nmo    
   -------------------------
     A        136     136 
   -------------------------
    Total     136     136
   -------------------------

  ==> Iterations <==

                           Total Energy        Delta E     RMS |[F,P]|

   @DF-RKS iter SAD:  -228.56124840145216   -2.28561e+02   0.00000e+00 
   @DF-RKS iter   1:  -228.83222154429799   -2.70973e-01   5.87964e-03 DIIS
   @DF-RKS iter   2:  -228.62612509663472    2.06096e-01   7.93857e-03 DIIS
   @DF-RKS iter   3:  -229.07276920675491   -4.46644e-01   1.87529e-03 DIIS
   @DF-RKS iter   4:  -229.09867734296918   -2.59081e-02   3.38295e-04 DIIS
   @DF-RKS iter   5:  -229.09919628982092   -5.18947e-04   1.84164e-04 DIIS
   @DF-RKS iter   6:  -229.09945021437582   -2.53925e-04   2.41177e-05 DIIS
   @DF-RKS iter   7:  -229.09945457650042   -4.36212e-06   5.81279e-06 DIIS
   @DF-RKS iter   8:  -229.09945482792170   -2.51421e-07   1.61038e-06 DIIS
   @DF-RKS iter   9:  -229.09945484954525   -2.16235e-08   2.05856e-07 DIIS
   @DF-RKS iter  10:  -229.09945484990470   -3.59449e-10   3.75038e-08 DIIS
   @DF-RKS iter  11:  -229.09945484991601   -1.13118e-11   7.71711e-09 DIIS
   @DF-RKS iter  12:  -229.09945484991738   -1.36424e-12   1.62180e-09 DIIS
   @DF-RKS iter  13:  -229.09945484991690    4.83169e-13   2.24680e-10 DIIS
   @DF-RKS iter  14:  -229.09945484991670    1.98952e-13   5.37179e-11 DIIS
  Energy and wave function converged.


  ==> Post-Iterations <==

    Orbital Energies [Eh]
    ---------------------

    Doubly Occupied:                                                      

       1A    -19.189415     2A    -19.135063     3A    -10.316123  
       4A    -10.194266     5A     -1.102739     6A     -1.012693  
       7A     -0.759982     8A     -0.607637     9A     -0.488672  
      10A     -0.475303    11A     -0.468417    12A     -0.412795  
      13A     -0.393701    14A     -0.392247    15A     -0.319663  
      16A     -0.275375  

    Virtual:                                                              

      17A      0.009504    18A      0.074552    19A      0.104224  
      20A      0.148169    21A      0.158767    22A      0.207039  
      23A      0.273931    24A      0.309951    25A      0.434454  
      26A      0.439541    27A      0.455813    28A      0.489610  
      29A      0.498492    30A      0.530177    31A      0.546357  
      32A      0.564347    33A      0.595096    34A      0.606178  
      35A      0.632409    36A      0.668375    37A      0.718938  
      38A      0.752730    39A      0.786610    40A      0.802043  
      41A      0.837593    42A      0.838462    43A      0.924802  
      44A      0.937749    45A      0.946704    46A      0.953299  
      47A      1.021042    48A      1.078171    49A      1.094687  
      50A      1.170770    51A      1.212933    52A      1.285037  
      53A      1.305223    54A      1.330944    55A      1.333394  
      56A      1.405498    57A      1.417128    58A      1.441275  
      59A      1.464191    60A      1.566730    61A      1.596791  
      62A      1.627779    63A      1.652613    64A      1.728993  
      65A      1.740649    66A      1.817286    67A      1.820084  
      68A      1.845637    69A      1.972606    70A      2.029155  
      71A      2.109042    72A      2.229003    73A      2.299245  
      74A      2.446142    75A      2.615835    76A      2.704130  
      77A      2.714828    78A      2.855447    79A      2.901141  
      80A      2.964281    81A      2.974411    82A      3.088327  
      83A      3.126509    84A      3.154659    85A      3.193639  
      86A      3.245008    87A      3.331037    88A      3.332923  
      89A      3.390955    90A      3.431391    91A      3.470855  
      92A      3.474451    93A      3.595030    94A      3.633124  
      95A      3.663589    96A      3.712200    97A      3.791530  
      98A      3.909463    99A      3.989762   100A      3.991699  
     101A      4.097589   102A      4.138451   103A      4.167066  
     104A      4.224984   105A      4.275548   106A      4.404839  
     107A      4.449347   108A      4.499506   109A      4.539943  
     110A      4.940942   111A      5.051961   112A      5.083088  
     113A      5.124617   114A      5.193539   115A      5.220120  
     116A      5.352446   117A      5.389884   118A      5.484278  
     119A      5.499851   120A      5.608091   121A      5.769071  
     122A      5.801403   123A      5.994190   124A      5.997005  
     125A      6.259873   126A      6.653339   127A      6.796501  
     128A      6.864774   129A      6.900404   130A      7.022324  
     131A      7.074586   132A      7.187968   133A      7.206540  
     134A      7.441014   135A      7.537053   136A      7.637233  

    Final Occupation by Irrep:
              A 
    DOCC [    16 ]

  @DF-RKS Final Energy:  -229.09945484991670

   => Energetics <=

    Nuclear Repulsion Energy =            121.0511920356294127
    One-Electron Energy =                -552.0429193579821003
    Two-Electron Energy =                 225.7950706234385905
    DFT Exchange-Correlation Energy =     -23.9027981510025853
    Empirical Dispersion Energy =           0.0000000000000000
    VV10 Nonlocal Energy =                  0.0000000000000000
    Total Energy =                       -229.0994548499166967

Computation Completed


Properties will be evaluated at   0.000000,   0.000000,   0.000000 [a0]

Properties computed using the SCF density matrix

  Nuclear Dipole Moment: [e a0]
     X:    -3.6105      Y:    -1.1067      Z:    -0.0000

  Electronic Dipole Moment: [e a0]
     X:     3.3148      Y:     0.5529      Z:     0.0000

  Dipole Moment: [e a0]
     X:    -0.2957      Y:    -0.5538      Z:    -0.0000     Total:     0.6278

  Dipole Moment: [D]
     X:    -0.7516      Y:    -1.4076      Z:    -0.0000     Total:     1.5957


*** tstop() called on n082 at Sun Oct 31 17:25:16 2021
Module time:
	user time   =      43.52 seconds =       0.73 minutes
	system time =       0.73 seconds =       0.01 minutes
	total time  =         44 seconds =       0.73 minutes
Total time:
	user time   =      43.52 seconds =       0.73 minutes
	system time =       0.73 seconds =       0.01 minutes
	total time  =         44 seconds =       0.73 minutes
Grab this energy -229.0994548499167
    Psi4 stopped on: Sunday, 31 October 2021 05:25PM
    Psi4 wall time for execution: 0:00:44.30

*** Psi4 exiting successfully. Buy a developer a beer!
