
    -----------------------------------------------------------------------
          Psi4: An Open-Source Ab Initio Electronic Structure Package
                               Psi4 1.4a2.dev629 

                         Git: Rev {master} 2938fc2 dirty


    D. G. A. Smith, L. A. Burns, A. C. Simmonett, R. M. Parrish,
    M. C. Schieber, R. Galvelis, P. Kraus, H. Kruse, R. Di Remigio,
    A. Alenaizan, A. M. James, S. Lehtola, J. P. Misiewicz, M. Scheurer,
    R. A. Shaw, J. B. Schriber, Y. Xie, Z. L. Glick, D. A. Sirianni,
    J. S. O'Brien, J. M. Waldrop, A. Kumar, E. G. Hohenstein,
    B. P. Pritchard, B. R. Brooks, H. F. Schaefer III, A. Yu. Sokolov,
    K. Patkowski, A. E. DePrince III, U. Bozkaya, R. A. King,
    F. A. Evangelista, J. M. Turney, T. D. Crawford, C. D. Sherrill,
    J. Chem. Phys. 152(18) 184108 (2020). https://doi.org/10.1063/5.0006002

                            Additional Code Authors
    E. T. Seidl, C. L. Janssen, E. F. Valeev, M. L. Leininger,
    J. F. Gonthier, R. M. Richard, H. R. McAlexander, M. Saitow, X. Wang,
    P. Verma, and M. H. Lechner

             Previous Authors, Complete List of Code Contributors,
                       and Citations for Specific Modules
    https://github.com/psi4/psi4/blob/master/codemeta.json
    https://github.com/psi4/psi4/graphs/contributors
    http://psicode.org/psi4manual/master/introduction.html#citing-psifour

    -----------------------------------------------------------------------


    Psi4 started on: Wednesday, 05 January 2022 02:36PM

    Process ID: 2794
    Host:       n049
    PSIDATADIR: /opt/psi/4/master/share/psi4
    Memory:     500.0 MiB
    Threads:    4
    
  ==> Input File <==

--------------------------------------------------------------------------
import os
memory 14 GB 
 
molecule {
 Si    0.0007295303    2.2162791007   -0.0000000000
 Si    0.0007279909   -2.2216225817    0.0000000000
 H   -1.3124301740    3.1943495766   -2.2790614047
 H   -1.3124301740    3.1943495766    2.2790614047
 H    2.6241379106    3.1923404171   -0.0000000000
 H   -2.6320670471   -3.1932492690    0.0000000000
 H    1.3156659816   -3.1912234102    2.2729493084
 H    1.3156659816   -3.1912234102   -2.2729493084
units bohr
}

basis {

assign 6-31g_2dfp_

[ 6-31g_2dfp_ ]

spherical

!----------------------------------------------------------------------
! Basis Set Exchange
! Version v0.8.13
! https://www.basissetexchange.org
!----------------------------------------------------------------------
!   Basis set: 6-31G(2df,p)
! Description: 6-31G(2df,p)
!        Role: orbital
!     Version: 0  (Data from the original Basis Set Exchange)
!----------------------------------------------------------------------


****
H     0
S    3   1.00
     18.7311370              0.03349460
      2.8253937              0.23472695
      0.6401217              0.81375733
S    1   1.00
      0.1612778              1.00000000
P    1   1.00
      1.5000000              1.0000000
P    1   1.00
      0.3750000              1.0000000
****
B     0
S    6   1.00
   2068.8823000              0.0018663
    310.6495700              0.0142515
     70.6830330              0.0695516
     19.8610800              0.2325729
      6.2993048              0.4670787
      2.1270270              0.3634314
SP   3   1.00
      4.7279710             -0.1303938              0.0745976
      1.1903377             -0.1307889              0.3078467
      0.3594117              1.1309444              0.7434568
SP   1   1.00
      0.1267512              1.0000000              1.0000000
D    1   1.00
      0.8020000              1.0000000
D    1   1.00
      0.2005000              1.0000000
F    1   1.00
      0.5000000              1.0000000
****
C     0
S    6   1.00
   3047.5249000              0.0018347
    457.3695100              0.0140373
    103.9486900              0.0688426
     29.2101550              0.2321844
      9.2866630              0.4679413
      3.1639270              0.3623120
SP   3   1.00
      7.8682724             -0.1193324              0.0689991
      1.8812885             -0.1608542              0.3164240
      0.5442493              1.1434564              0.7443083
SP   1   1.00
      0.1687144              1.0000000              1.0000000
D    1   1.00
      1.2520000              1.0000000
D    1   1.00
      0.3130000              1.0000000
F    1   1.00
      0.8000000              1.0000000
****
N     0
S    6   1.00
   4173.5110000              0.0018348
    627.4579000              0.0139950
    142.9021000              0.0685870
     40.2343300              0.2322410
     12.8202100              0.4690700
      4.3904370              0.3604550
SP   3   1.00
     11.6263580             -0.1149610              0.0675800
      2.7162800             -0.1691180              0.3239070
      0.7722180              1.1458520              0.7408950
SP   1   1.00
      0.2120313              1.0000000              1.0000000
D    1   1.00
      1.8260000              1.0000000
D    1   1.00
      0.4565000              1.0000000
F    1   1.00
      1.0000000              1.0000000
****
O     0
S    6   1.00
   5484.6717000              0.0018311
    825.2349500              0.0139501
    188.0469600              0.0684451
     52.9645000              0.2327143
     16.8975700              0.4701930
      5.7996353              0.3585209
SP   3   1.00
     15.5396160             -0.1107775              0.0708743
      3.5999336             -0.1480263              0.3397528
      1.0137618              1.1307670              0.7271586
SP   1   1.00
      0.2700058              1.0000000              1.0000000
D    1   1.00
      2.5840000              1.0000000
D    1   1.00
      0.6460000              1.0000000
F    1   1.00
      1.4000000              1.0000000
****
F     0
S    6   1.00
   7001.7130900              0.0018196169
   1051.3660900              0.0139160796
    239.2856900              0.0684053245
     67.3974453              0.233185760
     21.5199573              0.471267439
      7.40310130             0.356618546
SP   3   1.00
     20.8479528             -0.108506975            0.0716287243
      4.80830834            -0.146451658            0.3459121030
      1.34406986             1.128688580            0.7224699570
SP   1   1.00
      0.358151393            1.0000000              1.0000000
D    1   1.00
      3.5000000              1.0000000
D    1   1.00
      0.8750000              1.0000000
F    1   1.00
      1.8500000              1.0000000
****
Al     0
S    6   1.00
  13983.1000000              0.00194267
   2098.7500000              0.0148599
    477.7050000              0.0728494
    134.3600000              0.2468300
     42.8709000              0.4872580
     14.5189000              0.3234960
SP   6   1.00
    239.6680000             -0.00292619             0.00460285
     57.4419000             -0.0374080              0.0331990
     18.2859000             -0.1144870              0.1362820
      6.5991400              0.1156350              0.3304760
      2.4904900              0.6125950              0.4491460
      0.9445400              0.3937990              0.2657040
SP   3   1.00
      1.2779000             -0.2276060             -0.0175130
      0.3975900              0.00144583             0.2445330
      0.1600950              1.0927900              0.8049340
SP   1   1.00
      0.0556577              1.0000000              1.0000000
D    1   1.00
      0.6500000              1.0000000
D    1   1.00
      0.1625000              1.0000000
F    1   1.00
      0.2500000              1.0000000
****
Si     0
S    6   1.00
  16115.9000000              0.00195948
   2425.5800000              0.01492880
    553.8670000              0.07284780
    156.3400000              0.24613000
     50.0683000              0.48591400
     17.0178000              0.32500200
SP   6   1.00
    292.7180000             -0.00278094             0.00443826
     69.8731000             -0.03571460             0.03266790
     22.3363000             -0.11498500             0.13472100
      8.1503900              0.09356340             0.32867800
      3.1345800              0.60301700             0.44964000
      1.2254300              0.41895900             0.26137200
SP   3   1.00
      1.7273800             -0.24463000            -0.01779510
      0.5729220              0.00431572             0.25353900
      0.2221920              1.09818000             0.80066900
SP   1   1.00
      0.0778369              1.00000000             1.00000000
D    1   1.00
      0.9000000              1.0000000
D    1   1.00
      0.2250000              1.0000000
F    1   1.00
      0.3200000              1.0000000
****
P     0
S    6   1.00
  19413.3000000              0.0018516
   2909.4200000              0.0142062
    661.3640000              0.0699995
    185.7590000              0.2400790
     59.1943000              0.4847620
     20.0310000              0.3352000
SP   6   1.00
    339.4780000             -0.00278217             0.00456462
     81.0101000             -0.0360499              0.03369360
     25.8780000             -0.1166310              0.13975500
      9.4522100              0.0968328              0.33936200
      3.6656600              0.6144180              0.45092100
      1.4674600              0.4037980              0.23858600
SP   3   1.00
      2.1562300             -0.2529230             -0.01776530
      0.7489970              0.0328517              0.27405800
      0.2831450              1.0812500              0.78542100
SP   1   1.00
      0.0998317              1.0000000              1.00000000
D    1   1.00
      1.1000000              1.0000000
D    1   1.00
      0.2750000              1.0000000
F    1   1.00
      0.4500000              1.0000000
****
S     0
S    6   1.00
  21917.1000000              0.0018690
   3301.4900000              0.0142300
    754.1460000              0.0696960
    212.7110000              0.2384870
     67.9896000              0.4833070
     23.0515000              0.3380740
SP   6   1.00
    423.7350000             -0.0023767              0.0040610
    100.7100000             -0.0316930              0.0306810
     32.1599000             -0.1133170              0.1304520
     11.8079000              0.0560900              0.3272050
      4.6311000              0.5922550              0.4528510
      1.8702500              0.4550060              0.2560420
SP   3   1.00
      2.6158400             -0.2503740             -0.0145110
      0.9221670              0.0669570              0.3102630
      0.3412870              1.0545100              0.7544830
SP   1   1.00
      0.1171670              1.0000000              1.0000000
D    1   1.00
      1.3000000              1.0000000
D    1   1.00
      0.3250000              1.0000000
F    1   1.00
      0.5500000              1.0000000
****
Cl     0
S    6   1.00
  25180.1000000              0.0018330
   3780.3500000              0.0140340
    860.4740000              0.0690970
    242.1450000              0.2374520
     77.3349000              0.4830340
     26.2470000              0.3398560
SP   6   1.00
    491.7650000             -0.0022974              0.0039894
    116.9840000             -0.0307140              0.0303180
     37.4153000             -0.1125280              0.1298800
     13.7834000              0.0450160              0.3279510
      5.4521500              0.5893530              0.4535270
      2.2258800              0.4652060              0.2521540
SP   3   1.00
      3.1864900             -0.2518300             -0.0142990
      1.1442700              0.0615890              0.3235720
      0.4203770              1.0601800              0.7435070
SP   1   1.00
      0.1426570              1.0000000              1.0000000
D    1   1.00
      1.5000000              1.0000000
D    1   1.00
      0.3750000              1.0000000
F    1   1.00
      0.7000000              1.0000000
****
}


set {
reference rhf                          
freeze_core true
e_convergence 10                       
d_convergence 10                      
dft_spherical_points 1202
dft_radial_points 99
}

e = energy('b3lyp')

print_out('Grab this energy {0}'.format(e))
--------------------------------------------------------------------------

  Memory set to  13.039 GiB by Python driver.

Scratch directory: /tmp/

*** tstart() called on n049
*** at Wed Jan  5 14:36:02 2022

   => Loading Basis Set <=

    Name: ANONYMOUS23C08CE2
    Role: ORBITAL
    Keyword: BASIS
    atoms 1-2 entry SI         line   160 inputblock 6-31g_2dfp_ 
    atoms 3-8 entry H          line    15 inputblock 6-31g_2dfp_ 


         ---------------------------------------------------------
                                   SCF
               by Justin Turney, Rob Parrish, Andy Simmonett
                          and Daniel G. A. Smith
                              RKS Reference
                        4 Threads,  13351 MiB Core
         ---------------------------------------------------------

  ==> Geometry <==

    Molecular point group: cs
    Full point group: Cs

    Geometry (in Bohr), charge = 0, multiplicity = 1:

       Center              X                  Y                   Z               Mass       
    ------------   -----------------  -----------------  -----------------  -----------------
         SI           0.000095537916     2.218603407386     0.000000000000    27.976926534650
         SI           0.000093998516    -2.219298275014     0.000000000000    27.976926534650
         H           -1.313064166384     3.196673883286    -2.279061404700     1.007825032230
         H           -1.313064166384     3.196673883286     2.279061404700     1.007825032230
         H            2.623503918216     3.194664723786     0.000000000000     1.007825032230
         H           -2.632701039484    -3.190924962314     0.000000000000     1.007825032230
         H            1.315031989216    -3.188899103514     2.272949308400     1.007825032230
         H            1.315031989216    -3.188899103514    -2.272949308400     1.007825032230

  Running in cs symmetry.

  Rotational constants: A =      1.44136  B =      0.16814  C =      0.16814 [cm^-1]
  Rotational constants: A =  43210.87554  B =   5040.79066  C =   5040.78984 [MHz]
  Nuclear repulsion =   90.648031094530893

  Charge       = 0
  Multiplicity = 1
  Electrons    = 34
  Nalpha       = 17
  Nbeta        = 17

  ==> Algorithm <==

  SCF Algorithm Type is DF.
  DIIS enabled.
  MOM disabled.
  Fractional occupation disabled.
  Guess Type is SAD.
  Energy threshold   = 1.00e-10
  Density threshold  = 1.00e-10
  Integral threshold = 0.00e+00

  ==> Primary Basis <==

  Basis Set: ANONYMOUS23C08CE2
    Blend: 6-31G_2DFP_
    Number of shells: 44
    Number of basis function: 108
    Number of Cartesian functions: 118
    Spherical Harmonics?: true
    Max angular momentum: 3

  ==> DFT Potential <==

   => Composite Functional: B3LYP <= 

    B3LYP Hyb-GGA Exchange-Correlation Functional

    P. J. Stephens, F. J. Devlin, C. F. Chabalowski, and M. J. Frisch, J. Phys. Chem. 98, 11623 (1994)

    Deriv               =              1
    GGA                 =           TRUE
    Meta                =          FALSE

    Exchange Hybrid     =           TRUE
    MP2 Hybrid          =          FALSE

   => Exchange Functionals <=

    0.0800   Slater exchange
    0.7200         Becke 88

   => Exact (HF) Exchange <=

    0.2000               HF 

   => Correlation Functionals <=

    0.1900   Vosko, Wilk & Nusair (VWN5_RPA)
    0.8100   Lee, Yang & Parr

   => Molecular Quadrature <=

    Radial Scheme          =       TREUTLER
    Pruning Scheme         =           NONE
    Nuclear Scheme         =       TREUTLER

    BS radius alpha        =              1
    Pruning alpha          =              1
    Radial Points          =             99
    Spherical Points       =           1202
    Total Points           =         905017
    Total Blocks           =           6089
    Max Points             =            256
    Max Functions          =            107
    Weights Tolerance      =       1.00E-15

   => Loading Basis Set <=

    Name: (ANONYMOUS23C08CE2 AUX)
    Role: JKFIT
    Keyword: DF_BASIS_SCF
    atoms 1-2 entry SI         line   737 file /opt/psi/4/master/share/psi4/basis/def2-universal-jkfit.gbs 
    atoms 3-8 entry H          line    18 file /opt/psi/4/master/share/psi4/basis/def2-universal-jkfit.gbs 

  ==> Integral Setup <==

  DFHelper Memory: AOs need 0.035 GiB; user supplied 7.572 GiB. Using in-core AOs.

  ==> MemDFJK: Density-Fitted J/K Matrices <==

    J tasked:                   Yes
    K tasked:                   Yes
    wK tasked:                   No
    OpenMP threads:               4
    Memory [MiB]:              7753
    Algorithm:                 Core
    Schwarz Cutoff:           1E-12
    Mask sparsity (%):       2.0233
    Fitting Condition:        1E-10

   => Auxiliary Basis Set <=

  Basis Set: (ANONYMOUS23C08CE2 AUX)
    Blend: DEF2-UNIVERSAL-JKFIT
    Number of shells: 112
    Number of basis function: 364
    Number of Cartesian functions: 430
    Spherical Harmonics?: true
    Max angular momentum: 4

  Cached 100.0% of DFT collocation blocks in 2.207 [GiB].

  Minimum eigenvalue in the overlap matrix is 2.8068030984E-03.
  Reciprocal condition number of the overlap matrix is 6.4660156409E-04.
    Using symmetric orthogonalization.

  ==> Pre-Iterations <==

  SCF Guess: Superposition of Atomic Densities via on-the-fly atomic UHF (no occupation information).

   -------------------------
    Irrep   Nso     Nmo    
   -------------------------
     A'        68      68 
     A"        40      40 
   -------------------------
    Total     108     108
   -------------------------

  ==> Iterations <==

                           Total Energy        Delta E     RMS |[F,P]|

   @DF-RKS iter SAD:  -582.06867527981240   -5.82069e+02   0.00000e+00 
   @DF-RKS iter   1:  -582.53988087843857   -4.71206e-01   3.18638e-03 DIIS
   @DF-RKS iter   2:  -582.57024282338762   -3.03619e-02   2.24606e-03 DIIS
   @DF-RKS iter   3:  -582.59469378501672   -2.44510e-02   2.70347e-04 DIIS
   @DF-RKS iter   4:  -582.59503748784789   -3.43703e-04   4.89127e-05 DIIS
   @DF-RKS iter   5:  -582.59504849520931   -1.10074e-05   4.24017e-06 DIIS
   @DF-RKS iter   6:  -582.59504856609976   -7.08905e-08   1.99711e-07 DIIS
   @DF-RKS iter   7:  -582.59504856632611   -2.26350e-10   3.58496e-08 DIIS
   @DF-RKS iter   8:  -582.59504856633168   -5.57066e-12   1.37422e-08 DIIS
   @DF-RKS iter   9:  -582.59504856633271   -1.02318e-12   3.96042e-10 DIIS
   @DF-RKS iter  10:  -582.59504856633248    2.27374e-13   8.81075e-11 DIIS
  Energy and wave function converged.


  ==> Post-Iterations <==

    Orbital Energies [Eh]
    ---------------------

    Doubly Occupied:                                                      

       1Ap   -66.117355     2Ap   -66.117298     3Ap    -5.275920  
       4Ap    -5.275806     5Ap    -3.634114     1App   -3.633816  
       6Ap    -3.633813     7Ap    -3.633707     2App   -3.633705  
       8Ap    -3.633627     9Ap    -0.568109    10Ap    -0.506863  
       3App   -0.364784    11Ap    -0.364779    12Ap    -0.341241  
       4App   -0.341238    13Ap    -0.296427  

    Virtual:                                                              

      14Ap     0.017196     5App    0.017199    15Ap     0.021212  
      16Ap     0.073640    17Ap     0.074469     6App    0.074473  
      18Ap     0.124056    19Ap     0.155415    20Ap     0.195697  
       7App    0.195698    21Ap     0.234092     8App    0.234177  
      22Ap     0.234880    23Ap     0.241786     9App    0.241791  
      24Ap     0.272381    25Ap     0.388173    10App    0.397509  
      26Ap     0.397511    11App    0.454931    27Ap     0.454931  
      28Ap     0.461632    12App    0.466432    29Ap     0.466432  
      30Ap     0.623286    13App    0.638488    14App    0.645682  
      31Ap     0.701869    15App    0.701870    32Ap     0.719833  
      16App    0.719839    33Ap     0.794475    17App    0.794475  
      34Ap     0.801006    35Ap     0.836678    36Ap     0.886077  
      18App    0.886086    37Ap     0.895641    38Ap     0.915706  
      39Ap     0.958824    19App    0.958828    20App    1.012713  
      40Ap     1.012720    41Ap     1.102427    21App    1.206682  
      42Ap     1.206685    22App    1.245031    43Ap     1.245844  
      23App    1.246050    44Ap     1.291523    45Ap     1.361143  
      24App    1.392625    25App    1.394202    46Ap     1.394207  
      47Ap     1.406439    26App    1.448908    48Ap     1.448919  
      49Ap     1.640709    27App    1.708609    50Ap     1.708948  
      51Ap     1.718314    28App    1.718685    52Ap     1.747832  
      53Ap     1.772090    29App    1.772093    54Ap     1.815532  
      30App    1.821255    55Ap     1.821263    56Ap     1.948371  
      31App    1.948372    57Ap     2.128762    58Ap     2.281849  
      32App    2.281854    33App    3.803811    34App    3.806459  
      35App    3.811776    59Ap     3.811776    60Ap     3.820802  
      36App    3.820802    61Ap     3.877285    62Ap     3.884229  
      37App    3.884235    38App    3.903052    63Ap     3.903056  
      64Ap     3.921882    65Ap     4.017567    66Ap     4.060908  
      39App    4.060983    40App    4.082372    67Ap     4.082430  
      68Ap     4.092455  

    Final Occupation by Irrep:
             Ap   App 
    DOCC [    13,    4 ]

  @DF-RKS Final Energy:  -582.59504856633248

   => Energetics <=

    Nuclear Repulsion Energy =             90.6480310945308929
    One-Electron Energy =                -986.4134969016088235
    Two-Electron Energy =                 348.7034559451108748
    DFT Exchange-Correlation Energy =     -35.5330387043655307
    Empirical Dispersion Energy =           0.0000000000000000
    VV10 Nonlocal Energy =                  0.0000000000000000
    Total Energy =                       -582.5950485663324798

Computation Completed


Properties will be evaluated at   0.000000,   0.000000,   0.000000 [a0]

Properties computed using the SCF density matrix

  Nuclear Dipole Moment: [e a0]
     X:    -0.0026      Y:     0.0096      Z:     0.0000

  Electronic Dipole Moment: [e a0]
     X:     0.0048      Y:    -0.0159      Z:     0.0000

  Dipole Moment: [e a0]
     X:     0.0022      Y:    -0.0064      Z:     0.0000     Total:     0.0067

  Dipole Moment: [D]
     X:     0.0056      Y:    -0.0162      Z:     0.0000     Total:     0.0171


*** tstop() called on n049 at Wed Jan  5 14:36:11 2022
Module time:
	user time   =      33.92 seconds =       0.57 minutes
	system time =       0.70 seconds =       0.01 minutes
	total time  =          9 seconds =       0.15 minutes
Total time:
	user time   =      33.92 seconds =       0.57 minutes
	system time =       0.70 seconds =       0.01 minutes
	total time  =          9 seconds =       0.15 minutes
Grab this energy -582.5950485663325
    Psi4 stopped on: Wednesday, 05 January 2022 02:36PM
    Psi4 wall time for execution: 0:00:09.14

*** Psi4 exiting successfully. Buy a developer a beer!
