
 Primary working directories    : /tmp/943419.189.gen5.q
 Secondary working directories  : /tmp/943419.189.gen5.q
 Wavefunction directory         : /home/vulcan/mel64643/wfu/
 Main file repository           : /tmp/943419.189.gen5.q/

 ARCHNAME  : Linux/x86_64
 FC        : /opt/intel/compilers_and_libraries_2016.1.150/linux/bin/intel64/ifort
 FCVERSION : 16.0.1
 BLASLIB   : -mkl
 id        : ccgc

 Nodes     nprocs
 n070         1
 ga_uses_ma=false, calling ma_init with nominal heap.
 GA-space will be limited to   8.0 MW (determined by -G option)

 Using customized tuning parameters: mindgm=10; mindgv=16; mindgc=4; mindgr=1; noblas=0; mincuda=1000; minvec=7
 default implementation of scratch files=df  

 ***,Optimization of nh3_nitrosmethane
 memory,1000,m
 gthresh,energy=1.0d-12,orbital=1.0d-10,oneint=1.0d-16,twoint=1.0d-16,optgrad=1.0d-6,compress=1.0d-13
 geomtyp=xyz
 
 bohr
 geometry = {
  N   -5.2236040680   -0.1846952940    0.0008992865
  H   -6.2988164930    0.2275160269   -1.5335505304
  H   -3.7592673501    1.0583916455   -0.0023017629
  H   -6.2970492319    0.2333360147    1.5350118892
  H   -0.9240071080   -2.3957369355   -0.0039489895
  H    1.8812565404   -3.4267153765   -1.6637242790
  H    1.8840093088   -3.4358242715    1.6696527596
  C    1.1364820242   -2.4667451732   -0.0025455162
  N    2.2640496221    0.0914251269    0.0001733729
  O    0.7010652454    1.7761052457    0.0003337699
 }
 
 basis=aug-cc-pvtz
 {rhf;maxit,200}
 {mp2}

 Variables initialized (661), CPU time= 0.00 sec
 Commands  initialized (458), CPU time= 0.01 sec, 486 directives.
 Default parameters read. Elapsed time= 0.10 sec

 Checking input...
 Passed
1


                                         ***  PROGRAM SYSTEM MOLPRO  ***
                         Copyright, University College Cardiff Consultants Limited, 2008

                                    Version 2010.1 linked May 16 2016 07:17:05


 **********************************************************************************************************************************
 LABEL *   Optimization of nh3_nitrosmethane                                             
 Linux-4.4.3/n070(x86_64) 64 bit mpp version                                             DATE: 25-Oct-23          TIME: 22:13:22  
 **********************************************************************************************************************************

 SHA1:             9e8077add272b0f3cad6f7df79ec5211205f459d
 **********************************************************************************************************************************

 THRESHOLDS:

 ZERO    =  1.00D-12  ONEINT  =  1.00D-16  TWOINT  =  1.00D-16  PREFAC  =  1.00D-14  LOCALI  =  1.00D-09  EORDER  =  1.00D-04
 ENERGY  =  1.00D-12  ETEST   =  0.00D+00  EDENS   =  0.00D+00  THRDEDEF=  1.00D-06  GRADIENT=  1.00D-02  STEP    =  1.00D-03
 ORBITAL =  1.00D-10  CIVEC   =  1.00D-05  COEFF   =  1.00D-04  PRINTCI =  5.00D-02  PUNCHCI =  9.90D+01  OPTGRAD =  1.00D-06
 OPTENERG=  1.00D-06  OPTSTEP =  3.00D-04  THRGRAD =  1.00D-10  COMPRESS=  1.00D-13  VARMIN  =  1.00D-07  VARMAX  =  1.00D-03
 THRDOUB =  0.00D+00  THRDIV  =  1.00D-05  THRRED  =  1.00D-07  THRPSP  =  1.00D+00  THRDC   =  1.00D-10  THRCS   =  1.00D-10
 THRNRM  =  1.00D-08  THREQ   =  0.00D+00  THRDE   =  1.00D+00  THRREF  =  1.00D-05  SPARFAC =  1.00D+00  THRDLP  =  1.00D-07
 THRDIA  =  1.00D-10  THRDLS  =  1.00D-07  THRGPS  =  0.00D+00  THRKEX  =  0.00D+00  THRDIS  =  2.00D-01  THRVAR  =  1.00D-10
 THRLOC  =  1.00D-06  THRGAP  =  1.00D-06  THRLOCT = -1.00D+00  THRGAPT = -1.00D+00  THRORB  =  1.00D-06  THRMLTP =  0.00D+00
 THRCPQCI=  1.00D-10  KEXTA   =  0.00D+00  THRCOARS=  0.00D+00  SYMTOL  =  1.00D-06  GRADTOL =  1.00D-06  THROVL  =  1.00D-08
 THRORTH =  1.00D-08  GRID    =  1.00D-06  GRIDMAX =  1.00D-03  DTMAX   =  0.00D+00

 SETTING GEOMTYP        =    XYZ
 ZUNIT=BOHR
 

 Variable memory set to 1000000000 words,  buffer space   230000 words

 SETTING BASIS          =    AUG-CC-PVTZ


 Recomputing integrals since basis changed


 Using spherical harmonics

 Library entry N      S aug-cc-pVTZ          selected for orbital group  1
 Library entry N      P aug-cc-pVTZ          selected for orbital group  1
 Library entry N      D aug-cc-pVTZ          selected for orbital group  1
 Library entry N      F aug-cc-pVTZ          selected for orbital group  1
 Library entry H      S aug-cc-pVTZ          selected for orbital group  2
 Library entry H      P aug-cc-pVTZ          selected for orbital group  2
 Library entry H      D aug-cc-pVTZ          selected for orbital group  2
 Library entry C      S aug-cc-pVTZ          selected for orbital group  3
 Library entry C      P aug-cc-pVTZ          selected for orbital group  3
 Library entry C      D aug-cc-pVTZ          selected for orbital group  3
 Library entry C      F aug-cc-pVTZ          selected for orbital group  3
 Library entry O      S aug-cc-pVTZ          selected for orbital group  5
 Library entry O      P aug-cc-pVTZ          selected for orbital group  5
 Library entry O      D aug-cc-pVTZ          selected for orbital group  5
 Library entry O      F aug-cc-pVTZ          selected for orbital group  5

1PROGRAM * SEWARD (Integral evaluation for generally contracted gaussian basis sets)     Author: Roland Lindh, 1990

 Geometry written to block  1 of record 700


 Point group  C1  



 ATOMIC COORDINATES

 NR  ATOM    CHARGE       X              Y              Z

   1  N       7.00   -5.223604068   -0.184695294    0.000899286
   2  H       1.00   -6.298816493    0.227516027   -1.533550530
   3  H       1.00   -3.759267350    1.058391645   -0.002301763
   4  H       1.00   -6.297049232    0.233336015    1.535011889
   5  H       1.00   -0.924007108   -2.395736935   -0.003948989
   6  H       1.00    1.881256540   -3.426715376   -1.663724279
   7  H       1.00    1.884009309   -3.435824272    1.669652760
   8  C       6.00    1.136482024   -2.466745173   -0.002545516
   9  N       7.00    2.264049622    0.091425127    0.000173373
  10  O       8.00    0.701065245    1.776105246    0.000333770

 Bond lengths in Bohr (Angstrom)

 1-2  1.918472354  1-3  1.920822066  1-4  1.918472354  5-8  2.061712784  6-8  2.058092989
     ( 1.015211846)     ( 1.016455260)     ( 1.015211846)     ( 1.091011417)     ( 1.089095904)

  7- 8  2.072235125   8- 9  2.795648648   9-10  2.298057286
       ( 1.096579600)       ( 1.479393549)       ( 1.216079541)

 Bond angles

  2-1-3  106.67095361   2-1-4  106.21107446   3-1-4  106.67095368   5-8-6  112.15889956

  5-8-7  112.15889691   5-8-9  111.81278790   6-8-7  107.61734964   6-8-9  106.35838725

  7- 8- 9  106.35838583   8- 9-10  113.35946297

 NUCLEAR CHARGE:                   34
 NUMBER OF PRIMITIVE AOS:         430
 NUMBER OF SYMMETRY AOS:          382
 NUMBER OF CONTRACTIONS:          322   ( 322A   )
 NUMBER OF CORE ORBITALS:           4   (   4A   )
 NUMBER OF VALENCE ORBITALS:       22   (  22A   )


 NUCLEAR REPULSION ENERGY  117.49621428


 Eigenvalues of metric

         1 0.330E-04 0.528E-04 0.820E-04 0.105E-03 0.118E-03 0.169E-03 0.232E-03 0.237E-03


 Contracted 2-electron integrals neglected if value below      1.0D-16
 AO integral compression algorithm  1   Integral accuracy      1.0D-16

     9657.647 MB (compressed) written to integral file ( 80.1%)

     Node minimum: 9657.647 MB, node maximum: 9657.647 MB


 NUMBER OF SORTED TWO-ELECTRON INTEGRALS: 1352182006.     BUFFER LENGTH:  32768
 NUMBER OF SEGMENTS:  43  SEGMENT LENGTH:   31998710      RECORD LENGTH: 524288

 Memory used in sort:      32.56 MW

 SORT1 READ  1506454996. AND WROTE  1291489694. INTEGRALS IN   3717 RECORDS. CPU TIME:    16.07 SEC, REAL TIME:    24.31 SEC
 SORT2 READ  1291489694. AND WROTE  1352182006. INTEGRALS IN  36841 RECORDS. CPU TIME:     9.78 SEC, REAL TIME:    15.43 SEC

 FILE SIZES:   FILE 1:  8775.2 MBYTE,  FILE 4: 15590.3 MBYTE,   TOTAL:  24365.4 MBYTE

 OPERATOR DM      FOR CENTER  0  COORDINATES:    0.000000    0.000000    0.000000


 **********************************************************************************************************************************
 DATASETS  * FILE   NREC   LENGTH (MB)   RECORD NAMES
              1      19     8776.40       500      610      700      900      950      970     1000      129      960     1100   
                                          VAR    BASINP    GEOM    SYMINP    ZMAT    AOBASIS   BASIS     P2S    ABASIS      S 
                                         1400     1410     1200     1210     1080     1600     1650     1300     1700   
                                           T        V       H0       H01     AOSYM     SMH    MOLCAS    ERIS     OPER   

 PROGRAMS   *        TOTAL       INT
 CPU TIMES  *        67.15     67.03
 REAL TIME  *        87.03 SEC
 DISK USED  *        34.02 GB      
 GA USED    *         0.00 MB       (max)       0.00 MB       (current)
 **********************************************************************************************************************************

1PROGRAM * RHF-SCF (CLOSED SHELL)       Authors: W. Meyer, H.-J. Werner


 NUMBER OF ELECTRONS:      17+   17-    SPACE SYMMETRY=1    SPIN SYMMETRY: Singlet 
 CONVERGENCE THRESHOLDS:    1.00E-10 (Density)    1.00E-13 (Energy)
 MAX. NUMBER OF ITERATIONS:      200
 INTERPOLATION TYPE:            DIIS
 INTERPOLATION STEPS:              2 (START)      1 (STEP)
 LEVEL SHIFTS:                  0.00 (CLOSED)  0.00 (OPEN) 



 Orbital guess generated from atomic densities. Full valence occupancy:   26

 Molecular orbital dump at record        2100.2

 ITERATION    DDIFF          GRAD             ENERGY        2-EL.EN.            DIPOLE MOMENTS         DIIS
    1      0.000D+00      0.000D+00      -225.01803394    393.722883    0.07170   -0.61789    0.00138    0
    2      0.000D+00      0.279D-02      -225.07839110    393.125738   -0.57444   -0.38260   -0.00188    1
    3      0.488D-02      0.201D-02      -225.11374408    393.735778   -0.23157   -0.56311   -0.00208    2
    4      0.204D-02      0.389D-03      -225.11600017    393.593862   -0.30738   -0.46480   -0.00234    3
    5      0.554D-03      0.158D-03      -225.11643708    393.602115   -0.30420   -0.49265   -0.00253    4
    6      0.233D-03      0.388D-04      -225.11648444    393.627203   -0.31008   -0.48871   -0.00260    5
    7      0.827D-04      0.148D-04      -225.11649130    393.611530   -0.31192   -0.48860   -0.00260    6
    8      0.339D-04      0.605D-05      -225.11649243    393.618195   -0.31299   -0.48843   -0.00260    7
    9      0.133D-04      0.268D-05      -225.11649269    393.616717   -0.31331   -0.48809   -0.00260    8
   10      0.740D-05      0.816D-06      -225.11649272    393.616416   -0.31342   -0.48788   -0.00260    8
   11      0.241D-05      0.265D-06      -225.11649272    393.616538   -0.31344   -0.48779   -0.00260    8
   12      0.732D-06      0.857D-07      -225.11649272    393.616488   -0.31344   -0.48776   -0.00260    8
   13      0.287D-06      0.300D-07      -225.11649272    393.616482   -0.31344   -0.48776   -0.00260    8
   14      0.734D-07      0.148D-07      -225.11649272    393.616485   -0.31344   -0.48776   -0.00260    9
   15      0.333D-07      0.371D-08      -225.11649272    393.616485   -0.31344   -0.48776   -0.00260    8
   16      0.102D-07      0.273D-08      -225.11649272    393.616485   -0.31344   -0.48776   -0.00260    7
   17      0.152D-07      0.159D-08      -225.11649272    393.616485   -0.31344   -0.48776   -0.00260    8
   18      0.154D-07      0.522D-09      -225.11649272    393.616485   -0.31344   -0.48776   -0.00260    9
   19      0.392D-08      0.144D-09      -225.11649272    393.616485   -0.31344   -0.48776   -0.00260    9
   20      0.680D-09      0.355D-10      -225.11649272    393.616485   -0.31344   -0.48776   -0.00260    9
   21      0.118D-09      0.121D-10      -225.11649272    393.616485   -0.31344   -0.48776   -0.00260    9
   22      0.313D-10      0.462D-11      -225.11649272    393.616485   -0.31344   -0.48776   -0.00260    9
   23      0.200D-10      0.170D-11      -225.11649272    393.616485   -0.31344   -0.48776   -0.00260    9
   24      0.181D-10      0.777D-12      -225.11649272    393.616485   -0.31344   -0.48776   -0.00260    8
   25      0.112D-10      0.421D-12      -225.11649272    393.616485   -0.31344   -0.48776   -0.00260    8
   26      0.123D-10      0.249D-12      -225.11649272    393.616485   -0.31344   -0.48776   -0.00260    9
   27      0.916D-11      0.204D-12      -225.11649272    393.616485   -0.31344   -0.48776   -0.00260    9
   28      0.798D-11      0.179D-12      -225.11649272    393.616485   -0.31344   -0.48776   -0.00260    9
   29      0.457D-11      0.204D-12      -225.11649272    393.616485   -0.31344   -0.48776   -0.00260    9
   30      0.371D-11      0.152D-12      -225.11649272    393.616485   -0.31344   -0.48776   -0.00260    9
   31      0.218D-11      0.189D-12      -225.11649272    393.616485   -0.31344   -0.48776   -0.00260    9
   32      0.192D-11      0.128D-12      -225.11649272    393.616485   -0.31344   -0.48776   -0.00260    9
   33      0.233D-11      0.130D-12      -225.11649272    393.616485   -0.31344   -0.48776   -0.00260    9
   34      0.220D-11      0.137D-12      -225.11649272    393.616485   -0.31344   -0.48776   -0.00260    9
   35      0.235D-11      0.135D-12      -225.11649272    393.616485   -0.31344   -0.48776   -0.00260    9
   36      0.203D-11      0.159D-12      -225.11649272    393.616485   -0.31344   -0.48776   -0.00260    9
   37      0.140D-11      0.111D-12      -225.11649272    393.616485   -0.31344   -0.48776   -0.00260    9
   38      0.184D-11      0.140D-12      -225.11649272    393.616485   -0.31344   -0.48776   -0.00260    9
   39      0.148D-11      0.141D-12      -225.11649272    393.616485   -0.31344   -0.48776   -0.00260    9
   40      0.719D-12      0.148D-12      -225.11649272    393.616485   -0.31344   -0.48776   -0.00260    9
   41      0.209D-11      0.151D-12      -225.11649272    393.616485   -0.31344   -0.48776   -0.00260    0

 Final occupancy:  17

 !RHF STATE 1.1 Energy               -225.116492722001
 Nuclear energy                       117.49621428
 One-electron energy                 -539.42094947
 Two-electron energy                  196.80824246
 Virial quotient                       -1.00198575
 !RHF STATE 1.1 Dipole moment          -0.31344359    -0.48775565    -0.00259884
 Dipole moment /Debye                  -0.79664195    -1.23967001    -0.00660516

 Orbital energies:

         1.1          2.1          3.1          4.1          5.1          6.1          7.1          8.1          9.1         10.1
    -20.630756   -15.705772   -15.538888   -11.263688    -1.509701    -1.138786    -1.075628    -0.860466    -0.691822    -0.675521

        11.1         12.1         13.1         14.1         15.1         16.1         17.1         18.1         19.1
     -0.636701    -0.624298    -0.623821    -0.555917    -0.534119    -0.429233    -0.407114     0.028798     0.038551


 **********************************************************************************************************************************
 DATASETS  * FILE   NREC   LENGTH (MB)   RECORD NAMES
              1      19     8776.40       500      610      700      900      950      970     1000      129      960     1100   
                                          VAR    BASINP    GEOM    SYMINP    ZMAT    AOBASIS   BASIS     P2S    ABASIS      S 
                                         1400     1410     1200     1210     1080     1600     1650     1300     1700   
                                           T        V       H0       H01     AOSYM     SMH    MOLCAS    ERIS     OPER   

              2       3        2.54       700     1000     2100   
                                         GEOM     BASIS     RHF  

 PROGRAMS   *        TOTAL       RHF       INT
 CPU TIMES  *       589.15    521.99     67.03
 REAL TIME  *       650.83 SEC
 DISK USED  *        34.02 GB      
 GA USED    *         0.00 MB       (max)       0.00 MB       (current)
 **********************************************************************************************************************************


1PROGRAM * MP2 (Closed-shell)     Authors: C. Hampel, H.-J. Werner, 1991, M. Deegan, P.J. Knowles, 1992


 Convergence thresholds:  THRVAR = 1.00D-08  THRDEN = 1.00D-12

 Number of core orbitals:           4 (   4 )
 Number of closed-shell orbitals:  13 (  13 )
 Number of external orbitals:     305 ( 305 )

 Molecular orbitals read from record     2100.2  Type=RHF/CANONICAL (state 1.1)

 Number of N-1 electron functions:              13
 Number of N-2 electron functions:              91
 Number of singly external CSFs:              3965
 Number of doubly external CSFs:           7862595
 Total number of CSFs:                     7866561

 Length of J-op  integral file:               0.00 MB
 Length of K-op  integral file:               7.17 MB

 Integral transformation finished. Total CPU:  26.63 sec, npass=  1  Memory used:  17.90 MW

 Memory needed for MP2:                      0.51 MW

 SCS-MP2 correlation energy:           -0.858969075857   (PS=  1.200000  PT=  0.333333)
 SCS-MP2 total energy:               -225.975461797858


  Reference energy                   -225.116492722001
  MP2 singlet pair energy              -0.557007824020
  MP2 triplet pair energy              -0.306256639875
  MP2 correlation energy               -0.863264463895

 !MP2 total energy                   -225.979757185896


 **********************************************************************************************************************************
 DATASETS  * FILE   NREC   LENGTH (MB)   RECORD NAMES
              1      20     8891.64       500      610      700      900      950      970     1000      129      960     1100   
                                          VAR    BASINP    GEOM    SYMINP    ZMAT    AOBASIS   BASIS     P2S    ABASIS      S 
                                         1400     1410     1200     1210     1080     1600     1650     1300     1700     1380   
                                           T        V       H0       H01     AOSYM     SMH    MOLCAS    ERIS     OPER     JKOP   

              2       3        2.54       700     1000     2100   
                                         GEOM     BASIS     RHF  

 PROGRAMS   *        TOTAL       MP2       RHF       INT
 CPU TIMES  *       616.60     27.45    521.99     67.03
 REAL TIME  *       679.54 SEC
 DISK USED  *        34.02 GB      
 GA USED    *         0.00 MB       (max)       0.00 MB       (current)
 **********************************************************************************************************************************

        MP2             RHF-SCF 
   -225.97975719   -225.11649272
 **********************************************************************************************************************************
 Variable memory released
