
 Primary working directories    : /tmp/943217.510.gen6.q
 Secondary working directories  : /tmp/943217.510.gen6.q
 Wavefunction directory         : /home/vulcan/mel64643/wfu/
 Main file repository           : /tmp/943217.510.gen6.q/

 ARCHNAME  : Linux/x86_64
 FC        : /opt/intel/compilers_and_libraries_2016.1.150/linux/bin/intel64/ifort
 FCVERSION : 16.0.1
 BLASLIB   : -mkl
 id        : ccgc

 Nodes     nprocs
 n077         1
 ga_uses_ma=false, calling ma_init with nominal heap.
 GA-space will be limited to   8.0 MW (determined by -G option)

 Using customized tuning parameters: mindgm=10; mindgv=16; mindgc=4; mindgr=1; noblas=0; mincuda=1000; minvec=7
 default implementation of scratch files=df  

 ***,Optimization of formic acid
 memory,1000,m
 gthresh,energy=1.0d-12,orbital=1.0d-10,oneint=1.0d-16,twoint=1.0d-16,optgrad=1.0d-6,compress=1.0d-13
 geomtyp=xyz
 
 bohr
 geometry = {
  C   -3.5001610768   -0.8327909235    0.0047009147
  O   -3.0939056317    1.6206642195    0.0028375728
  O   -1.8849419513   -2.4832401582    0.0008500190
  H   -5.5215712060   -1.2652899572   -0.0043176987
  H   -1.2417474830    1.9520193466   -0.0022719069
  C    3.5010464317    0.8287525660   -0.0046678582
  O    3.0947906898   -1.6247026101   -0.0029160855
  O    1.8858274277    2.4792018156   -0.0007726443
  H    5.5180303773    1.2814434542    0.0044086112
  H    1.2426324223   -1.9560577529    0.0021490760
 }
 
 basis=VDZ
 {rhf;maxit,200}
 {ccsd(t);maxit,200}

 Variables initialized (661), CPU time= 0.00 sec
 Commands  initialized (458), CPU time= 0.01 sec, 486 directives.
 Default parameters read. Elapsed time= 0.04 sec

 Checking input...
 Passed
1


                                         ***  PROGRAM SYSTEM MOLPRO  ***
                         Copyright, University College Cardiff Consultants Limited, 2008

                                    Version 2010.1 linked May 16 2016 07:17:05


 **********************************************************************************************************************************
 LABEL *   Optimization of formic acid                                                   
 Linux-4.4.3/n077(x86_64) 64 bit mpp version                                             DATE: 24-Oct-23          TIME: 12:04:48  
 **********************************************************************************************************************************

 SHA1:             9e8077add272b0f3cad6f7df79ec5211205f459d
 **********************************************************************************************************************************

 THRESHOLDS:

 ZERO    =  1.00D-12  ONEINT  =  1.00D-16  TWOINT  =  1.00D-16  PREFAC  =  1.00D-14  LOCALI  =  1.00D-09  EORDER  =  1.00D-04
 ENERGY  =  1.00D-12  ETEST   =  0.00D+00  EDENS   =  0.00D+00  THRDEDEF=  1.00D-06  GRADIENT=  1.00D-02  STEP    =  1.00D-03
 ORBITAL =  1.00D-10  CIVEC   =  1.00D-05  COEFF   =  1.00D-04  PRINTCI =  5.00D-02  PUNCHCI =  9.90D+01  OPTGRAD =  1.00D-06
 OPTENERG=  1.00D-06  OPTSTEP =  3.00D-04  THRGRAD =  1.00D-10  COMPRESS=  1.00D-13  VARMIN  =  1.00D-07  VARMAX  =  1.00D-03
 THRDOUB =  0.00D+00  THRDIV  =  1.00D-05  THRRED  =  1.00D-07  THRPSP  =  1.00D+00  THRDC   =  1.00D-10  THRCS   =  1.00D-10
 THRNRM  =  1.00D-08  THREQ   =  0.00D+00  THRDE   =  1.00D+00  THRREF  =  1.00D-05  SPARFAC =  1.00D+00  THRDLP  =  1.00D-07
 THRDIA  =  1.00D-10  THRDLS  =  1.00D-07  THRGPS  =  0.00D+00  THRKEX  =  0.00D+00  THRDIS  =  2.00D-01  THRVAR  =  1.00D-10
 THRLOC  =  1.00D-06  THRGAP  =  1.00D-06  THRLOCT = -1.00D+00  THRGAPT = -1.00D+00  THRORB  =  1.00D-06  THRMLTP =  0.00D+00
 THRCPQCI=  1.00D-10  KEXTA   =  0.00D+00  THRCOARS=  0.00D+00  SYMTOL  =  1.00D-06  GRADTOL =  1.00D-06  THROVL  =  1.00D-08
 THRORTH =  1.00D-08  GRID    =  1.00D-06  GRIDMAX =  1.00D-03  DTMAX   =  0.00D+00

 SETTING GEOMTYP        =    XYZ
 ZUNIT=BOHR
 

 Variable memory set to 1000000000 words,  buffer space   230000 words

 SETTING BASIS          =    VDZ


 Recomputing integrals since basis changed


 Using spherical harmonics

 Library entry C      S cc-pVDZ              selected for orbital group  1
 Library entry C      P cc-pVDZ              selected for orbital group  1
 Library entry C      D cc-pVDZ              selected for orbital group  1
 Library entry O      S cc-pVDZ              selected for orbital group  2
 Library entry O      P cc-pVDZ              selected for orbital group  2
 Library entry O      D cc-pVDZ              selected for orbital group  2
 Library entry H      S cc-pVDZ              selected for orbital group  3
 Library entry H      P cc-pVDZ              selected for orbital group  3

1PROGRAM * SEWARD (Integral evaluation for generally contracted gaussian basis sets)     Author: Roland Lindh, 1990

 Geometry written to block  1 of record 700


 Point group  C1  



 ATOMIC COORDINATES

 NR  ATOM    CHARGE       X              Y              Z

   1  C       6.00   -3.500161077   -0.832790923    0.004700915
   2  O       8.00   -3.093905632    1.620664220    0.002837573
   3  O       8.00   -1.884941951   -2.483240158    0.000850019
   4  H       1.00   -5.521571206   -1.265289957   -0.004317699
   5  H       1.00   -1.241747483    1.952019347   -0.002271907
   6  C       6.00    3.501046432    0.828752566   -0.004667858
   7  O       8.00    3.094790690   -1.624702610   -0.002916085
   8  O       8.00    1.885827428    2.479201816   -0.000772644
   9  H       1.00    5.518030377    1.281443454    0.004408611
  10  H       1.00    1.242632422   -1.956057753    0.002149076

 Bond lengths in Bohr (Angstrom)

 1-2  2.486863305  1-3  2.309313822  1-4  2.067180607  2-5  1.881571719  6-7  2.486863305
     ( 1.315991383)     ( 1.222036243)     ( 1.093904864)     ( 0.995684871)     ( 1.315991383)

  6- 8  2.309313822   6- 9  2.067180606   7-10  1.881571719
       ( 1.222036243)       ( 1.093904864)       ( 0.995684871)

 Bond angles

  1-2-5  109.54509197   2-1-3  126.21591200   2-1-4  111.47845352   3-1-4  122.30416516

  6- 7-10  109.54509197   7- 6- 8  126.21591217   7- 6- 9  112.05141290   8- 6- 9  121.73120894

 NUCLEAR CHARGE:                   48
 NUMBER OF PRIMITIVE AOS:         190
 NUMBER OF SYMMETRY AOS:          184
 NUMBER OF CONTRACTIONS:          104   ( 104A   )
 NUMBER OF CORE ORBITALS:           6   (   6A   )
 NUMBER OF VALENCE ORBITALS:       28   (  28A   )


 NUCLEAR REPULSION ENERGY  235.53072742


 Eigenvalues of metric

         1 0.818E-02 0.871E-02 0.138E-01 0.140E-01 0.165E-01 0.167E-01 0.299E-01 0.307E-01


 Contracted 2-electron integrals neglected if value below      1.0D-16
 AO integral compression algorithm  1   Integral accuracy      1.0D-16

     103.285 MB (compressed) written to integral file ( 77.6%)

     Node minimum: 103.285 MB, node maximum: 103.285 MB


 NUMBER OF SORTED TWO-ELECTRON INTEGRALS:   14908530.     BUFFER LENGTH:  32768
 NUMBER OF SEGMENTS:   1  SEGMENT LENGTH:   14908530      RECORD LENGTH: 524288

 Memory used in sort:      15.47 MW

 SORT1 READ    16652603. AND WROTE    14498700. INTEGRALS IN     42 RECORDS. CPU TIME:     0.14 SEC, REAL TIME:     0.23 SEC
 SORT2 READ    14498700. AND WROTE    14908530. INTEGRALS IN    394 RECORDS. CPU TIME:     0.16 SEC, REAL TIME:     0.21 SEC

 FILE SIZES:   FILE 1:    95.0 MBYTE,  FILE 4:   176.2 MBYTE,   TOTAL:    271.2 MBYTE

 OPERATOR DM      FOR CENTER  0  COORDINATES:    0.000000    0.000000    0.000000


 **********************************************************************************************************************************
 DATASETS  * FILE   NREC   LENGTH (MB)   RECORD NAMES
              1      19       95.11       500      610      700      900      950      970     1000      129      960     1100   
                                          VAR    BASINP    GEOM    SYMINP    ZMAT    AOBASIS   BASIS     P2S    ABASIS      S 
                                         1400     1410     1200     1210     1080     1600     1650     1300     1700   
                                           T        V       H0       H01     AOSYM     SMH    MOLCAS    ERIS     OPER   

 PROGRAMS   *        TOTAL       INT
 CPU TIMES  *         1.45      1.41
 REAL TIME  *         1.82 SEC
 DISK USED  *       375.24 MB      
 GA USED    *         0.00 MB       (max)       0.00 MB       (current)
 **********************************************************************************************************************************

1PROGRAM * RHF-SCF (CLOSED SHELL)       Authors: W. Meyer, H.-J. Werner


 NUMBER OF ELECTRONS:      24+   24-    SPACE SYMMETRY=1    SPIN SYMMETRY: Singlet 
 CONVERGENCE THRESHOLDS:    1.00E-10 (Density)    1.00E-13 (Energy)
 MAX. NUMBER OF ITERATIONS:      200
 INTERPOLATION TYPE:            DIIS
 INTERPOLATION STEPS:              2 (START)      1 (STEP)
 LEVEL SHIFTS:                  0.00 (CLOSED)  0.00 (OPEN) 



 Orbital guess generated from atomic densities. Full valence occupancy:   34

 Molecular orbital dump at record        2100.2

 ITERATION    DDIFF          GRAD             ENERGY        2-EL.EN.            DIPOLE MOMENTS         DIIS
    1      0.000D+00      0.000D+00      -377.44986277    747.056084    0.00084   -0.00140   -0.00004    0
    2      0.000D+00      0.110D-01      -377.53761041    744.208095   -0.00020    0.00280   -0.00002    1
    3      0.218D-01      0.684D-02      -377.58425880    746.457320    0.00021    0.00111   -0.00002    2
    4      0.792D-02      0.967D-03      -377.58574929    746.177433    0.00011    0.00133   -0.00002    3
    5      0.155D-02      0.402D-03      -377.58600997    746.203248    0.00010    0.00130   -0.00002    4
    6      0.637D-03      0.115D-03      -377.58605617    746.247537    0.00007    0.00131   -0.00002    5
    7      0.221D-03      0.526D-04      -377.58606752    746.232378    0.00006    0.00131   -0.00002    6
    8      0.132D-03      0.156D-04      -377.58606852    746.237583    0.00005    0.00131   -0.00002    7
    9      0.411D-04      0.529D-05      -377.58606862    746.236130    0.00005    0.00131   -0.00002    8
   10      0.143D-04      0.145D-05      -377.58606863    746.236299    0.00005    0.00131   -0.00002    7
   11      0.404D-05      0.355D-06      -377.58606863    746.236245    0.00005    0.00131   -0.00002    8
   12      0.940D-06      0.103D-06      -377.58606863    746.236266    0.00005    0.00131   -0.00002    7
   13      0.258D-06      0.419D-07      -377.58606863    746.236254    0.00005    0.00131   -0.00002    8
   14      0.747D-07      0.123D-07      -377.58606863    746.236256    0.00005    0.00131   -0.00002    8
   15      0.276D-07      0.472D-08      -377.58606863    746.236257    0.00005    0.00131   -0.00002    8
   16      0.816D-08      0.119D-08      -377.58606863    746.236256    0.00005    0.00131   -0.00002    8
   17      0.200D-08      0.316D-09      -377.58606863    746.236256    0.00005    0.00131   -0.00002    8
   18      0.622D-09      0.121D-09      -377.58606863    746.236256    0.00005    0.00131   -0.00002    8
   19      0.209D-09      0.498D-10      -377.58606863    746.236256    0.00005    0.00131   -0.00002    8
   20      0.922D-10      0.177D-10      -377.58606863    746.236256    0.00005    0.00131   -0.00002    0

 Final occupancy:  24

 !RHF STATE 1.1 Energy               -377.586068633110
 Nuclear energy                       235.53072742
 One-electron energy                 -986.23492416
 Two-electron energy                  373.11812811
 Virial quotient                       -1.00122986
 !RHF STATE 1.1 Dipole moment           0.00004918     0.00131130    -0.00002121
 Dipole moment /Debye                   0.00012501     0.00333278    -0.00005391

 Orbital energies:

         1.1          2.1          3.1          4.1          5.1          6.1          7.1          8.1          9.1         10.1
    -20.613950   -20.613702   -20.575650   -20.575379   -11.412104   -11.412031    -1.482087    -1.469364    -1.383625    -1.369629

        11.1         12.1         13.1         14.1         15.1         16.1         17.1         18.1         19.1         20.1
     -0.914405    -0.878490    -0.763268    -0.728056    -0.719301    -0.688810    -0.638421    -0.628854    -0.615089    -0.573624

        21.1         22.1         23.1         24.1         25.1         26.1
     -0.498413    -0.489558    -0.487744    -0.467778     0.160902     0.165963


 **********************************************************************************************************************************
 DATASETS  * FILE   NREC   LENGTH (MB)   RECORD NAMES
              1      19       95.11       500      610      700      900      950      970     1000      129      960     1100   
                                          VAR    BASINP    GEOM    SYMINP    ZMAT    AOBASIS   BASIS     P2S    ABASIS      S 
                                         1400     1410     1200     1210     1080     1600     1650     1300     1700   
                                           T        V       H0       H01     AOSYM     SMH    MOLCAS    ERIS     OPER   

              2       3        0.64       700     1000     2100   
                                         GEOM     BASIS     RHF  

 PROGRAMS   *        TOTAL       RHF       INT
 CPU TIMES  *         3.52      2.07      1.41
 REAL TIME  *         4.11 SEC
 DISK USED  *       375.24 MB      
 GA USED    *         0.00 MB       (max)       0.00 MB       (current)
 **********************************************************************************************************************************


1PROGRAM * CCSD (Closed-shell coupled cluster)     Authors: C. Hampel, H.-J. Werner, 1991, M. Deegan, P.J. Knowles, 1992


 Convergence thresholds:  THRVAR = 1.00D-08  THRDEN = 1.00D-12

 CCSD(T)     terms to be evaluated (factor= 1.000)


 Number of core orbitals:           6 (   6 )
 Number of closed-shell orbitals:  18 (  18 )
 Number of external orbitals:      80 (  80 )

 Molecular orbitals read from record     2100.2  Type=RHF/CANONICAL (state 1.1)

 Number of N-1 electron functions:              18
 Number of N-2 electron functions:             171
 Number of singly external CSFs:              1440
 Number of doubly external CSFs:           1037520
 Total number of CSFs:                     1038961

 Length of J-op  integral file:               0.00 MB
 Length of K-op  integral file:               0.78 MB
 Length of 3-ext integral record:             0.00 MB

 Memory could be reduced to 13.51 Mwords without degradation in triples

 Integral transformation finished. Total CPU:   0.71 sec, npass=  1  Memory used:  14.06 MW

 Reference energy:                   -377.58606863

 MP2 singlet pair energy:              -0.59906069
 MP2 triplet pair energy:              -0.40690409
 MP2 correlation energy:               -1.00596478
 MP2 total energy:                   -378.59203341

 SCS-MP2 correlation energy:           -0.97205759   (PS=  1.200000  PT=  0.333333)
 SCS-MP2 total energy:               -378.55812623

 ITER.      SQ.NORM     CORR.ENERGY   TOTAL ENERGY   ENERGY CHANGE        DEN1      VAR(S)    VAR(P)  DIIS     TIME
   1      1.28158365    -1.02620642  -378.61227506    -0.02024165     0.01051066  0.10D-01  0.55D-02  1  1     3.45
   2      1.30525235    -1.02808792  -378.61415655    -0.00188149    -0.02505178  0.25D-03  0.10D-02  2  2     6.23
   3      1.31827681    -1.02903709  -378.61510572    -0.00094918    -0.00595411  0.20D-03  0.42D-04  3  3     9.02
   4      1.32361903    -1.02880377  -378.61487240     0.00023332    -0.00175111  0.18D-04  0.71D-05  4  4    11.81
   5      1.32568355    -1.02871415  -378.61478278     0.00008962    -0.00045830  0.11D-05  0.68D-06  5  5    14.60
   6      1.32602717    -1.02869373  -378.61476237     0.00002042    -0.00001561  0.10D-06  0.60D-07  6  6    17.41
   7      1.32609592    -1.02868612  -378.61475475     0.00000762    -0.00000448  0.79D-08  0.89D-08  6  2    20.20
   8      1.32609916    -1.02868697  -378.61475560    -0.00000085     0.00000208  0.16D-08  0.89D-09  6  1    22.99
   9      1.32609994    -1.02868664  -378.61475528     0.00000032     0.00000091  0.33D-09  0.16D-09  6  4    25.78
  10      1.32610175    -1.02868649  -378.61475512     0.00000016    -0.00000062  0.93D-10  0.26D-10  6  3    28.57
  11      1.32610124    -1.02868661  -378.61475525    -0.00000012     0.00000025  0.21D-10  0.54D-11  6  5    31.37
  12      1.32610089    -1.02868663  -378.61475526    -0.00000002     0.00000005  0.27D-11  0.11D-11  6  6    34.16
  13      1.32610056    -1.02868667  -378.61475530    -0.00000004     0.00000013  0.31D-12  0.21D-12  6  1    36.95
  14      1.32610045    -1.02868667  -378.61475531    -0.00000000     0.00000002  0.33D-13  0.24D-13  6  2    39.74
  15      1.32610041    -1.02868668  -378.61475531    -0.00000000     0.00000001  0.76D-14  0.31D-14  6  4    42.54
  16      1.32610040    -1.02868668  -378.61475531    -0.00000000     0.00000000  0.15D-14  0.71D-15  6  5    45.33
  17      1.32610040    -1.02868668  -378.61475531    -0.00000000    -0.00000000  0.34D-15  0.93D-16  6  3    48.13
  18      1.32610040    -1.02868668  -378.61475531    -0.00000000     0.00000000  0.12D-15  0.26D-16  6  6    50.92
  19      1.32610040    -1.02868668  -378.61475531    -0.00000000     0.00000000  0.32D-16  0.79D-17  6  1    53.70
  20      1.32610040    -1.02868668  -378.61475531     0.00000000    -0.00000000  0.63D-17  0.18D-17  6  2    56.50
  21      1.32610040    -1.02868668  -378.61475531     0.00000000     0.00000000  0.12D-17  0.44D-18  6  4    59.28
  22      1.32610040    -1.02868668  -378.61475531     0.00000000    -0.00000000  0.23D-18  0.77D-19  6  5    62.08
  23      1.32610040    -1.02868668  -378.61475531     0.00000000    -0.00000000  0.36D-19  0.16D-19  6  3    64.87
  24      1.32610040    -1.02868668  -378.61475531    -0.00000000    -0.00000000  0.53D-20  0.35D-20  6  6    67.65
  25      1.32610040    -1.02868668  -378.61475531     0.00000000    -0.00000000  0.14D-20  0.72D-21  6  1    70.44

 Norm of t1 vector:      0.15246890      S-energy:     0.00000000      T1 diagnostic:  0.01796863
                                                                       D1 diagnostic:  0.06496296

 Singles amplitudes (print threshold =  0.500E-01):

         I         SYM. A    A   T(IA)

        11         1         1      0.05944014
        12         1         2      0.06124853


 Total CPU time for triples:     31.39 sec


 RESULTS
 =======

  Reference energy                   -377.586068633111
  CCSD singlet pair energy             -0.670880416023
  CCSD triplet pair energy             -0.357806261134
  CCSD correlation energy              -1.028686677139

  Triples (T) contribution             -0.031910013475
  Total correlation energy             -1.060596690614

  CCSD total energy                  -378.614755310251
  CCSD[T] energy                     -378.649949547507
  CCSD-T energy                      -378.645585668352
 !CCSD(T) total energy               -378.646665323726

 Timing summary (sec):

 STEP                 CPU(USER)    SYS     CPU(TOT)    WALL
 Transformation          0.75      0.09      0.84      0.84
 CCSD iterations        69.70      1.37     71.07     71.13
 Triples                31.39      0.83     32.22     32.23

 Program statistics:

 Available memory in ccsd:               999998604
 Min. memory needed in ccsd:               2834340
 Max. memory used in ccsd:                 3747300
 Max. memory used in cckext:               3919086 (25 integral passes)



 **********************************************************************************************************************************
 DATASETS  * FILE   NREC   LENGTH (MB)   RECORD NAMES
              1      20      155.02       500      610      700      900      950      970     1000      129      960     1100   
                                          VAR    BASINP    GEOM    SYMINP    ZMAT    AOBASIS   BASIS     P2S    ABASIS      S 
                                         1400     1410     1200     1210     1080     1600     1650     1300     1700     1380   
                                           T        V       H0       H01     AOSYM     SMH    MOLCAS    ERIS     OPER     JKOP   

              2       3        0.64       700     1000     2100   
                                         GEOM     BASIS     RHF  

 PROGRAMS   *        TOTAL   CCSD(T)       RHF       INT
 CPU TIMES  *       105.36    101.84      2.07      1.41
 REAL TIME  *       108.34 SEC
 DISK USED  *       440.67 MB      
 GA USED    *         0.00 MB       (max)       0.00 MB       (current)
 **********************************************************************************************************************************

        CCSD(T)         RHF-SCF 
   -378.64666532   -377.58606863
 **********************************************************************************************************************************
 Variable memory released
