
 Primary working directories    : /tmp/1051462.7.gen5.q
 Secondary working directories  : /tmp/1051462.7.gen5.q
 Wavefunction directory         : /home/vulcan/jj04645/wfu/
 Main file repository           : /tmp/1051462.7.gen5.q/

 ARCHNAME  : Linux/x86_64
 FC        : /opt/intel/compilers_and_libraries_2016.1.150/linux/bin/intel64/ifort
 FCVERSION : 16.0.1
 BLASLIB   : -mkl
 id        : ccgc

 Nodes     nprocs
 n073         1
 ga_uses_ma=false, calling ma_init with nominal heap.
 GA-space will be limited to   8.0 MW (determined by -G option)

 Using customized tuning parameters: mindgm=10; mindgv=16; mindgc=4; mindgr=1; noblas=0; mincuda=1000; minvec=7
 default implementation of scratch files=df  

 ***,Optimization of tetramethylsilane
 memory,1000,m
 gthresh,energy=1.0d-12,orbital=1.0d-10,oneint=1.0d-16,twoint=1.0d-16,optgrad=1.0d-6,compress=1.0d-13
 geomtyp=xyz
 
 bohr
 geometry = {
  C    2.8993937758    0.0019211684   -2.0488225290
  SI    0.0019211684    0.0019211684   -0.0000000000
  C    0.0019211684   -2.9037164048    2.0545960317
  C    0.0019211684    2.8993937758    2.0488225290
  C   -2.9037164048    0.0019211684   -2.0545960317
  H    2.9529912280    1.6709391861   -3.2668956090
  H    2.9529912280   -1.6670968493   -3.2668956090
  H    4.6220092457    0.0019211684   -0.9065476927
  H   -1.6670968493   -2.9573138570    3.2726691117
  H    1.6709391861   -2.9573138570    3.2726691117
  H    0.0019211684   -4.6263318747    0.9123211954
  H   -1.6670968493    2.9529912280    3.2668956090
  H    0.0019211684    4.6220092457    0.9065476927
  H    1.6709391861    2.9529912280    3.2668956090
  H   -4.6263318747    0.0019211684   -0.9123211954
  H   -2.9573138570   -1.6670968493   -3.2726691117
  H   -2.9573138570    1.6709391861   -3.2726691117
 }
 
 basis=VDZ
 {rhf;maxit,200}
 {ccsd(t);maxit,200}

 Variables initialized (661), CPU time= 0.00 sec
 Commands  initialized (458), CPU time= 0.01 sec, 486 directives.
 Default parameters read. Elapsed time= 0.04 sec

 Checking input...
 Passed
1


                                         ***  PROGRAM SYSTEM MOLPRO  ***
                         Copyright, University College Cardiff Consultants Limited, 2008

                                    Version 2010.1 linked May 16 2016 07:17:05


 **********************************************************************************************************************************
 LABEL *   Optimization of tetramethylsilane                                             
 Linux-4.4.3/n073(x86_64) 64 bit mpp version                                             DATE: 10-Apr-24          TIME: 13:54:22  
 **********************************************************************************************************************************

 SHA1:             9e8077add272b0f3cad6f7df79ec5211205f459d
 **********************************************************************************************************************************

 THRESHOLDS:

 ZERO    =  1.00D-12  ONEINT  =  1.00D-16  TWOINT  =  1.00D-16  PREFAC  =  1.00D-14  LOCALI  =  1.00D-09  EORDER  =  1.00D-04
 ENERGY  =  1.00D-12  ETEST   =  0.00D+00  EDENS   =  0.00D+00  THRDEDEF=  1.00D-06  GRADIENT=  1.00D-02  STEP    =  1.00D-03
 ORBITAL =  1.00D-10  CIVEC   =  1.00D-05  COEFF   =  1.00D-04  PRINTCI =  5.00D-02  PUNCHCI =  9.90D+01  OPTGRAD =  1.00D-06
 OPTENERG=  1.00D-06  OPTSTEP =  3.00D-04  THRGRAD =  1.00D-10  COMPRESS=  1.00D-13  VARMIN  =  1.00D-07  VARMAX  =  1.00D-03
 THRDOUB =  0.00D+00  THRDIV  =  1.00D-05  THRRED  =  1.00D-07  THRPSP  =  1.00D+00  THRDC   =  1.00D-10  THRCS   =  1.00D-10
 THRNRM  =  1.00D-08  THREQ   =  0.00D+00  THRDE   =  1.00D+00  THRREF  =  1.00D-05  SPARFAC =  1.00D+00  THRDLP  =  1.00D-07
 THRDIA  =  1.00D-10  THRDLS  =  1.00D-07  THRGPS  =  0.00D+00  THRKEX  =  0.00D+00  THRDIS  =  2.00D-01  THRVAR  =  1.00D-10
 THRLOC  =  1.00D-06  THRGAP  =  1.00D-06  THRLOCT = -1.00D+00  THRGAPT = -1.00D+00  THRORB  =  1.00D-06  THRMLTP =  0.00D+00
 THRCPQCI=  1.00D-10  KEXTA   =  0.00D+00  THRCOARS=  0.00D+00  SYMTOL  =  1.00D-06  GRADTOL =  1.00D-06  THROVL  =  1.00D-08
 THRORTH =  1.00D-08  GRID    =  1.00D-06  GRIDMAX =  1.00D-03  DTMAX   =  0.00D+00

 SETTING GEOMTYP        =    XYZ
 ZUNIT=BOHR
 

 Variable memory set to 1000000000 words,  buffer space   230000 words

 SETTING BASIS          =    VDZ


 Recomputing integrals since basis changed


 Using spherical harmonics

 Library entry C      S cc-pVDZ              selected for orbital group  1
 Library entry C      P cc-pVDZ              selected for orbital group  1
 Library entry C      D cc-pVDZ              selected for orbital group  1
 Library entry SI     S cc-pVDZ              selected for orbital group  2
 Library entry SI     P cc-pVDZ              selected for orbital group  2
 Library entry SI     D cc-pVDZ              selected for orbital group  2
 Library entry H      S cc-pVDZ              selected for orbital group  4
 Library entry H      P cc-pVDZ              selected for orbital group  4

1PROGRAM * SEWARD (Integral evaluation for generally contracted gaussian basis sets)     Author: Roland Lindh, 1990

 Geometry written to block  1 of record 700


 Point group  C1  



 ATOMIC COORDINATES

 NR  ATOM    CHARGE       X              Y              Z

   1  C       6.00    2.899393776    0.001921168   -2.048822529
   2  SI     14.00    0.001921168    0.001921168    0.000000000
   3  C       6.00    0.001921168   -2.903716405    2.054596032
   4  C       6.00    0.001921168    2.899393776    2.048822529
   5  C       6.00   -2.903716405    0.001921168   -2.054596032
   6  H       1.00    2.952991228    1.670939186   -3.266895609
   7  H       1.00    2.952991228   -1.667096849   -3.266895609
   8  H       1.00    4.622009246    0.001921168   -0.906547693
   9  H       1.00   -1.667096849   -2.957313857    3.272669112
  10  H       1.00    1.670939186   -2.957313857    3.272669112
  11  H       1.00    0.001921168   -4.626331875    0.912321195
  12  H       1.00   -1.667096849    2.952991228    3.266895609
  13  H       1.00    0.001921168    4.622009246    0.906547693
  14  H       1.00    1.670939186    2.952991228    3.266895609
  15  H       1.00   -4.626331875    0.001921168   -0.912321195
  16  H       1.00   -2.957313857   -1.667096849   -3.272669112
  17  H       1.00   -2.957313857    1.670939186   -3.272669112

 Bond lengths in Bohr (Angstrom)

 1-2  3.548664716  1-6  2.066929089  1-7  2.066929089  1-8  2.066929089  2-3  3.558664716
     ( 1.877872490)     ( 1.093771766)     ( 1.093771766)     ( 1.093771766)     ( 1.883164262)

  2- 4  3.548664716   2- 5  3.558664716   3- 9  2.066929089   3-10  2.066929089   3-11  2.066929089
       ( 1.877872490)       ( 1.883164262)       ( 1.093771766)       ( 1.093771766)       ( 1.093771766)

  4-12  2.066929089   4-13  2.066929089   4-14  2.066929089   5-15  2.066929089   5-16  2.066929089
       ( 1.093771766)       ( 1.093771766)       ( 1.093771766)       ( 1.093771766)       ( 1.093771766)

  5-17  2.066929089
       ( 1.093771766)

 Bond angles

  1-2-3  109.47122063   1-2-4  109.47122063   1-2-5  109.47122063   2-1-6  111.18705549

  2- 1- 7  111.18705549   2- 1- 8  111.18705549   2- 3- 9  111.18705549   2- 3-10  111.18705549

  2- 3-11  111.18705549   2- 4-12  111.18705549   2- 4-13  111.18705549   2- 4-14  111.18705549

  2- 5-15  111.18705549   2- 5-16  111.18705549   2- 5-17  111.18705549   3- 2- 4  109.47122063

  3-2-5  109.47122063   4-2-5  109.47122063   6-1-7  107.70221929   6-1-8  107.70221928

  7- 1- 8  107.70221928   9- 3-10  107.70221929   9- 3-11  107.70221928  10- 3-11  107.70221928

 12- 4-13  107.70221928  12- 4-14  107.70221929  13- 4-14  107.70221928  15- 5-16  107.70221928

 15- 5-17  107.70221928  16- 5-17  107.70221929

 NUCLEAR CHARGE:                   50
 NUMBER OF PRIMITIVE AOS:         234
 NUMBER OF SYMMETRY AOS:          229
 NUMBER OF CONTRACTIONS:          134   ( 134A   )
 NUMBER OF CORE ORBITALS:           9   (   9A   )
 NUMBER OF VALENCE ORBITALS:       32   (  32A   )


 NUCLEAR REPULSION ENERGY  245.90010626


 Eigenvalues of metric

         1 0.220E-02 0.750E-02 0.752E-02 0.753E-02 0.139E-01 0.165E-01 0.165E-01 0.165E-01


 Contracted 2-electron integrals neglected if value below      1.0D-16
 AO integral compression algorithm  1   Integral accuracy      1.0D-16
