
 Primary working directories    : /tmp/1051568.154.gen6.q
 Secondary working directories  : /tmp/1051568.154.gen6.q
 Wavefunction directory         : /home/vulcan/mel64643/wfu/
 Main file repository           : /tmp/1051568.154.gen6.q/

 ARCHNAME  : Linux/x86_64
 FC        : /opt/intel/compilers_and_libraries_2016.1.150/linux/bin/intel64/ifort
 FCVERSION : 16.0.1
 BLASLIB   : -mkl
 id        : ccgc

 Nodes     nprocs
 n082         1
 ga_uses_ma=false, calling ma_init with nominal heap.
 GA-space will be limited to   8.0 MW (determined by -G option)

 Using customized tuning parameters: mindgm=10; mindgv=16; mindgc=4; mindgr=1; noblas=0; mincuda=1000; minvec=7
 default implementation of scratch files=df  

 ***,Optimization of min3
 memory,1000,m
 gthresh,energy=1.0d-12,orbital=1.0d-10,oneint=1.0d-16,twoint=1.0d-16,optgrad=1.0d-6,compress=1.0d-13
 geomtyp=xyz
 
 
 
  bohr
  geometry = {
  C    0.0000000000   -0.0024262449   -2.6767529031
  C    0.0000000000    2.2646999601   -1.3245468953
  C    0.0000000000   -2.2627097531   -1.3290138621
  C    0.0000000000    2.1585968688    1.3086633225
  C    0.0000000000   -2.1567981843    1.3123756666
  N    0.0000000000   -0.0027525949    2.6431890688
  H    0.0000000000   -0.0022974430   -4.7232179190
  H    0.0000000000    4.0730563175   -2.2798354857
  H    0.0000000000   -4.0709118832   -2.2845943470
  H    0.0000000000    3.8879402433    2.4089046311
  H   -0.0000000000   -3.8863972863    2.4122149233
 }
 
 basis=cc-pvdz
 {rhf;maxit,200}
 {mp4}

 Variables initialized (661), CPU time= 0.00 sec
 Commands  initialized (458), CPU time= 0.01 sec, 486 directives.
 Default parameters read. Elapsed time= 0.05 sec

 Checking input...
 Passed
1


                                         ***  PROGRAM SYSTEM MOLPRO  ***
                         Copyright, University College Cardiff Consultants Limited, 2008

                                    Version 2010.1 linked May 16 2016 07:17:05


 **********************************************************************************************************************************
 LABEL *   Optimization of min3                                                          
 Linux-4.4.3/n082(x86_64) 64 bit mpp version                                             DATE: 14-Apr-24          TIME: 15:24:22  
 **********************************************************************************************************************************

 SHA1:             9e8077add272b0f3cad6f7df79ec5211205f459d
 **********************************************************************************************************************************

 THRESHOLDS:

 ZERO    =  1.00D-12  ONEINT  =  1.00D-16  TWOINT  =  1.00D-16  PREFAC  =  1.00D-14  LOCALI  =  1.00D-09  EORDER  =  1.00D-04
 ENERGY  =  1.00D-12  ETEST   =  0.00D+00  EDENS   =  0.00D+00  THRDEDEF=  1.00D-06  GRADIENT=  1.00D-02  STEP    =  1.00D-03
 ORBITAL =  1.00D-10  CIVEC   =  1.00D-05  COEFF   =  1.00D-04  PRINTCI =  5.00D-02  PUNCHCI =  9.90D+01  OPTGRAD =  1.00D-06
 OPTENERG=  1.00D-06  OPTSTEP =  3.00D-04  THRGRAD =  1.00D-10  COMPRESS=  1.00D-13  VARMIN  =  1.00D-07  VARMAX  =  1.00D-03
 THRDOUB =  0.00D+00  THRDIV  =  1.00D-05  THRRED  =  1.00D-07  THRPSP  =  1.00D+00  THRDC   =  1.00D-10  THRCS   =  1.00D-10
 THRNRM  =  1.00D-08  THREQ   =  0.00D+00  THRDE   =  1.00D+00  THRREF  =  1.00D-05  SPARFAC =  1.00D+00  THRDLP  =  1.00D-07
 THRDIA  =  1.00D-10  THRDLS  =  1.00D-07  THRGPS  =  0.00D+00  THRKEX  =  0.00D+00  THRDIS  =  2.00D-01  THRVAR  =  1.00D-10
 THRLOC  =  1.00D-06  THRGAP  =  1.00D-06  THRLOCT = -1.00D+00  THRGAPT = -1.00D+00  THRORB  =  1.00D-06  THRMLTP =  0.00D+00
 THRCPQCI=  1.00D-10  KEXTA   =  0.00D+00  THRCOARS=  0.00D+00  SYMTOL  =  1.00D-06  GRADTOL =  1.00D-06  THROVL  =  1.00D-08
 THRORTH =  1.00D-08  GRID    =  1.00D-06  GRIDMAX =  1.00D-03  DTMAX   =  0.00D+00

 SETTING GEOMTYP        =    XYZ
 ZUNIT=BOHR
 

 Variable memory set to 1000000000 words,  buffer space   230000 words

 SETTING BASIS          =    CC-PVDZ


 Recomputing integrals since basis changed


 Using spherical harmonics

 Library entry C      S cc-pVDZ              selected for orbital group  1
 Library entry C      P cc-pVDZ              selected for orbital group  1
 Library entry C      D cc-pVDZ              selected for orbital group  1
 Library entry N      S cc-pVDZ              selected for orbital group  2
 Library entry N      P cc-pVDZ              selected for orbital group  2
 Library entry N      D cc-pVDZ              selected for orbital group  2
 Library entry H      S cc-pVDZ              selected for orbital group  3
 Library entry H      P cc-pVDZ              selected for orbital group  3

1PROGRAM * SEWARD (Integral evaluation for generally contracted gaussian basis sets)     Author: Roland Lindh, 1990

 Geometry written to block  1 of record 700


 Point group  Cs  



 ATOMIC COORDINATES

 NR  ATOM    CHARGE       X              Y              Z

   1  C       6.00    0.000000000   -0.002426245   -2.676752903
   2  C       6.00    0.000000000    2.264699960   -1.324546895
   3  C       6.00    0.000000000   -2.262709753   -1.329013862
   4  C       6.00    0.000000000    2.158596869    1.308663322
   5  C       6.00    0.000000000   -2.156798184    1.312375667
   6  N       7.00    0.000000000   -0.002752595    2.643189069
   7  H       1.00    0.000000000   -0.002297443   -4.723217919
   8  H       1.00    0.000000000    4.073056317   -2.279835486
   9  H       1.00    0.000000000   -4.070911883   -2.284594347
  10  H       1.00    0.000000000    3.887940243    2.408904631
  11  H       1.00    0.000000000   -3.886397286    2.412214923

 Bond lengths in Bohr (Angstrom)

 1-2  2.639758003  1-3  2.631593065  1-7  2.046465020  2-4  2.635347020  2-8  2.045172121
     ( 1.396899773)     ( 1.392579073)     ( 1.082942648)     ( 1.394565581)     ( 1.082258475)

  3- 5  2.643512039   3- 9  2.045172121   4- 6  2.540155600   4-10  2.049673009   5- 6  2.531990662
       ( 1.398886323)       ( 1.082258475)       ( 1.344192451)       ( 1.084640242)       ( 1.339871752)

  5-11  2.049673009
       ( 1.084640242)

 Bond angles

  1-2-4  118.50612503   1-2-8  121.34057875   1-3-5  118.51019803   1-3-9  121.33854225

  2- 1- 3  118.38008385   2- 1- 7  120.80995807   2- 4- 6  124.00070528   2- 4-10  120.15785894

  3- 1- 7  120.80995807   3- 5- 6  124.00477399   3- 5-11  120.15582458   4- 2- 8  120.15329622

  4- 6- 5  116.59811380   5- 3- 9  120.15125972   6- 4-10  115.84143578   6- 5-11  115.83940143

 NUCLEAR CHARGE:                   42
 NUMBER OF PRIMITIVE AOS:         197
 NUMBER OF SYMMETRY AOS:          191
 NUMBER OF CONTRACTIONS:          109   (  80A'  +  29A"  )
 NUMBER OF CORE ORBITALS:           6   (   6A'  +   0A"  )
 NUMBER OF VALENCE ORBITALS:       29   (  23A'  +   6A"  )


 NUCLEAR REPULSION ENERGY  205.78038014


 Eigenvalues of metric

         1 0.713E-03 0.239E-02 0.279E-02 0.379E-02 0.585E-02 0.730E-02 0.152E-01 0.153E-01
         2 0.543E-01 0.103E+00 0.113E+00 0.170E+00 0.174E+00 0.209E+00 0.297E+00 0.299E+00


 Contracted 2-electron integrals neglected if value below      1.0D-16
 AO integral compression algorithm  1   Integral accuracy      1.0D-16

     82.575 MB (compressed) written to integral file ( 98.6%)

     Node minimum: 82.575 MB, node maximum: 82.575 MB


 NUMBER OF SORTED TWO-ELECTRON INTEGRALS:    9573450.     BUFFER LENGTH:  32768
 NUMBER OF SEGMENTS:   1  SEGMENT LENGTH:    9573450      RECORD LENGTH: 524288

 Memory used in sort:      10.13 MW

 SORT1 READ    10447159. AND WROTE     9540821. INTEGRALS IN     28 RECORDS. CPU TIME:     0.11 SEC, REAL TIME:     0.17 SEC
 SORT2 READ     9540821. AND WROTE     9573450. INTEGRALS IN    315 RECORDS. CPU TIME:     0.10 SEC, REAL TIME:     0.14 SEC

 FILE SIZES:   FILE 1:    78.0 MBYTE,  FILE 4:   117.5 MBYTE,   TOTAL:    195.5 MBYTE

 OPERATOR DM      FOR CENTER  0  COORDINATES:    0.000000    0.000000    0.000000


 **********************************************************************************************************************************
 DATASETS  * FILE   NREC   LENGTH (MB)   RECORD NAMES
              1      19       78.12       500      610      700      900      950      970     1000      129      960     1100   
                                          VAR    BASINP    GEOM    SYMINP    ZMAT    AOBASIS   BASIS     P2S    ABASIS      S 
                                         1400     1410     1200     1210     1080     1600     1650     1300     1700   
                                           T        V       H0       H01     AOSYM     SMH    MOLCAS    ERIS     OPER   

 PROGRAMS   *        TOTAL       INT
 CPU TIMES  *         1.96      1.92
 REAL TIME  *         2.30 SEC
 DISK USED  *       278.91 MB      
 GA USED    *         0.00 MB       (max)       0.00 MB       (current)
 **********************************************************************************************************************************

1PROGRAM * RHF-SCF (CLOSED SHELL)       Authors: W. Meyer, H.-J. Werner


 NUMBER OF ELECTRONS:      21+   21-
 CONVERGENCE THRESHOLDS:    1.00E-10 (Density)    1.00E-13 (Energy)
 MAX. NUMBER OF ITERATIONS:      200
 INTERPOLATION TYPE:            DIIS
 INTERPOLATION STEPS:              2 (START)      1 (STEP)
 LEVEL SHIFTS:                  0.00 (CLOSED)  0.00 (OPEN) 



 Orbital guess generated from atomic densities. Full valence occupancy:   29   6

 Molecular orbital dump at record        2100.2

 Initial alpha occupancy:  18   3
 Initial beta  occupancy:  18   3
 Wave function symmetry:    1

 ITERATION    DDIFF          GRAD             ENERGY        2-EL.EN.            DIPOLE MOMENTS         DIIS
    1      0.000D+00      0.000D+00      -246.66537815    576.445920    0.00000   -0.00306   -1.02428    0
    2      0.000D+00      0.586D-02      -246.70996768    575.032730    0.00000    0.00006   -0.90078    1
    3      0.119D-01      0.183D-02      -246.71386143    575.841897    0.00000   -0.00299   -0.85345    2
    4      0.381D-02      0.767D-03      -246.71449981    575.605927    0.00000   -0.00135   -0.88217    3
    5      0.145D-02      0.108D-03      -246.71451643    575.593722    0.00000   -0.00214   -0.87459    4
    6      0.235D-03      0.360D-04      -246.71451870    575.602791    0.00000   -0.00183   -0.87522    5
    7      0.764D-04      0.130D-04      -246.71451917    575.601112    0.00000   -0.00202   -0.87498    6
    8      0.344D-04      0.515D-05      -246.71451929    575.600615    0.00000   -0.00192   -0.87448    7
    9      0.197D-04      0.232D-05      -246.71451931    575.600960    0.00000   -0.00206   -0.87469    7
   10      0.715D-05      0.128D-05      -246.71451932    575.600867    0.00000   -0.00202   -0.87458    8
   11      0.405D-05      0.370D-06      -246.71451932    575.600788    0.00000   -0.00202   -0.87459    8
   12      0.142D-05      0.140D-06      -246.71451932    575.600839    0.00000   -0.00202   -0.87458    8
   13      0.393D-06      0.419D-07      -246.71451932    575.600831    0.00000   -0.00202   -0.87458    9
   14      0.129D-06      0.137D-07      -246.71451932    575.600827    0.00000   -0.00202   -0.87458    9
   15      0.271D-07      0.505D-08      -246.71451932    575.600829    0.00000   -0.00202   -0.87458    9
   16      0.127D-07      0.222D-08      -246.71451932    575.600829    0.00000   -0.00202   -0.87458    9
   17      0.673D-08      0.843D-09      -246.71451932    575.600829    0.00000   -0.00202   -0.87458    9
   18      0.193D-08      0.405D-09      -246.71451932    575.600829    0.00000   -0.00202   -0.87458    8
   19      0.119D-08      0.180D-09      -246.71451932    575.600829    0.00000   -0.00202   -0.87458    9
   20      0.655D-09      0.502D-10      -246.71451932    575.600829    0.00000   -0.00202   -0.87458    9
   21      0.152D-09      0.217D-10      -246.71451932    575.600829    0.00000   -0.00202   -0.87458    9
   22      0.519D-10      0.531D-11      -246.71451932    575.600829    0.00000   -0.00202   -0.87458    0

 Final occupancy:  18   3

 !RHF STATE 1.1 Energy               -246.714519318169
 Nuclear energy                       205.78038014
 One-electron energy                 -740.29531410
 Two-electron energy                  287.80041464
 Virial quotient                       -1.00137315
 !RHF STATE 1.1 Dipole moment           0.00000000    -0.00202128    -0.87458411
 Dipole moment /Debye                   0.00000000    -0.00513724    -2.22282547

 Orbital energies:

         1.1          2.1          3.1          4.1          5.1          6.1          7.1          8.1          9.1         10.1
    -15.567560   -11.278513   -11.278095   -11.264119   -11.246268   -11.246198    -1.253883    -1.087395    -1.031042    -0.856369

        11.1         12.1         13.1         14.1         15.1         16.1         17.1         18.1         19.1         20.1
     -0.853023    -0.717427    -0.655468    -0.652033    -0.594562    -0.573378    -0.516043    -0.415619     0.182884     0.214457

         1.2          2.2          3.2          4.2          5.2
     -0.536179    -0.379691    -0.344376     0.115629     0.130322


 **********************************************************************************************************************************
 DATASETS  * FILE   NREC   LENGTH (MB)   RECORD NAMES
              1      19       78.12       500      610      700      900      950      970     1000      129      960     1100   
                                          VAR    BASINP    GEOM    SYMINP    ZMAT    AOBASIS   BASIS     P2S    ABASIS      S 
                                         1400     1410     1200     1210     1080     1600     1650     1300     1700   
                                           T        V       H0       H01     AOSYM     SMH    MOLCAS    ERIS     OPER   

              2       3        0.59       700     1000     2100   
                                         GEOM     BASIS     RHF  

 PROGRAMS   *        TOTAL       RHF       INT
 CPU TIMES  *         3.01      1.05      1.92
 REAL TIME  *         3.54 SEC
 DISK USED  *       278.91 MB      
 GA USED    *         0.00 MB       (max)       0.00 MB       (current)
 **********************************************************************************************************************************


1PROGRAM * MP4 (Closed-shell)     Authors: C. Hampel, H.-J. Werner, 1991, M. Deegan, P.J. Knowles, 1992


 Convergence thresholds:  THRVAR = 1.00D-08  THRDEN = 1.00D-12

 MP4(T)     terms to be evaluated (factor= 0.000)


 Number of core orbitals:           6 (   6   0 )
 Number of closed-shell orbitals:  15 (  12   3 )
 Number of external orbitals:      88 (  62  26 )

 Molecular orbitals read from record     2100.2  Type=RHF/CANONICAL (state 1.1)

 Number of N-1 electron functions:              15
 Number of N-2 electron functions:             120
 Number of singly external CSFs:               822
 Number of doubly external CSFs:            462504
 Total number of CSFs:                      463327

 Length of J-op  integral file:               0.00 MB
 Length of K-op  integral file:               0.53 MB

 Memory could be reduced to 7.74 Mwords without degradation in triples

 Integral transformation finished. Total CPU:   0.25 sec, npass=  1  Memory used:   4.38 MW

 Reference energy:                   -246.71451932

                        CORR.ENERGY   TOTAL ENERGY   ENERGY CHANGE
 MP2:                   -0.80901042  -247.52352974    -0.80901042

 SCS-MP2 correlation energy:           -0.78377341   (PS=  1.200000  PT=  0.333333)
 SCS-MP2 total energy:               -247.49829273

 MP3(D):                -0.83543037  -247.54994969    -0.02641994
 MP4(DQ):               -0.83410991  -247.54862922     0.00132046
 MP4(SDQ):              -0.84098742  -247.55550674    -0.00687752

 Norm of t1 vector:      0.07227823      S-energy:    -0.00687752      T1 diagnostic:  0.00933108


 Total CPU time for triples:     10.19 sec


 RESULTS
 =======

  Reference energy                   -246.714519318169
  MP4(SDQ) singlet pair energy         -0.538040703953
  MP4(SDQ) triplet pair energy         -0.296069202297
  MP4(SDQ) correlation energy          -0.840987424110

  Triples (T) contribution             -0.040819603307
  Total correlation energy             -0.881807027418

  MP4(SDTQ) total energy             -247.555506742280
 !MP4(SDTQ(T) total energy           -247.596326345587

 Timing summary (sec):

 STEP                 CPU(USER)    SYS     CPU(TOT)    WALL
 Transformation          0.27      0.05      0.32      0.32
 CCSD iterations         0.83      0.02      0.85      0.87
 Triples                10.19      0.26     10.45     10.45

 Program statistics:

 Available memory in ccsd:               999999000
 Min. memory needed in ccsd:               1297853
 Max. memory used in ccsd:                 1703120
 Max. memory used in cckext:               1833844 ( 1 integral passes)



 **********************************************************************************************************************************
 DATASETS  * FILE   NREC   LENGTH (MB)   RECORD NAMES
              1      20      109.49       500      610      700      900      950      970     1000      129      960     1100   
                                          VAR    BASINP    GEOM    SYMINP    ZMAT    AOBASIS   BASIS     P2S    ABASIS      S 
                                         1400     1410     1200     1210     1080     1600     1650     1300     1700     1380   
                                           T        V       H0       H01     AOSYM     SMH    MOLCAS    ERIS     OPER     JKOP   

              2       3        0.59       700     1000     2100   
                                         GEOM     BASIS     RHF  

 PROGRAMS   *        TOTAL       MP4       RHF       INT
 CPU TIMES  *        14.30     11.29      1.05      1.92
 REAL TIME  *        15.20 SEC
 DISK USED  *       278.91 MB      
 GA USED    *         0.00 MB       (max)       0.00 MB       (current)
 **********************************************************************************************************************************

        MP4             RHF-SCF 
   -247.59632635   -246.71451932
 **********************************************************************************************************************************
 Variable memory released
