
 Primary working directories    : /tmp/878919.201.gen6.q
 Secondary working directories  : /tmp/878919.201.gen6.q
 Wavefunction directory         : /home/vulcan/lo21740/wfu/
 Main file repository           : /tmp/878919.201.gen6.q/

 ARCHNAME  : Linux/x86_64
 FC        : /opt/intel/compilers_and_libraries_2016.1.150/linux/bin/intel64/ifort
 FCVERSION : 16.0.1
 BLASLIB   : -mkl
 id        : ccgc

 Nodes     nprocs
 n091         1
 ga_uses_ma=false, calling ma_init with nominal heap.
 GA-space will be limited to   8.0 MW (determined by -G option)

 Using customized tuning parameters: mindgm=10; mindgv=16; mindgc=4; mindgr=1; noblas=0; mincuda=1000; minvec=7
 default implementation of scratch files=df  

 ***,Optimization of formamide
 memory,1000,m
 gthresh,energy=1.0d-12,orbital=1.0d-10,oneint=1.0d-16,twoint=1.0d-16,optgrad=1.0d-6,compress=1.0d-13
 geomtyp=xyz
 
 bohr
 geometry = {
  C   -3.8277972168    0.0859577853    0.0016257531
  O   -2.7322382027    2.1389520949   -0.0001584023
  N   -2.6836823984   -2.1797036299   -0.0006974610
  H   -3.7373683929   -3.7551077735    0.0003704102
  H   -0.7524436671   -2.3059487702   -0.0006405646
  H   -5.9000086562   -0.0182333650   -0.0004997355
  C    3.8277972168   -0.0859577853    0.0016257531
  O    2.7322382027   -2.1389520949   -0.0001584023
  N    2.6836823984    2.1797036299   -0.0006974610
  H    3.7373683929    3.7551077735    0.0003704102
  H    0.7524436671    2.3059487702   -0.0006405646
  H    5.9000086562    0.0182333650   -0.0004997355
 }
 
 basis=VDZ
 {rhf;maxit,200}
 {ccsd(t);maxit,200}

 Variables initialized (661), CPU time= 0.00 sec
 Commands  initialized (458), CPU time= 0.01 sec, 486 directives.
 Default parameters read. Elapsed time= 0.04 sec

 Checking input...
 Passed
1


                                         ***  PROGRAM SYSTEM MOLPRO  ***
                         Copyright, University College Cardiff Consultants Limited, 2008

                                    Version 2010.1 linked May 16 2016 07:17:05


 **********************************************************************************************************************************
 LABEL *   Optimization of formamide                                                     
 Linux-4.4.3/n091(x86_64) 64 bit mpp version                                             DATE: 22-May-23          TIME: 19:24:52  
 **********************************************************************************************************************************

 SHA1:             9e8077add272b0f3cad6f7df79ec5211205f459d
 **********************************************************************************************************************************

 THRESHOLDS:

 ZERO    =  1.00D-12  ONEINT  =  1.00D-16  TWOINT  =  1.00D-16  PREFAC  =  1.00D-14  LOCALI  =  1.00D-09  EORDER  =  1.00D-04
 ENERGY  =  1.00D-12  ETEST   =  0.00D+00  EDENS   =  0.00D+00  THRDEDEF=  1.00D-06  GRADIENT=  1.00D-02  STEP    =  1.00D-03
 ORBITAL =  1.00D-10  CIVEC   =  1.00D-05  COEFF   =  1.00D-04  PRINTCI =  5.00D-02  PUNCHCI =  9.90D+01  OPTGRAD =  1.00D-06
 OPTENERG=  1.00D-06  OPTSTEP =  3.00D-04  THRGRAD =  1.00D-10  COMPRESS=  1.00D-13  VARMIN  =  1.00D-07  VARMAX  =  1.00D-03
 THRDOUB =  0.00D+00  THRDIV  =  1.00D-05  THRRED  =  1.00D-07  THRPSP  =  1.00D+00  THRDC   =  1.00D-10  THRCS   =  1.00D-10
 THRNRM  =  1.00D-08  THREQ   =  0.00D+00  THRDE   =  1.00D+00  THRREF  =  1.00D-05  SPARFAC =  1.00D+00  THRDLP  =  1.00D-07
 THRDIA  =  1.00D-10  THRDLS  =  1.00D-07  THRGPS  =  0.00D+00  THRKEX  =  0.00D+00  THRDIS  =  2.00D-01  THRVAR  =  1.00D-10
 THRLOC  =  1.00D-06  THRGAP  =  1.00D-06  THRLOCT = -1.00D+00  THRGAPT = -1.00D+00  THRORB  =  1.00D-06  THRMLTP =  0.00D+00
 THRCPQCI=  1.00D-10  KEXTA   =  0.00D+00  THRCOARS=  0.00D+00  SYMTOL  =  1.00D-06  GRADTOL =  1.00D-06  THROVL  =  1.00D-08
 THRORTH =  1.00D-08  GRID    =  1.00D-06  GRIDMAX =  1.00D-03  DTMAX   =  0.00D+00

 SETTING GEOMTYP        =    XYZ
 ZUNIT=BOHR
 

 Variable memory set to 1000000000 words,  buffer space   230000 words

 SETTING BASIS          =    VDZ


 Recomputing integrals since basis changed


 Using spherical harmonics

 Library entry C      S cc-pVDZ              selected for orbital group  1
 Library entry C      P cc-pVDZ              selected for orbital group  1
 Library entry C      D cc-pVDZ              selected for orbital group  1
 Library entry O      S cc-pVDZ              selected for orbital group  2
 Library entry O      P cc-pVDZ              selected for orbital group  2
 Library entry O      D cc-pVDZ              selected for orbital group  2
 Library entry N      S cc-pVDZ              selected for orbital group  3
 Library entry N      P cc-pVDZ              selected for orbital group  3
 Library entry N      D cc-pVDZ              selected for orbital group  3
 Library entry H      S cc-pVDZ              selected for orbital group  4
 Library entry H      P cc-pVDZ              selected for orbital group  4

1PROGRAM * SEWARD (Integral evaluation for generally contracted gaussian basis sets)     Author: Roland Lindh, 1990

 Geometry written to block  1 of record 700


 Point group  C2  



 ATOMIC COORDINATES

 NR  ATOM    CHARGE       X              Y              Z

   1  C       6.00   -3.827797217    0.085957785    0.001625753
   2  C       6.00    3.827797217   -0.085957785    0.001625753
   3  O       8.00   -2.732238203    2.138952095   -0.000158402
   4  O       8.00    2.732238203   -2.138952095   -0.000158402
   5  N       7.00   -2.683682398   -2.179703630   -0.000697461
   6  N       7.00    2.683682398    2.179703630   -0.000697461
   7  H       1.00   -3.737368393   -3.755107773    0.000370410
   8  H       1.00    3.737368393    3.755107773    0.000370410
   9  H       1.00   -0.752443667   -2.305948770   -0.000640565
  10  H       1.00    0.752443667    2.305948770   -0.000640565
  11  H       1.00   -5.900008656   -0.018233365   -0.000499736
  12  H       1.00    5.900008656    0.018233365   -0.000499736

 Bond lengths in Bohr (Angstrom)

  1- 3  2.327023500   1- 5  2.538154007   1-11  2.074830249   2- 4  2.327023500   2- 6  2.538154007
       ( 1.231407801)       ( 1.343133253)       ( 1.097952880)       ( 1.231407801)       ( 1.343133253)

  2-12  2.074830249   5- 7  1.895297742   5- 9  1.935360658   6- 8  1.895297742   6-10  1.935360658
       ( 1.097952880)       ( 1.002948369)       ( 1.024148751)       ( 1.002948369)       ( 1.024148751)

 Bond angles

  1- 5- 7  119.43105691   1- 5- 9  120.53297472   2- 6- 8  119.43105691   2- 6-10  120.53297472

  3- 1- 5  125.12089112   3- 1-11  120.96448302   4- 2- 6  125.12089112   4- 2-12  120.96448302

  5- 1-11  113.91438460   6- 2-12  113.91438460   7- 5- 9  120.03589344   8- 6-10  120.03589344

 NUCLEAR CHARGE:                   48
 NUMBER OF PRIMITIVE AOS:         204
 NUMBER OF SYMMETRY AOS:          198
 NUMBER OF CONTRACTIONS:          114   (  57A   +  57B   )
 NUMBER OF CORE ORBITALS:           6   (   3A   +   3B   )
 NUMBER OF VALENCE ORBITALS:       30   (  15A   +  15B   )


 NUCLEAR REPULSION ENERGY  230.48085063


 Eigenvalues of metric

         1 0.555E-02 0.108E-01 0.153E-01 0.238E-01 0.304E-01 0.404E-01 0.417E-01 0.485E-01
         2 0.571E-02 0.113E-01 0.154E-01 0.242E-01 0.280E-01 0.397E-01 0.409E-01 0.432E-01


 Contracted 2-electron integrals neglected if value below      1.0D-16
 AO integral compression algorithm  1   Integral accuracy      1.0D-16

     95.683 MB (compressed) written to integral file ( 90.2%)

     Node minimum: 95.683 MB, node maximum: 95.683 MB


 NUMBER OF SORTED TWO-ELECTRON INTEGRALS:   10931289.     BUFFER LENGTH:  32768
 NUMBER OF SEGMENTS:   1  SEGMENT LENGTH:   10931289      RECORD LENGTH: 524288

 Memory used in sort:      11.49 MW

 SORT1 READ    13250584. AND WROTE    10867261. INTEGRALS IN     32 RECORDS. CPU TIME:     0.12 SEC, REAL TIME:     0.19 SEC
 SORT2 READ    10867261. AND WROTE    10931289. INTEGRALS IN    365 RECORDS. CPU TIME:     0.14 SEC, REAL TIME:     0.18 SEC

 FILE SIZES:   FILE 1:    83.7 MBYTE,  FILE 4:   134.3 MBYTE,   TOTAL:    217.9 MBYTE

 OPERATOR DM      FOR CENTER  0  COORDINATES:    0.000000    0.000000    0.000000


 **********************************************************************************************************************************
 DATASETS  * FILE   NREC   LENGTH (MB)   RECORD NAMES
              1      19       83.75       500      610      700      900      950      970     1000      129      960     1100   
                                          VAR    BASINP    GEOM    SYMINP    ZMAT    AOBASIS   BASIS     P2S    ABASIS      S 
                                         1400     1410     1200     1210     1080     1600     1650     1300     1700   
                                           T        V       H0       H01     AOSYM     SMH    MOLCAS    ERIS     OPER   

 PROGRAMS   *        TOTAL       INT
 CPU TIMES  *         1.50      1.46
 REAL TIME  *         1.84 SEC
 DISK USED  *       314.46 MB      
 GA USED    *         0.00 MB       (max)       0.00 MB       (current)
 **********************************************************************************************************************************

1PROGRAM * RHF-SCF (CLOSED SHELL)       Authors: W. Meyer, H.-J. Werner


 NUMBER OF ELECTRONS:      24+   24-
 CONVERGENCE THRESHOLDS:    1.00E-10 (Density)    1.00E-13 (Energy)
 MAX. NUMBER OF ITERATIONS:      200
 INTERPOLATION TYPE:            DIIS
 INTERPOLATION STEPS:              2 (START)      1 (STEP)
 LEVEL SHIFTS:                  0.00 (CLOSED)  0.00 (OPEN) 



 Orbital guess generated from atomic densities. Full valence occupancy:   18  18

 Molecular orbital dump at record        2100.2

 Initial alpha occupancy:  12  12
 Initial beta  occupancy:  12  12
 Wave function symmetry:    1

 ITERATION    DDIFF          GRAD             ENERGY        2-EL.EN.            DIPOLE MOMENTS         DIIS
    1      0.000D+00      0.000D+00      -337.77931144    705.357013    0.00000    0.00000    0.00405    0
    2      0.000D+00      0.134D-01      -337.85788419    700.163420    0.00000    0.00000    0.00097    1
    3      0.267D-01      0.954D-02      -337.91355316    702.640049    0.00000    0.00000    0.00217    2
    4      0.103D-01      0.126D-02      -337.91565423    702.625670    0.00000    0.00000    0.00224    3
    5      0.226D-02      0.442D-03      -337.91592091    702.554360    0.00000    0.00000    0.00219    4
    6      0.813D-03      0.147D-03      -337.91598850    702.573445    0.00000    0.00000    0.00220    5
    7      0.377D-03      0.659D-04      -337.91599983    702.568972    0.00000    0.00000    0.00221    6
    8      0.191D-03      0.173D-04      -337.91600053    702.569455    0.00000    0.00000    0.00221    7
    9      0.489D-04      0.442D-05      -337.91600058    702.569070    0.00000    0.00000    0.00221    7
   10      0.137D-04      0.975D-06      -337.91600058    702.569303    0.00000    0.00000    0.00221    7
   11      0.270D-05      0.243D-06      -337.91600058    702.569215    0.00000    0.00000    0.00221    7
   12      0.642D-06      0.857D-07      -337.91600058    702.569222    0.00000    0.00000    0.00221    7
   13      0.186D-06      0.283D-07      -337.91600058    702.569228    0.00000    0.00000    0.00221    7
   14      0.719D-07      0.652D-08      -337.91600058    702.569227    0.00000    0.00000    0.00221    7
   15      0.155D-07      0.141D-08      -337.91600058    702.569227    0.00000    0.00000    0.00221    7
   16      0.325D-08      0.344D-09      -337.91600058    702.569227    0.00000    0.00000    0.00221    7
   17      0.687D-09      0.133D-09      -337.91600058    702.569227    0.00000    0.00000    0.00221    7
   18      0.321D-09      0.296D-10      -337.91600058    702.569227    0.00000    0.00000    0.00221    7
   19      0.765D-10      0.819D-11      -337.91600058    702.569227    0.00000    0.00000    0.00221    0

 Final occupancy:  12  12

 !RHF STATE 1.1 Energy               -337.916000581723
 Nuclear energy                       230.48085063
 One-electron energy                 -919.68146463
 Two-electron energy                  351.28461342
 Virial quotient                       -1.00141636
 !RHF STATE 1.1 Dipole moment           0.00000000     0.00000000     0.00220530
 Dipole moment /Debye                   0.00000000     0.00000000     0.00560494

 Orbital energies:

         1.1          2.1          3.1          4.1          5.1          6.1          7.1          8.1          9.1         10.1
    -20.525193   -15.577202   -11.358996    -1.377830    -1.202361    -0.852215    -0.740795    -0.634221    -0.610202    -0.564885

        11.1         12.1         13.1         14.1
     -0.443436    -0.400975     0.186462     0.194434

         1.2          2.2          3.2          4.2          5.2          6.2          7.2          8.2          9.2         10.2
    -20.525192   -15.577201   -11.358997    -1.373094    -1.208506    -0.827376    -0.731845    -0.695430    -0.583642    -0.557449

        11.2         12.2         13.2         14.2
     -0.418582    -0.410495     0.188340     0.201290


 **********************************************************************************************************************************
 DATASETS  * FILE   NREC   LENGTH (MB)   RECORD NAMES
              1      19       83.75       500      610      700      900      950      970     1000      129      960     1100   
                                          VAR    BASINP    GEOM    SYMINP    ZMAT    AOBASIS   BASIS     P2S    ABASIS      S 
                                         1400     1410     1200     1210     1080     1600     1650     1300     1700   
                                           T        V       H0       H01     AOSYM     SMH    MOLCAS    ERIS     OPER   

              2       3        0.59       700     1000     2100   
                                         GEOM     BASIS     RHF  

 PROGRAMS   *        TOTAL       RHF       INT
 CPU TIMES  *         2.46      0.96      1.46
 REAL TIME  *         2.99 SEC
 DISK USED  *       314.46 MB      
 GA USED    *         0.00 MB       (max)       0.00 MB       (current)
 **********************************************************************************************************************************


1PROGRAM * CCSD (Closed-shell coupled cluster)     Authors: C. Hampel, H.-J. Werner, 1991, M. Deegan, P.J. Knowles, 1992


 Convergence thresholds:  THRVAR = 1.00D-08  THRDEN = 1.00D-12

 CCSD(T)     terms to be evaluated (factor= 1.000)


 Number of core orbitals:           6 (   3   3 )
 Number of closed-shell orbitals:  18 (   9   9 )
 Number of external orbitals:      90 (  45  45 )

 Molecular orbitals read from record     2100.2  Type=RHF/CANONICAL (state 1.1)

 Number of N-1 electron functions:              18
 Number of N-2 electron functions:             171
 Number of singly external CSFs:               810
 Number of doubly external CSFs:            656910
 Total number of CSFs:                      657721

 Length of J-op  integral file:               0.00 MB
 Length of K-op  integral file:               0.48 MB
 Length of 3-ext integral record:             0.00 MB

 Memory could be reduced to 9.36 Mwords without degradation in triples

 Integral transformation finished. Total CPU:   0.45 sec, npass=  1  Memory used:   6.56 MW

 Reference energy:                   -337.91600058

 MP2 singlet pair energy:              -0.58949538
 MP2 triplet pair energy:              -0.38306063
 MP2 correlation energy:               -0.97255601
 MP2 total energy:                   -338.88855659

 SCS-MP2 correlation energy:           -0.94574329   (PS=  1.200000  PT=  0.333333)
 SCS-MP2 total energy:               -338.86174387

 ITER.      SQ.NORM     CORR.ENERGY   TOTAL ENERGY   ENERGY CHANGE        DEN1      VAR(S)    VAR(P)  DIIS     TIME
   1      1.29751313    -1.00452653  -338.92052711    -0.03197052    -0.00233217  0.96D-02  0.55D-02  1  1     1.31
   2      1.32239674    -1.00716378  -338.92316436    -0.00263725    -0.02513683  0.22D-03  0.11D-02  2  2     2.22
   3      1.33504681    -1.00813887  -338.92413945    -0.00097509    -0.00560149  0.22D-03  0.47D-04  3  3     3.13
   4      1.34041931    -1.00790979  -338.92391038     0.00022907    -0.00169744  0.20D-04  0.81D-05  4  4     4.03
   5      1.34253669    -1.00784582  -338.92384640     0.00006398    -0.00043609  0.19D-05  0.10D-05  5  5     4.94
   6      1.34300498    -1.00781498  -338.92381556     0.00003084    -0.00004137  0.15D-06  0.13D-06  6  6     5.85
   7      1.34311012    -1.00780531  -338.92380590     0.00000967    -0.00000528  0.14D-07  0.15D-07  6  2     6.75
   8      1.34312791    -1.00780541  -338.92380599    -0.00000010     0.00000003  0.17D-08  0.17D-08  6  1     7.66
   9      1.34312935    -1.00780509  -338.92380568     0.00000032     0.00000150  0.26D-09  0.21D-09  6  4     8.57
  10      1.34313230    -1.00780505  -338.92380564     0.00000004    -0.00000041  0.71D-10  0.19D-10  6  3     9.48
  11      1.34313218    -1.00780512  -338.92380571    -0.00000007     0.00000017  0.13D-10  0.44D-11  6  5    10.39
  12      1.34313197    -1.00780514  -338.92380572    -0.00000002     0.00000008  0.28D-11  0.11D-11  6  6    11.30
  13      1.34313174    -1.00780517  -338.92380575    -0.00000003     0.00000009  0.40D-12  0.16D-12  6  2    12.22
  14      1.34313165    -1.00780518  -338.92380576    -0.00000001     0.00000003  0.66D-13  0.28D-13  6  1    13.13
  15      1.34313163    -1.00780518  -338.92380576    -0.00000000     0.00000000  0.12D-13  0.62D-14  6  4    14.04
  16      1.34313162    -1.00780518  -338.92380576    -0.00000000    -0.00000000  0.28D-14  0.11D-14  6  3    14.96
  17      1.34313162    -1.00780518  -338.92380576    -0.00000000    -0.00000000  0.79D-15  0.16D-15  6  5    15.88
  18      1.34313162    -1.00780518  -338.92380576    -0.00000000    -0.00000000  0.72D-16  0.53D-16  6  6    16.79
  19      1.34313162    -1.00780518  -338.92380576    -0.00000000     0.00000000  0.19D-16  0.73D-17  6  2    17.70
  20      1.34313162    -1.00780518  -338.92380576    -0.00000000     0.00000000  0.35D-17  0.13D-17  6  1    18.61
  21      1.34313162    -1.00780518  -338.92380576    -0.00000000     0.00000000  0.95D-18  0.32D-18  6  4    19.52
  22      1.34313162    -1.00780518  -338.92380576     0.00000000     0.00000000  0.31D-18  0.81D-19  6  3    20.43
  23      1.34313162    -1.00780518  -338.92380576    -0.00000000     0.00000000  0.87D-19  0.20D-19  6  5    21.34
  24      1.34313162    -1.00780518  -338.92380576     0.00000000    -0.00000000  0.21D-19  0.76D-20  6  1    22.25
  25      1.34313162    -1.00780518  -338.92380576     0.00000000    -0.00000000  0.30D-20  0.84D-21  6  6    23.17
  26      1.34313162    -1.00780518  -338.92380576    -0.00000000     0.00000000  0.59D-21  0.18D-21  6  2    24.08

 Norm of t1 vector:      0.14911597      S-energy:     0.00000000      T1 diagnostic:  0.01757349
                                                                       D1 diagnostic:  0.06231903

 Singles amplitudes (print threshold =  0.500E-01):

         I         SYM. A    A   T(IA)

         7         1         2      0.05778899
        16         2         2      0.05872741


 Total CPU time for triples:     13.41 sec


 RESULTS
 =======

  Reference energy                   -337.916000581723
  CCSD singlet pair energy             -0.667735318072
  CCSD triplet pair energy             -0.340069862742
  CCSD correlation energy              -1.007805180804

  Triples (T) contribution             -0.032224503760
  Total correlation energy             -1.040029684564

  CCSD total energy                  -338.923805762527
  CCSD[T] energy                     -338.959027319365
  CCSD-T energy                      -338.955052261868
 !CCSD(T) total energy               -338.956030266287

 Timing summary (sec):

 STEP                 CPU(USER)    SYS     CPU(TOT)    WALL
 Transformation          0.47      0.06      0.53      0.53
 CCSD iterations        23.61      0.97     24.58     24.63
 Triples                13.41      0.46     13.87     13.88

 Program statistics:

 Available memory in ccsd:               999998604
 Min. memory needed in ccsd:               1741948
 Max. memory used in ccsd:                 2318344
 Max. memory used in cckext:               2485613 (26 integral passes)



 **********************************************************************************************************************************
 DATASETS  * FILE   NREC   LENGTH (MB)   RECORD NAMES
              1      20      123.77       500      610      700      900      950      970     1000      129      960     1100   
                                          VAR    BASINP    GEOM    SYMINP    ZMAT    AOBASIS   BASIS     P2S    ABASIS      S 
                                         1400     1410     1200     1210     1080     1600     1650     1300     1700     1380   
                                           T        V       H0       H01     AOSYM     SMH    MOLCAS    ERIS     OPER     JKOP   

              2       3        0.59       700     1000     2100   
                                         GEOM     BASIS     RHF  

 PROGRAMS   *        TOTAL   CCSD(T)       RHF       INT
 CPU TIMES  *        39.96     37.50      0.96      1.46
 REAL TIME  *        42.07 SEC
 DISK USED  *       333.30 MB      
 GA USED    *         0.00 MB       (max)       0.00 MB       (current)
 **********************************************************************************************************************************

        CCSD(T)         RHF-SCF 
   -338.95603027   -337.91600058
 **********************************************************************************************************************************
 Variable memory released
