
 Primary working directories    : /tmp/917005.259.gen4.q
 Secondary working directories  : /tmp/917005.259.gen4.q
 Wavefunction directory         : /home/vulcan/lo21740/wfu/
 Main file repository           : /tmp/917005.259.gen4.q/

 ARCHNAME  : Linux/x86_64
 FC        : /opt/intel/compilers_and_libraries_2016.1.150/linux/bin/intel64/ifort
 FCVERSION : 16.0.1
 BLASLIB   : -mkl
 id        : ccgc

 Nodes     nprocs
 n056         1
 ga_uses_ma=false, calling ma_init with nominal heap.
 GA-space will be limited to   8.0 MW (determined by -G option)

 Using customized tuning parameters: mindgm=10; mindgv=16; mindgc=4; mindgr=1; noblas=0; mincuda=1000; minvec=7
 default implementation of scratch files=df  

 ***,Optimization of h2o_2
 memory,1000,m
 gthresh,energy=1.0d-12,orbital=1.0d-10,oneint=1.0d-16,twoint=1.0d-16,optgrad=1.0d-6,compress=1.0d-13
 geomtyp=xyz
 
 bohr
 geometry = {
  C    0.0001733650   -3.4212142045    0.0005763592
  H   -0.9707151863   -2.7331821021   -1.6808048985
  H   -0.9707169664   -2.7309671174    1.6810484982
  H    1.9407309671   -2.7303535570    0.0001222075
  H    0.0013889663   -5.4810252566    0.0019334833
  C   -0.0020629989    3.4225617677   -0.0039327201
  H   -0.0044472248    5.4773143541    0.0114908482
  H    0.9715808271    2.7311942841   -1.6884825318
  H    0.9715790426    2.7334146431    1.6815276861
  H   -1.9375107917    2.7322571886   -0.0034789321
 }
 
 basis=VDZ
 {rhf;maxit,200}
 {ccsd(t);maxit,200}

 Variables initialized (661), CPU time= 0.00 sec
 Commands  initialized (458), CPU time= 0.01 sec, 486 directives.
 Default parameters read. Elapsed time= 0.05 sec

 Checking input...
 Passed
1


                                         ***  PROGRAM SYSTEM MOLPRO  ***
                         Copyright, University College Cardiff Consultants Limited, 2008

                                    Version 2010.1 linked May 16 2016 07:17:05


 **********************************************************************************************************************************
 LABEL *   Optimization of h2o_2                                                         
 Linux-4.4.3/n056(x86_64) 64 bit mpp version                                             DATE: 19-Jul-23          TIME: 16:14:12  
 **********************************************************************************************************************************

 SHA1:             9e8077add272b0f3cad6f7df79ec5211205f459d
 **********************************************************************************************************************************

 THRESHOLDS:

 ZERO    =  1.00D-12  ONEINT  =  1.00D-16  TWOINT  =  1.00D-16  PREFAC  =  1.00D-14  LOCALI  =  1.00D-09  EORDER  =  1.00D-04
 ENERGY  =  1.00D-12  ETEST   =  0.00D+00  EDENS   =  0.00D+00  THRDEDEF=  1.00D-06  GRADIENT=  1.00D-02  STEP    =  1.00D-03
 ORBITAL =  1.00D-10  CIVEC   =  1.00D-05  COEFF   =  1.00D-04  PRINTCI =  5.00D-02  PUNCHCI =  9.90D+01  OPTGRAD =  1.00D-06
 OPTENERG=  1.00D-06  OPTSTEP =  3.00D-04  THRGRAD =  1.00D-10  COMPRESS=  1.00D-13  VARMIN  =  1.00D-07  VARMAX  =  1.00D-03
 THRDOUB =  0.00D+00  THRDIV  =  1.00D-05  THRRED  =  1.00D-07  THRPSP  =  1.00D+00  THRDC   =  1.00D-10  THRCS   =  1.00D-10
 THRNRM  =  1.00D-08  THREQ   =  0.00D+00  THRDE   =  1.00D+00  THRREF  =  1.00D-05  SPARFAC =  1.00D+00  THRDLP  =  1.00D-07
 THRDIA  =  1.00D-10  THRDLS  =  1.00D-07  THRGPS  =  0.00D+00  THRKEX  =  0.00D+00  THRDIS  =  2.00D-01  THRVAR  =  1.00D-10
 THRLOC  =  1.00D-06  THRGAP  =  1.00D-06  THRLOCT = -1.00D+00  THRGAPT = -1.00D+00  THRORB  =  1.00D-06  THRMLTP =  0.00D+00
 THRCPQCI=  1.00D-10  KEXTA   =  0.00D+00  THRCOARS=  0.00D+00  SYMTOL  =  1.00D-06  GRADTOL =  1.00D-06  THROVL  =  1.00D-08
 THRORTH =  1.00D-08  GRID    =  1.00D-06  GRIDMAX =  1.00D-03  DTMAX   =  0.00D+00

 SETTING GEOMTYP        =    XYZ
 ZUNIT=BOHR
 

 Variable memory set to 1000000000 words,  buffer space   230000 words

 SETTING BASIS          =    VDZ


 Recomputing integrals since basis changed


 Using spherical harmonics

 Library entry C      S cc-pVDZ              selected for orbital group  1
 Library entry C      P cc-pVDZ              selected for orbital group  1
 Library entry C      D cc-pVDZ              selected for orbital group  1
 Library entry H      S cc-pVDZ              selected for orbital group  2
 Library entry H      P cc-pVDZ              selected for orbital group  2

1PROGRAM * SEWARD (Integral evaluation for generally contracted gaussian basis sets)     Author: Roland Lindh, 1990

 Geometry written to block  1 of record 700


 Point group  C1  



 ATOMIC COORDINATES

 NR  ATOM    CHARGE       X              Y              Z

   1  C       6.00    0.000173365   -3.421214205    0.000576359
   2  H       1.00   -0.970715186   -2.733182102   -1.680804898
   3  H       1.00   -0.970716966   -2.730967117    1.681048498
   4  H       1.00    1.940730967   -2.730353557    0.000122207
   5  H       1.00    0.001388966   -5.481025257    0.001933483
   6  C       6.00   -0.002062999    3.422561768   -0.003932720
   7  H       1.00   -0.004447225    5.477314354    0.011490848
   8  H       1.00    0.971580827    2.731194284   -1.688482532
   9  H       1.00    0.971579043    2.733414643    1.681527686
  10  H       1.00   -1.937510792    2.732257189   -0.003478932

 Bond lengths in Bohr (Angstrom)

 1-2  2.059867881  1-3  2.059867881  1-4  2.059867095  1-5  2.059811858  6-7  2.054811856
     ( 1.090035136)     ( 1.090035136)     ( 1.090034720)     ( 1.090005490)     ( 1.087359603)

  6- 8  2.064867881   6- 9  2.064867881   6-10  2.054867095
       ( 1.092681022)       ( 1.092681022)       ( 1.087388834)

 Bond angles

  2-1-3  109.37992579   2-1-4  109.37980975   2-1-5  109.56240831   3-1-4  109.37980975

  3-1-5  109.56240831   4-1-5  109.56250040   7-6-8  109.96738063   7-6-9  109.15709607

  7- 6-10  109.56233046   8- 6- 9  109.37975583   8- 6-10  109.37963979   9- 6-10  109.37963979

 NUCLEAR CHARGE:                   20
 NUMBER OF PRIMITIVE AOS:         110
 NUMBER OF SYMMETRY AOS:          108
 NUMBER OF CONTRACTIONS:           68   (  68A   )
 NUMBER OF CORE ORBITALS:           2   (   2A   )
 NUMBER OF VALENCE ORBITALS:       16   (  16A   )


 NUCLEAR REPULSION ENERGY   41.34214393


 Eigenvalues of metric

         1 0.113E-01 0.127E-01 0.348E-01 0.350E-01 0.355E-01 0.374E-01 0.383E-01 0.385E-01


 Contracted 2-electron integrals neglected if value below      1.0D-16
 AO integral compression algorithm  1   Integral accuracy      1.0D-16

     21.758 MB (compressed) written to integral file ( 87.5%)

     Node minimum: 21.758 MB, node maximum: 21.758 MB


 NUMBER OF SORTED TWO-ELECTRON INTEGRALS:    2753031.     BUFFER LENGTH:  32768
 NUMBER OF SEGMENTS:   1  SEGMENT LENGTH:    2753031      RECORD LENGTH: 524288

 Memory used in sort:       3.31 MW

 SORT1 READ     3104305. AND WROTE     2690786. INTEGRALS IN      8 RECORDS. CPU TIME:     0.03 SEC, REAL TIME:     0.05 SEC
 SORT2 READ     2690786. AND WROTE     2753031. INTEGRALS IN     83 RECORDS. CPU TIME:     0.05 SEC, REAL TIME:     0.05 SEC

 FILE SIZES:   FILE 1:    21.6 MBYTE,  FILE 4:    33.6 MBYTE,   TOTAL:     55.2 MBYTE

 OPERATOR DM      FOR CENTER  0  COORDINATES:    0.000000    0.000000    0.000000


 **********************************************************************************************************************************
 DATASETS  * FILE   NREC   LENGTH (MB)   RECORD NAMES
              1      19       21.65       500      610      700      900      950      970     1000      129      960     1100   
                                          VAR    BASINP    GEOM    SYMINP    ZMAT    AOBASIS   BASIS     P2S    ABASIS      S 
                                         1400     1410     1200     1210     1080     1600     1650     1300     1700   
                                           T        V       H0       H01     AOSYM     SMH    MOLCAS    ERIS     OPER   

 PROGRAMS   *        TOTAL       INT
 CPU TIMES  *         0.48      0.44
 REAL TIME  *         0.70 SEC
 DISK USED  *        77.71 MB      
 GA USED    *         0.00 MB       (max)       0.00 MB       (current)
 **********************************************************************************************************************************

1PROGRAM * RHF-SCF (CLOSED SHELL)       Authors: W. Meyer, H.-J. Werner


 NUMBER OF ELECTRONS:      10+   10-    SPACE SYMMETRY=1    SPIN SYMMETRY: Singlet 
 CONVERGENCE THRESHOLDS:    1.00E-10 (Density)    1.00E-13 (Energy)
 MAX. NUMBER OF ITERATIONS:      200
 INTERPOLATION TYPE:            DIIS
 INTERPOLATION STEPS:              2 (START)      1 (STEP)
 LEVEL SHIFTS:                  0.00 (CLOSED)  0.00 (OPEN) 



 Orbital guess generated from atomic densities. Full valence occupancy:   18

 Molecular orbital dump at record        2100.2

 ITERATION    DDIFF          GRAD             ENERGY        2-EL.EN.            DIPOLE MOMENTS         DIIS
    1      0.000D+00      0.000D+00       -80.35960326    134.829254    0.00253   -0.00173    0.00275    0
    2      0.000D+00      0.637D-02       -80.39227314    132.550455   -0.00102    0.00069    0.00101    1
    3      0.132D-01      0.234D-02       -80.39613500    133.351807   -0.00099    0.00080    0.00129    2
    4      0.460D-02      0.630D-03       -80.39666373    133.215059   -0.00138    0.00114    0.00113    3
    5      0.165D-02      0.664D-04       -80.39666825    133.221095   -0.00144    0.00119    0.00111    4
    6      0.233D-03      0.393D-05       -80.39666828    133.220957   -0.00144    0.00120    0.00111    5
    7      0.206D-04      0.236D-06       -80.39666828    133.220955   -0.00144    0.00120    0.00111    5
    8      0.751D-06      0.443D-07       -80.39666828    133.220957   -0.00144    0.00120    0.00111    4
    9      0.123D-06      0.123D-07       -80.39666828    133.220958   -0.00144    0.00120    0.00111    4
   10      0.427D-07      0.216D-08       -80.39666828    133.220958   -0.00144    0.00120    0.00111    5
   11      0.706D-08      0.281D-09       -80.39666828    133.220958   -0.00144    0.00120    0.00111    5
   12      0.796D-09      0.765D-10       -80.39666828    133.220958   -0.00144    0.00120    0.00111    6
   13      0.181D-09      0.235D-10       -80.39666828    133.220958   -0.00144    0.00120    0.00111    6
   14      0.665D-10      0.529D-11       -80.39666828    133.220958   -0.00144    0.00120    0.00111    0

 Final occupancy:  10

 !RHF STATE 1.1 Energy                -80.396668275887
 Nuclear energy                        41.34214393
 One-electron energy                 -188.34929108
 Two-electron energy                   66.61047887
 Virial quotient                       -1.00229808
 !RHF STATE 1.1 Dipole moment          -0.00144477     0.00120001     0.00111202
 Dipole moment /Debye                  -0.00367200     0.00304992     0.00282630

 Orbital energies:

         1.1          2.1          3.1          4.1          5.1          6.1          7.1          8.1          9.1         10.1
    -11.215306   -11.215280    -0.944250    -0.938390    -0.550061    -0.545487    -0.544927    -0.538181    -0.537629    -0.534657

        11.1         12.1
      0.172481     0.229225


 **********************************************************************************************************************************
 DATASETS  * FILE   NREC   LENGTH (MB)   RECORD NAMES
              1      19       21.65       500      610      700      900      950      970     1000      129      960     1100   
                                          VAR    BASINP    GEOM    SYMINP    ZMAT    AOBASIS   BASIS     P2S    ABASIS      S 
                                         1400     1410     1200     1210     1080     1600     1650     1300     1700   
                                           T        V       H0       H01     AOSYM     SMH    MOLCAS    ERIS     OPER   

              2       3        0.51       700     1000     2100   
                                         GEOM     BASIS     RHF  

 PROGRAMS   *        TOTAL       RHF       INT
 CPU TIMES  *         0.80      0.32      0.44
 REAL TIME  *         1.06 SEC
 DISK USED  *        77.71 MB      
 GA USED    *         0.00 MB       (max)       0.00 MB       (current)
 **********************************************************************************************************************************


1PROGRAM * CCSD (Closed-shell coupled cluster)     Authors: C. Hampel, H.-J. Werner, 1991, M. Deegan, P.J. Knowles, 1992


 Convergence thresholds:  THRVAR = 1.00D-08  THRDEN = 1.00D-12

 CCSD(T)     terms to be evaluated (factor= 1.000)


 Number of core orbitals:           2 (   2 )
 Number of closed-shell orbitals:   8 (   8 )
 Number of external orbitals:      58 (  58 )

 Molecular orbitals read from record     2100.2  Type=RHF/CANONICAL (state 1.1)

 Number of N-1 electron functions:               8
 Number of N-2 electron functions:              36
 Number of singly external CSFs:               464
 Number of doubly external CSFs:            107880
 Total number of CSFs:                      108345

 Length of J-op  integral file:               0.00 MB
 Length of K-op  integral file:               0.35 MB
 Length of 3-ext integral record:             0.00 MB

 Memory could be reduced to 2.66 Mwords without degradation in triples

 Integral transformation finished. Total CPU:   0.07 sec, npass=  1  Memory used:   1.86 MW

 Reference energy:                    -80.39666828

 MP2 singlet pair energy:              -0.23207814
 MP2 triplet pair energy:              -0.09154930
 MP2 correlation energy:               -0.32362744
 MP2 total energy:                    -80.72029572

 SCS-MP2 correlation energy:           -0.33545778   (PS=  1.200000  PT=  0.333333)
 SCS-MP2 total energy:                -80.73212606

 ITER.      SQ.NORM     CORR.ENERGY   TOTAL ENERGY   ENERGY CHANGE        DEN1      VAR(S)    VAR(P)  DIIS     TIME
   1      1.13421112    -0.36752922   -80.76419750    -0.04390178    -0.03297784  0.50D-03  0.24D-02  1  1     0.22
   2      1.14682044    -0.37032666   -80.76699493    -0.00279744    -0.01276567  0.15D-04  0.96D-04  2  2     0.37
   3      1.14861173    -0.37049770   -80.76716598    -0.00017105    -0.00095460  0.17D-05  0.56D-05  3  3     0.52
   4      1.14897996    -0.37051799   -80.76718627    -0.00002029    -0.00016614  0.25D-07  0.35D-06  4  4     0.67
   5      1.14902590    -0.37051551   -80.76718379     0.00000248    -0.00002393  0.18D-08  0.18D-07  5  5     0.82
   6      1.14902714    -0.37051545   -80.76718373     0.00000006    -0.00000007  0.19D-09  0.12D-08  6  6     0.97
   7      1.14902722    -0.37051571   -80.76718399    -0.00000026     0.00000014  0.13D-10  0.71D-10  6  1     1.12
   8      1.14902740    -0.37051571   -80.76718398     0.00000001    -0.00000013  0.15D-11  0.41D-11  6  2     1.26
   9      1.14902742    -0.37051570   -80.76718397     0.00000001    -0.00000003  0.15D-12  0.26D-12  6  3     1.42
  10      1.14902742    -0.37051569   -80.76718397     0.00000000     0.00000001  0.11D-13  0.23D-13  6  4     1.56
  11      1.14902741    -0.37051569   -80.76718397    -0.00000000     0.00000001  0.81D-15  0.19D-14  6  5     1.71
  12      1.14902740    -0.37051569   -80.76718397    -0.00000000     0.00000000  0.44D-16  0.23D-15  6  6     1.86
  13      1.14902740    -0.37051569   -80.76718397    -0.00000000     0.00000000  0.34D-17  0.28D-16  6  1     2.00
  14      1.14902740    -0.37051569   -80.76718397     0.00000000     0.00000000  0.60D-18  0.37D-17  6  2     2.15
  15      1.14902740    -0.37051569   -80.76718397     0.00000000     0.00000000  0.72D-19  0.37D-18  6  3     2.30
  16      1.14902740    -0.37051569   -80.76718397    -0.00000000     0.00000000  0.16D-20  0.20D-19  6  5     2.45
  17      1.14902740    -0.37051569   -80.76718397    -0.00000000     0.00000000  0.19D-21  0.56D-21  6  4     2.60
  18      1.14902740    -0.37051569   -80.76718397     0.00000000    -0.00000000  0.45D-22  0.51D-22  6  6     2.74

 Norm of t1 vector:      0.03062856      S-energy:    -0.00000000      T1 diagnostic:  0.00541442
                                                                       D1 diagnostic:  0.00877541


 Total CPU time for triples:      1.09 sec


 RESULTS
 =======

  Reference energy                    -80.396668275888
  CCSD singlet pair energy             -0.281841841270
  CCSD triplet pair energy             -0.088673853467
  CCSD correlation energy              -0.370515694737

  Triples (T) contribution             -0.007535728639
  Total correlation energy             -0.378051423377

  CCSD total energy                   -80.767183970625
  CCSD[T] energy                      -80.774895893122
  CCSD-T energy                       -80.774625260505
 !CCSD(T) total energy                -80.774719699264

 Timing summary (sec):

 STEP                 CPU(USER)    SYS     CPU(TOT)    WALL
 Transformation          0.08      0.02      0.10      0.09
 CCSD iterations         2.66      0.12      2.78      2.82
 Triples                 1.09      0.03      1.12      1.11

 Program statistics:

 Available memory in ccsd:               999999644
 Min. memory needed in ccsd:                356281
 Max. memory used in ccsd:                  442401
 Max. memory used in cckext:                403930 (18 integral passes)



 **********************************************************************************************************************************
 DATASETS  * FILE   NREC   LENGTH (MB)   RECORD NAMES
              1      20       30.11       500      610      700      900      950      970     1000      129      960     1100   
                                          VAR    BASINP    GEOM    SYMINP    ZMAT    AOBASIS   BASIS     P2S    ABASIS      S 
                                         1400     1410     1200     1210     1080     1600     1650     1300     1700     1380   
                                           T        V       H0       H01     AOSYM     SMH    MOLCAS    ERIS     OPER     JKOP   

              2       3        0.51       700     1000     2100   
                                         GEOM     BASIS     RHF  

 PROGRAMS   *        TOTAL   CCSD(T)       RHF       INT
 CPU TIMES  *         4.64      3.83      0.32      0.44
 REAL TIME  *         5.11 SEC
 DISK USED  *        77.71 MB      
 GA USED    *         0.00 MB       (max)       0.00 MB       (current)
 **********************************************************************************************************************************

        CCSD(T)         RHF-SCF 
    -80.77471970    -80.39666828
 **********************************************************************************************************************************
 Variable memory released
