
 Primary working directories    : /tmp/1011018.240.gen6.q
 Secondary working directories  : /tmp/1011018.240.gen6.q
 Wavefunction directory         : /home/vulcan/mel64643/wfu/
 Main file repository           : /tmp/1011018.240.gen6.q/

 ARCHNAME  : Linux/x86_64
 FC        : /opt/intel/compilers_and_libraries_2016.1.150/linux/bin/intel64/ifort
 FCVERSION : 16.0.1
 BLASLIB   : -mkl
 id        : ccgc

 Nodes     nprocs
 n086         1
 ga_uses_ma=false, calling ma_init with nominal heap.
 GA-space will be limited to   8.0 MW (determined by -G option)

 Using customized tuning parameters: mindgm=10; mindgv=16; mindgc=4; mindgr=1; noblas=0; mincuda=1000; minvec=7
 default implementation of scratch files=df  

 ***,Optimization of ethene_ethyne
 memory,1000,m
 gthresh,energy=1.0d-12,orbital=1.0d-10,oneint=1.0d-16,twoint=1.0d-16,optgrad=1.0d-6,compress=1.0d-13
 geomtyp=xyz
 
 
 
 bohr
 geometry = {
  C   -0.0000013235   -1.2648809110   -3.9738489200
  C    0.0000013235    1.2648809110   -3.9738489200
  H    1.7478730217   -2.3333241149   -3.9711473369
  H   -1.7478695641   -2.3333204571   -3.9798867389
  H   -1.7478730217    2.3333241149   -3.9711473369
  H    1.7478695641    2.3333204571   -3.9798867389
  C   -0.0000000000   -0.0000000000    5.4084221520
  C    0.0000000000   -0.0000000000    3.1100297760
  H    0.0000000000   -0.0000000000    1.0946513040
  H   -0.0000000000   -0.0000000000    7.4196142110
  X    2.0000000000    0.0000000000    5.4004221540
  X    0.0000000000    2.0000000000    5.4004221540
  X    2.0000000000    0.0000000000    3.1120297780
  X    0.0000000000    2.0000000000    3.1120297780
 }
 
 basis=aug-cc-pvdz, H=cc-pvdz
 {rhf;maxit,200}
 {mp2}

 Variables initialized (661), CPU time= 0.00 sec
 Commands  initialized (458), CPU time= 0.01 sec, 486 directives.
 Default parameters read. Elapsed time= 0.04 sec

 Checking input...
 Passed
1


                                         ***  PROGRAM SYSTEM MOLPRO  ***
                         Copyright, University College Cardiff Consultants Limited, 2008

                                    Version 2010.1 linked May 16 2016 07:17:05


 **********************************************************************************************************************************
 LABEL *   Optimization of ethene_ethyne                                                 
 Linux-4.4.3/n086(x86_64) 64 bit mpp version                                             DATE: 25-Feb-24          TIME: 03:25:06  
 **********************************************************************************************************************************

 SHA1:             9e8077add272b0f3cad6f7df79ec5211205f459d
 **********************************************************************************************************************************

 THRESHOLDS:

 ZERO    =  1.00D-12  ONEINT  =  1.00D-16  TWOINT  =  1.00D-16  PREFAC  =  1.00D-14  LOCALI  =  1.00D-09  EORDER  =  1.00D-04
 ENERGY  =  1.00D-12  ETEST   =  0.00D+00  EDENS   =  0.00D+00  THRDEDEF=  1.00D-06  GRADIENT=  1.00D-02  STEP    =  1.00D-03
 ORBITAL =  1.00D-10  CIVEC   =  1.00D-05  COEFF   =  1.00D-04  PRINTCI =  5.00D-02  PUNCHCI =  9.90D+01  OPTGRAD =  1.00D-06
 OPTENERG=  1.00D-06  OPTSTEP =  3.00D-04  THRGRAD =  1.00D-10  COMPRESS=  1.00D-13  VARMIN  =  1.00D-07  VARMAX  =  1.00D-03
 THRDOUB =  0.00D+00  THRDIV  =  1.00D-05  THRRED  =  1.00D-07  THRPSP  =  1.00D+00  THRDC   =  1.00D-10  THRCS   =  1.00D-10
 THRNRM  =  1.00D-08  THREQ   =  0.00D+00  THRDE   =  1.00D+00  THRREF  =  1.00D-05  SPARFAC =  1.00D+00  THRDLP  =  1.00D-07
 THRDIA  =  1.00D-10  THRDLS  =  1.00D-07  THRGPS  =  0.00D+00  THRKEX  =  0.00D+00  THRDIS  =  2.00D-01  THRVAR  =  1.00D-10
 THRLOC  =  1.00D-06  THRGAP  =  1.00D-06  THRLOCT = -1.00D+00  THRGAPT = -1.00D+00  THRORB  =  1.00D-06  THRMLTP =  0.00D+00
 THRCPQCI=  1.00D-10  KEXTA   =  0.00D+00  THRCOARS=  0.00D+00  SYMTOL  =  1.00D-06  GRADTOL =  1.00D-06  THROVL  =  1.00D-08
 THRORTH =  1.00D-08  GRID    =  1.00D-06  GRIDMAX =  1.00D-03  DTMAX   =  0.00D+00

 SETTING GEOMTYP        =    XYZ
 ZUNIT=BOHR
 

 Variable memory set to 1000000000 words,  buffer space   230000 words

 SETTING BASIS          =    AUG-CC-PVDZ,H=CC-PVDZ


 Recomputing integrals since basis changed


 Using spherical harmonics

 Library entry C      S aug-cc-pVDZ          selected for orbital group  1
 Library entry C      P aug-cc-pVDZ          selected for orbital group  1
 Library entry C      D aug-cc-pVDZ          selected for orbital group  1
 Library entry H      S cc-pVDZ              selected for orbital group  2
 Library entry H      P cc-pVDZ              selected for orbital group  2

1PROGRAM * SEWARD (Integral evaluation for generally contracted gaussian basis sets)     Author: Roland Lindh, 1990

 Geometry written to block  1 of record 700


 Point group  C2  



 ATOMIC COORDINATES

 NR  ATOM    CHARGE       X              Y              Z

   1  C       6.00   -0.000001323   -1.264880911   -3.973848920
   2  C       6.00    0.000001323    1.264880911   -3.973848920
   3  H       1.00    1.747873022   -2.333324115   -3.971147337
   4  H       1.00   -1.747873022    2.333324115   -3.971147337
   5  H       1.00   -1.747869564   -2.333320457   -3.979886739
   6  H       1.00    1.747869564    2.333320457   -3.979886739
   7  C       6.00    0.000000000    0.000000000    5.408422152
   8  C       6.00    0.000000000    0.000000000    3.110029776
   9  H       1.00    0.000000000    0.000000000    1.094651304
  10  H       1.00    0.000000000    0.000000000    7.419614211

 Bond lengths in Bohr (Angstrom)

 1-2  2.529761822  1-3  2.048570942  1-5  2.048570942  2-4  2.048570942  2-6  2.048570942
     ( 1.338692300)     ( 1.084057054)     ( 1.084057054)     ( 1.084057054)     ( 1.084057054)

  7- 8  2.298392376   7-10  2.011192059   8- 9  2.015378472
       ( 1.216256863)       ( 1.064277001)       ( 1.066492355)

 Bond angles

  1-2-4  121.43658156   1-2-6  121.43658155   2-1-3  121.43658156   2-1-5  121.43658155

  3- 1- 5  117.12675152   4- 2- 6  117.12675152   7- 8- 9  180.00000000   8- 7-10  179.99999879

 NUCLEAR CHARGE:                   30
 NUMBER OF PRIMITIVE AOS:         190
 NUMBER OF SYMMETRY AOS:          182
 NUMBER OF CONTRACTIONS:          122   (  65A   +  57B   )
 NUMBER OF CORE ORBITALS:           4   (   3A   +   1B   )
 NUMBER OF VALENCE ORBITALS:       22   (  12A   +  10B   )


 NUCLEAR REPULSION ENERGY   85.40778273


 Eigenvalues of metric

         1 0.830E-04 0.231E-03 0.293E-02 0.483E-02 0.669E-02 0.682E-02 0.846E-02 0.102E-01
         2 0.172E-03 0.269E-03 0.510E-02 0.589E-02 0.853E-02 0.963E-02 0.112E-01 0.183E-01


 Contracted 2-electron integrals neglected if value below      1.0D-16
 AO integral compression algorithm  1   Integral accuracy      1.0D-16

     103.023 MB (compressed) written to integral file ( 73.4%)

     Node minimum: 103.023 MB, node maximum: 103.023 MB


 NUMBER OF SORTED TWO-ELECTRON INTEGRALS:   14305671.     BUFFER LENGTH:  32768
 NUMBER OF SEGMENTS:   1  SEGMENT LENGTH:   14305671      RECORD LENGTH: 524288

 Memory used in sort:      14.86 MW

 SORT1 READ    17552419. AND WROTE    13306233. INTEGRALS IN     39 RECORDS. CPU TIME:     0.17 SEC, REAL TIME:     0.25 SEC
 SORT2 READ    13306233. AND WROTE    14305671. INTEGRALS IN    393 RECORDS. CPU TIME:     0.18 SEC, REAL TIME:     0.24 SEC

 FILE SIZES:   FILE 1:    90.7 MBYTE,  FILE 4:   163.6 MBYTE,   TOTAL:    254.3 MBYTE

 OPERATOR DM      FOR CENTER  0  COORDINATES:    0.000000    0.000000    0.000000


 **********************************************************************************************************************************
 DATASETS  * FILE   NREC   LENGTH (MB)   RECORD NAMES
              1      19       90.79       500      610      700      900      950      970     1000      129      960     1100   
                                          VAR    BASINP    GEOM    SYMINP    ZMAT    AOBASIS   BASIS     P2S    ABASIS      S 
                                         1400     1410     1200     1210     1080     1600     1650     1300     1700   
                                           T        V       H0       H01     AOSYM     SMH    MOLCAS    ERIS     OPER   

 PROGRAMS   *        TOTAL       INT
 CPU TIMES  *         1.21      1.16
 REAL TIME  *         1.57 SEC
 DISK USED  *       358.26 MB      
 GA USED    *         0.00 MB       (max)       0.00 MB       (current)
 **********************************************************************************************************************************

1PROGRAM * RHF-SCF (CLOSED SHELL)       Authors: W. Meyer, H.-J. Werner


 NUMBER OF ELECTRONS:      15+   15-
 CONVERGENCE THRESHOLDS:    1.00E-10 (Density)    1.00E-13 (Energy)
 MAX. NUMBER OF ITERATIONS:      200
 INTERPOLATION TYPE:            DIIS
 INTERPOLATION STEPS:              2 (START)      1 (STEP)
 LEVEL SHIFTS:                  0.00 (CLOSED)  0.00 (OPEN) 



 Orbital guess generated from atomic densities. Full valence occupancy:   15  11

 Molecular orbital dump at record        2100.2

 Initial alpha occupancy:  10   5
 Initial beta  occupancy:  10   5
 Wave function symmetry:    1

 ITERATION    DDIFF          GRAD             ENERGY        2-EL.EN.            DIPOLE MOMENTS         DIIS
    1      0.000D+00      0.000D+00      -154.83486214    273.180110    0.00000    0.00000   -0.05894    0
    2      0.000D+00      0.484D-02      -154.86673663    270.863226    0.00000    0.00000   -0.14710    1
    3      0.119D-01      0.151D-02      -154.86965430    271.752687    0.00000    0.00000   -0.12289    2
    4      0.297D-02      0.438D-03      -154.87004429    271.540121    0.00000    0.00000   -0.14333    3
    5      0.124D-02      0.916D-04      -154.87005671    271.556843    0.00000    0.00000   -0.13574    4
    6      0.220D-03      0.417D-04      -154.87005887    271.557444    0.00000    0.00000   -0.14095    5
    7      0.710D-04      0.898D-05      -154.87005902    271.556888    0.00000    0.00000   -0.14067    6
    8      0.221D-04      0.206D-05      -154.87005903    271.556786    0.00000    0.00000   -0.14088    7
    9      0.555D-05      0.502D-06      -154.87005903    271.556826    0.00000    0.00000   -0.14092    7
   10      0.172D-05      0.724D-07      -154.87005903    271.556823    0.00000    0.00000   -0.14093    7
   11      0.304D-06      0.178D-07      -154.87005903    271.556827    0.00000    0.00000   -0.14093    6
   12      0.618D-07      0.801D-08      -154.87005903    271.556825    0.00000    0.00000   -0.14093    6
   13      0.243D-07      0.447D-08      -154.87005903    271.556826    0.00000    0.00000   -0.14093    7
   14      0.200D-07      0.184D-08      -154.87005903    271.556825    0.00000    0.00000   -0.14093    7
   15      0.835D-08      0.662D-09      -154.87005903    271.556825    0.00000    0.00000   -0.14093    8
   16      0.227D-08      0.151D-09      -154.87005903    271.556825    0.00000    0.00000   -0.14093    8
   17      0.385D-09      0.277D-10      -154.87005903    271.556825    0.00000    0.00000   -0.14093    8
   18      0.956D-10      0.812D-11      -154.87005903    271.556825    0.00000    0.00000   -0.14093    8
   19      0.261D-10      0.195D-11      -154.87005903    271.556825    0.00000    0.00000   -0.14093    0

 Final occupancy:  10   5

 !RHF STATE 1.1 Energy               -154.870059028304
 Nuclear energy                        85.40778273
 One-electron energy                 -376.05625450
 Two-electron energy                  135.77841274
 Virial quotient                       -1.00237420
 !RHF STATE 1.1 Dipole moment           0.00000000     0.00000000    -0.14093025
 Dipole moment /Debye                   0.00000000     0.00000000    -0.35818549

 Orbital energies:

         1.1          2.1          3.1          4.1          5.1          6.1          7.1          8.1          9.1         10.1
    -11.250452   -11.249906   -11.246379    -1.044600    -1.022806    -0.761322    -0.671725    -0.595127    -0.515904    -0.386550

        11.1         12.1
      0.065060     0.080438

         1.2          2.2          3.2          4.2          5.2          6.2          7.2
    -11.248838    -0.802788    -0.651482    -0.400919    -0.400916     0.065111     0.092504


 **********************************************************************************************************************************
 DATASETS  * FILE   NREC   LENGTH (MB)   RECORD NAMES
              1      19       90.79       500      610      700      900      950      970     1000      129      960     1100   
                                          VAR    BASINP    GEOM    SYMINP    ZMAT    AOBASIS   BASIS     P2S    ABASIS      S 
                                         1400     1410     1200     1210     1080     1600     1650     1300     1700   
                                           T        V       H0       H01     AOSYM     SMH    MOLCAS    ERIS     OPER   

              2       3        0.64       700     1000     2100   
                                         GEOM     BASIS     RHF  

 PROGRAMS   *        TOTAL       RHF       INT
 CPU TIMES  *         2.64      1.42      1.16
 REAL TIME  *         3.19 SEC
 DISK USED  *       358.26 MB      
 GA USED    *         0.00 MB       (max)       0.00 MB       (current)
 **********************************************************************************************************************************


1PROGRAM * MP2 (Closed-shell)     Authors: C. Hampel, H.-J. Werner, 1991, M. Deegan, P.J. Knowles, 1992


 Convergence thresholds:  THRVAR = 1.00D-08  THRDEN = 1.00D-12

 Number of core orbitals:           4 (   3   1 )
 Number of closed-shell orbitals:  11 (   7   4 )
 Number of external orbitals:     107 (  55  52 )

 Molecular orbitals read from record     2100.2  Type=RHF/CANONICAL (state 1.1)

 Number of N-1 electron functions:              11
 Number of N-2 electron functions:              66
 Number of singly external CSFs:               593
 Number of doubly external CSFs:            346941
 Total number of CSFs:                      347535

 Length of J-op  integral file:               0.00 MB
 Length of K-op  integral file:               0.54 MB

 Integral transformation finished. Total CPU:   0.17 sec, npass=  1  Memory used:   0.66 MW

 Memory needed for MP2:                      0.04 MW

 SCS-MP2 correlation energy:           -0.548819521416   (PS=  1.200000  PT=  0.333333)
 SCS-MP2 total energy:               -155.418878549721


  Reference energy                   -154.870059028305
  MP2 singlet pair energy              -0.358313350302
  MP2 triplet pair energy              -0.190998483837
  MP2 correlation energy               -0.549311834138

 !MP2 total energy                   -155.419370862443


 **********************************************************************************************************************************
 DATASETS  * FILE   NREC   LENGTH (MB)   RECORD NAMES
              1      20       96.83       500      610      700      900      950      970     1000      129      960     1100   
                                          VAR    BASINP    GEOM    SYMINP    ZMAT    AOBASIS   BASIS     P2S    ABASIS      S 
                                         1400     1410     1200     1210     1080     1600     1650     1300     1700     1380   
                                           T        V       H0       H01     AOSYM     SMH    MOLCAS    ERIS     OPER     JKOP   

              2       3        0.64       700     1000     2100   
                                         GEOM     BASIS     RHF  

 PROGRAMS   *        TOTAL       MP2       RHF       INT
 CPU TIMES  *         2.82      0.18      1.42      1.16
 REAL TIME  *         3.42 SEC
 DISK USED  *       358.26 MB      
 GA USED    *         0.00 MB       (max)       0.00 MB       (current)
 **********************************************************************************************************************************

        MP2             RHF-SCF 
   -155.41937086   -154.87005903
 **********************************************************************************************************************************
 Variable memory released
