
 Primary working directories    : /tmp/985636.727.gen6.q
 Secondary working directories  : /tmp/985636.727.gen6.q
 Wavefunction directory         : /home/vulcan/jj04645/wfu/
 Main file repository           : /tmp/985636.727.gen6.q/

 ARCHNAME  : Linux/x86_64
 FC        : /opt/intel/compilers_and_libraries_2016.1.150/linux/bin/intel64/ifort
 FCVERSION : 16.0.1
 BLASLIB   : -mkl
 id        : ccgc

 Nodes     nprocs
 n077         1
 ga_uses_ma=false, calling ma_init with nominal heap.
 GA-space will be limited to   8.0 MW (determined by -G option)

 Using customized tuning parameters: mindgm=10; mindgv=16; mindgc=4; mindgr=1; noblas=0; mincuda=1000; minvec=7
 default implementation of scratch files=df  

 ***,Optimization of tetrahydrothiopyran
 memory,1000,m
 gthresh,energy=1.0d-12,orbital=1.0d-10,oneint=1.0d-16,twoint=1.0d-16,optgrad=1.0d-6,compress=1.0d-13
 geomtyp=xyz
 
 bohr
 geometry = {
  S    0.3513347521    2.6995818622    0.0003874957
  C   -0.3293207278   -3.3657290590    0.0005629217
  C   -0.6639568846    0.6685134533   -2.5805917538
  C   -0.6627237210    0.6685243843    2.5818601012
  C    0.4716321893   -1.9817592443   -2.4135341250
  C    0.4727854165   -1.9817490212    2.4142711816
  H   -2.7255277472    0.5774258482   -2.5804328999
  H   -2.7342846766    0.5769953761    2.5826905424
  H   -0.0733245292    1.6187683607   -4.3191124648
  H   -0.0741217167    1.6141903134    4.3116867320
  H    2.5336083987   -1.8359639069   -2.4809252560
  H    2.5347935861   -1.8359533982    2.4806765880
  H   -0.1283270950   -3.0748591978   -4.0650684423
  H   -0.1263847822   -3.0748419845    4.0660965655
  H    0.4667906166   -5.2722305700    0.0003767901
  H   -2.3917080957   -3.5807346329    0.0010560234
 }
 
 basis=VDZ
 {rhf;maxit,200}
 {ccsd(t);maxit,200}

 Variables initialized (661), CPU time= 0.00 sec
 Commands  initialized (458), CPU time= 0.00 sec, 486 directives.
 Default parameters read. Elapsed time= 0.05 sec

 Checking input...
 Passed
1


                                         ***  PROGRAM SYSTEM MOLPRO  ***
                         Copyright, University College Cardiff Consultants Limited, 2008

                                    Version 2010.1 linked May 16 2016 07:17:05


 **********************************************************************************************************************************
 LABEL *   Optimization of tetrahydrothiopyran                                           
 Linux-4.4.3/n077(x86_64) 64 bit mpp version                                             DATE: 26-Jan-24          TIME: 14:28:00  
 **********************************************************************************************************************************

 SHA1:             9e8077add272b0f3cad6f7df79ec5211205f459d
 **********************************************************************************************************************************

 THRESHOLDS:

 ZERO    =  1.00D-12  ONEINT  =  1.00D-16  TWOINT  =  1.00D-16  PREFAC  =  1.00D-14  LOCALI  =  1.00D-09  EORDER  =  1.00D-04
 ENERGY  =  1.00D-12  ETEST   =  0.00D+00  EDENS   =  0.00D+00  THRDEDEF=  1.00D-06  GRADIENT=  1.00D-02  STEP    =  1.00D-03
 ORBITAL =  1.00D-10  CIVEC   =  1.00D-05  COEFF   =  1.00D-04  PRINTCI =  5.00D-02  PUNCHCI =  9.90D+01  OPTGRAD =  1.00D-06
 OPTENERG=  1.00D-06  OPTSTEP =  3.00D-04  THRGRAD =  1.00D-10  COMPRESS=  1.00D-13  VARMIN  =  1.00D-07  VARMAX  =  1.00D-03
 THRDOUB =  0.00D+00  THRDIV  =  1.00D-05  THRRED  =  1.00D-07  THRPSP  =  1.00D+00  THRDC   =  1.00D-10  THRCS   =  1.00D-10
 THRNRM  =  1.00D-08  THREQ   =  0.00D+00  THRDE   =  1.00D+00  THRREF  =  1.00D-05  SPARFAC =  1.00D+00  THRDLP  =  1.00D-07
 THRDIA  =  1.00D-10  THRDLS  =  1.00D-07  THRGPS  =  0.00D+00  THRKEX  =  0.00D+00  THRDIS  =  2.00D-01  THRVAR  =  1.00D-10
 THRLOC  =  1.00D-06  THRGAP  =  1.00D-06  THRLOCT = -1.00D+00  THRGAPT = -1.00D+00  THRORB  =  1.00D-06  THRMLTP =  0.00D+00
 THRCPQCI=  1.00D-10  KEXTA   =  0.00D+00  THRCOARS=  0.00D+00  SYMTOL  =  1.00D-06  GRADTOL =  1.00D-06  THROVL  =  1.00D-08
 THRORTH =  1.00D-08  GRID    =  1.00D-06  GRIDMAX =  1.00D-03  DTMAX   =  0.00D+00

 SETTING GEOMTYP        =    XYZ
 ZUNIT=BOHR
 

 Variable memory set to 1000000000 words,  buffer space   230000 words

 SETTING BASIS          =    VDZ


 Recomputing integrals since basis changed


 Using spherical harmonics

 Library entry S      S cc-pVDZ              selected for orbital group  1
 Library entry S      P cc-pVDZ              selected for orbital group  1
 Library entry S      D cc-pVDZ              selected for orbital group  1
 Library entry C      S cc-pVDZ              selected for orbital group  2
 Library entry C      P cc-pVDZ              selected for orbital group  2
 Library entry C      D cc-pVDZ              selected for orbital group  2
 Library entry H      S cc-pVDZ              selected for orbital group  3
 Library entry H      P cc-pVDZ              selected for orbital group  3

1PROGRAM * SEWARD (Integral evaluation for generally contracted gaussian basis sets)     Author: Roland Lindh, 1990

 Geometry written to block  1 of record 700


 Point group  C1  



 ATOMIC COORDINATES

 NR  ATOM    CHARGE       X              Y              Z

   1  S      16.00    0.351334752    2.699581862    0.000387496
   2  C       6.00   -0.329320728   -3.365729059    0.000562922
   3  C       6.00   -0.663956885    0.668513453   -2.580591754
   4  C       6.00   -0.662723721    0.668524384    2.581860101
   5  C       6.00    0.471632189   -1.981759244   -2.413534125
   6  C       6.00    0.472785416   -1.981749021    2.414271182
   7  H       1.00   -2.725527747    0.577425848   -2.580432900
   8  H       1.00   -2.734284677    0.576995376    2.582690542
   9  H       1.00   -0.073324529    1.618768361   -4.319112465
  10  H       1.00   -0.074121717    1.614190313    4.311686732
  11  H       1.00    2.533608399   -1.835963907   -2.480925256
  12  H       1.00    2.534793586   -1.835953398    2.480676588
  13  H       1.00   -0.128327095   -3.074859198   -4.065068442
  14  H       1.00   -0.126384782   -3.074841984    4.066096565
  15  H       1.00    0.466790617   -5.272230570    0.000376790
  16  H       1.00   -2.391708096   -3.580734633    0.001056023

 Bond lengths in Bohr (Angstrom)

  1- 3  3.437660524   1- 4  3.437660524   2- 5  2.895645450   2- 6  2.895645451   2-15  2.066044849
       ( 1.819131601)       ( 1.819131602)       ( 1.532309578)       ( 1.532309578)       ( 1.093303847)

  2-16  2.073564394   3- 5  2.888150995   3- 7  2.063582176   3- 9  2.067434456   4- 6  2.888150995
       ( 1.097283019)       ( 1.528343683)       ( 1.092000657)       ( 1.094039195)       ( 1.528343683)

  4- 8  2.073582176   4-10  2.057434456   5-11  2.068222361   5-13  2.069392242   6-12  2.068222361
       ( 1.097292429)       ( 1.088747423)       ( 1.094456136)       ( 1.095075211)       ( 1.094456136)

  6-14  2.069392242
       ( 1.095075211)

 Bond angles

  1-3-5  112.49558371   1-3-7  108.72810640   1-3-9  105.98655162   1-4-6  112.49558347

  1- 4- 8  108.72810645   1- 4-10  105.98655167   2- 5- 3  112.21281447   2- 5-11  109.67156778

  2- 5-13  109.43267556   2- 6- 4  112.21281468   2- 6-12  109.67156774   2- 6-14  109.43267551

  3- 1- 4   97.33107993   3- 5-11  108.99161334   3- 5-13  108.93892992   4- 6-12  108.99161330

  4- 6-14  108.93892988   5- 2- 6  112.94732149   5- 2-15  109.53488105   5- 2-16  108.95777468

  5- 3- 7  110.62783251   5- 3- 9  110.98267777   6- 2-15  109.53488105   6- 2-16  108.95777469

  6- 4- 8  110.62783256   6- 4-10  110.98267781   7- 3- 9  107.80379149   8- 4-10  107.80379155

 11- 5-13  107.47420380  12- 6-14  107.47420375  15- 2-16  106.71266514

 NUCLEAR CHARGE:                   56
 NUMBER OF PRIMITIVE AOS:         247
 NUMBER OF SYMMETRY AOS:          241
 NUMBER OF CONTRACTIONS:          138   ( 138A   )
 NUMBER OF CORE ORBITALS:          10   (  10A   )
 NUMBER OF VALENCE ORBITALS:       34   (  34A   )


 NUCLEAR REPULSION ENERGY  312.12593880


 Eigenvalues of metric

         1 0.286E-02 0.305E-02 0.427E-02 0.634E-02 0.705E-02 0.151E-01 0.157E-01 0.196E-01


 Contracted 2-electron integrals neglected if value below      1.0D-16
 AO integral compression algorithm  1   Integral accuracy      1.0D-16

     373.817 MB (compressed) written to integral file ( 94.0%)

     Node minimum: 373.817 MB, node maximum: 373.817 MB


 NUMBER OF SORTED TWO-ELECTRON INTEGRALS:   45998436.     BUFFER LENGTH:  32768
 NUMBER OF SEGMENTS:   3  SEGMENT LENGTH:   15998004      RECORD LENGTH: 524288

 Memory used in sort:      16.56 MW

 SORT1 READ    49670214. AND WROTE    45791910. INTEGRALS IN    132 RECORDS. CPU TIME:     0.44 SEC, REAL TIME:     0.70 SEC
 SORT2 READ    45791910. AND WROTE    45998436. INTEGRALS IN   1426 RECORDS. CPU TIME:     0.34 SEC, REAL TIME:     0.49 SEC

 FILE SIZES:   FILE 1:   349.2 MBYTE,  FILE 4:   553.7 MBYTE,   TOTAL:    902.9 MBYTE

 OPERATOR DM      FOR CENTER  0  COORDINATES:    0.000000    0.000000    0.000000


 **********************************************************************************************************************************
 DATASETS  * FILE   NREC   LENGTH (MB)   RECORD NAMES
              1      19      349.46       500      610      700      900      950      970     1000      129      960     1100   
                                          VAR    BASINP    GEOM    SYMINP    ZMAT    AOBASIS   BASIS     P2S    ABASIS      S 
                                         1400     1410     1200     1210     1080     1600     1650     1300     1700   
                                           T        V       H0       H01     AOSYM     SMH    MOLCAS    ERIS     OPER   

 PROGRAMS   *        TOTAL       INT
 CPU TIMES  *         4.26      4.22
 REAL TIME  *         5.07 SEC
 DISK USED  *         1.28 GB      
 GA USED    *         0.01 MB       (max)       0.00 MB       (current)
 **********************************************************************************************************************************

1PROGRAM * RHF-SCF (CLOSED SHELL)       Authors: W. Meyer, H.-J. Werner


 NUMBER OF ELECTRONS:      28+   28-    SPACE SYMMETRY=1    SPIN SYMMETRY: Singlet 
 CONVERGENCE THRESHOLDS:    1.00E-10 (Density)    1.00E-13 (Energy)
 MAX. NUMBER OF ITERATIONS:      200
 INTERPOLATION TYPE:            DIIS
 INTERPOLATION STEPS:              2 (START)      1 (STEP)
 LEVEL SHIFTS:                  0.00 (CLOSED)  0.00 (OPEN) 



 Orbital guess generated from atomic densities. Full valence occupancy:   44

 Molecular orbital dump at record        2100.2

 ITERATION    DDIFF          GRAD             ENERGY        2-EL.EN.            DIPOLE MOMENTS         DIIS
    1      0.000D+00      0.000D+00      -592.64386480   1056.822501   -0.40845   -0.80658   -0.00200    0
    2      0.000D+00      0.396D-02      -592.70490879   1054.236107   -0.20815   -0.74026    0.00052    1
    3      0.778D-02      0.132D-02      -592.71084724   1055.670566   -0.28085   -0.67803    0.00048    2
    4      0.269D-02      0.539D-03      -592.71185641   1055.052874   -0.25345   -0.71094    0.00074    3
    5      0.931D-03      0.773D-04      -592.71188212   1055.115837   -0.24957   -0.70247    0.00075    4
    6      0.180D-03      0.266D-04      -592.71188463   1055.084930   -0.25129   -0.70275    0.00076    5
    7      0.503D-04      0.620D-05      -592.71188484   1055.088117   -0.25062   -0.70264    0.00076    6
    8      0.164D-04      0.173D-05      -592.71188486   1055.087256   -0.25060   -0.70250    0.00076    7
    9      0.537D-05      0.451D-06      -592.71188486   1055.087139   -0.25059   -0.70245    0.00076    7
   10      0.127D-05      0.161D-06      -592.71188486   1055.087177   -0.25058   -0.70245    0.00076    7
   11      0.479D-06      0.343D-07      -592.71188486   1055.087163   -0.25058   -0.70245    0.00076    7
   12      0.114D-06      0.688D-08      -592.71188486   1055.087168   -0.25058   -0.70245    0.00076    7
   13      0.183D-07      0.287D-08      -592.71188486   1055.087165   -0.25058   -0.70245    0.00076    7
   14      0.632D-08      0.849D-09      -592.71188486   1055.087166   -0.25058   -0.70245    0.00076    7
   15      0.227D-08      0.278D-09      -592.71188486   1055.087166   -0.25058   -0.70245    0.00076    7
   16      0.671D-09      0.890D-10      -592.71188486   1055.087166   -0.25058   -0.70245    0.00076    8
   17      0.217D-09      0.225D-10      -592.71188486   1055.087166   -0.25058   -0.70245    0.00076    7
   18      0.612D-10      0.854D-11      -592.71188486   1055.087166   -0.25058   -0.70245    0.00076    7
   19      0.281D-10      0.325D-11      -592.71188486   1055.087166   -0.25058   -0.70245    0.00076    8
   20      0.107D-10      0.113D-11      -592.71188486   1055.087166   -0.25058   -0.70245    0.00076    8
   21      0.414D-11      0.363D-12      -592.71188486   1055.087166   -0.25058   -0.70245    0.00076    8
   22      0.126D-11      0.119D-12      -592.71188486   1055.087166   -0.25058   -0.70245    0.00076    8
   23      0.427D-12      0.604D-13      -592.71188486   1055.087166   -0.25058   -0.70245    0.00076    8
   24      0.263D-12      0.445D-13      -592.71188486   1055.087166   -0.25058   -0.70245    0.00076    9
   25      0.151D-12      0.402D-13      -592.71188486   1055.087166   -0.25058   -0.70245    0.00076    9
   26      0.105D-12      0.396D-13      -592.71188486   1055.087166   -0.25058   -0.70245    0.00076    9
   27      0.866D-13      0.310D-13      -592.71188486   1055.087166   -0.25058   -0.70245    0.00076    9
   28      0.542D-13      0.324D-13      -592.71188486   1055.087166   -0.25058   -0.70245    0.00076    9
   29      0.486D-13      0.237D-13      -592.71188486   1055.087166   -0.25058   -0.70245    0.00076    9
   30      0.326D-13      0.343D-13      -592.71188486   1055.087166   -0.25058   -0.70245    0.00076    9
   31      0.357D-13      0.235D-13      -592.71188486   1055.087166   -0.25058   -0.70245    0.00076    9
   32      0.224D-13      0.282D-13      -592.71188486   1055.087166   -0.25058   -0.70245    0.00076    9
   33      0.138D-13      0.243D-13      -592.71188486   1055.087166   -0.25058   -0.70245    0.00076    9
   34      0.378D-13      0.238D-13      -592.71188486   1055.087166   -0.25058   -0.70245    0.00076    9
   35      0.298D-13      0.284D-13      -592.71188486   1055.087166   -0.25058   -0.70245    0.00076    9
   36      0.293D-13      0.287D-13      -592.71188486   1055.087166   -0.25058   -0.70245    0.00076    9
   37      0.251D-13      0.266D-13      -592.71188486   1055.087166   -0.25058   -0.70245    0.00076    9
   38      0.273D-13      0.294D-13      -592.71188486   1055.087166   -0.25058   -0.70245    0.00076    9
   39      0.341D-13      0.270D-13      -592.71188486   1055.087166   -0.25058   -0.70245    0.00076    9
   40      0.275D-13      0.274D-13      -592.71188486   1055.087166   -0.25058   -0.70245    0.00076    9
   41      0.267D-13      0.312D-13      -592.71188486   1055.087166   -0.25058   -0.70245    0.00076    9
   42      0.335D-13      0.319D-13      -592.71188486   1055.087166   -0.25058   -0.70245    0.00076    9
   43      0.404D-13      0.334D-13      -592.71188486   1055.087166   -0.25058   -0.70245    0.00076    9
   44      0.460D-13      0.304D-13      -592.71188486   1055.087166   -0.25058   -0.70245    0.00076    9
   45      0.576D-13      0.318D-13      -592.71188486   1055.087166   -0.25058   -0.70245    0.00076    9
   46      0.664D-13      0.325D-13      -592.71188486   1055.087166   -0.25058   -0.70245    0.00076    9
   47      0.289D-13      0.258D-13      -592.71188486   1055.087166   -0.25058   -0.70245    0.00076    9
   48      0.409D-13      0.339D-13      -592.71188486   1055.087166   -0.25058   -0.70245    0.00076    9
   49      0.331D-13      0.294D-13      -592.71188486   1055.087166   -0.25058   -0.70245    0.00076    9
   50      0.318D-13      0.299D-13      -592.71188486   1055.087166   -0.25058   -0.70245    0.00076    9
   51      0.381D-13      0.299D-13      -592.71188486   1055.087166   -0.25058   -0.70245    0.00076    9
   52      0.211D-13      0.305D-13      -592.71188486   1055.087166   -0.25058   -0.70245    0.00076    9
   53      0.320D-13      0.294D-13      -592.71188486   1055.087166   -0.25058   -0.70245    0.00076    9
   54      0.653D-13      0.211D-13      -592.71188486   1055.087166   -0.25058   -0.70245    0.00076    0

 Final occupancy:  28

 !RHF STATE 1.1 Energy               -592.711884859705
 Nuclear energy                       312.12593880
 One-electron energy                -1432.38140667
 Two-electron energy                  527.54358302
 Virial quotient                       -1.00019572
 !RHF STATE 1.1 Dipole moment          -0.25058056    -0.70245109     0.00075917
 Dipole moment /Debye                  -0.63687053    -1.78533564     0.00192949

 Orbital energies:

         1.1          2.1          3.1          4.1          5.1          6.1          7.1          8.1          9.1         10.1
    -91.929695   -11.255011   -11.254991   -11.231063   -11.230981   -11.229062    -8.933587    -6.615479    -6.614055    -6.611850

        11.1         12.1         13.1         14.1         15.1         16.1         17.1         18.1         19.1         20.1
     -1.119558    -1.019981    -1.006485    -0.842406    -0.835874    -0.755649    -0.646626    -0.614241    -0.609662    -0.578822

        21.1         22.1         23.1         24.1         25.1         26.1         27.1         28.1         29.1         30.1
     -0.546933    -0.523846    -0.497906    -0.495444    -0.473061    -0.434883    -0.411332    -0.328638     0.176871     0.190478


 **********************************************************************************************************************************
 DATASETS  * FILE   NREC   LENGTH (MB)   RECORD NAMES
              1      19      349.46       500      610      700      900      950      970     1000      129      960     1100   
                                          VAR    BASINP    GEOM    SYMINP    ZMAT    AOBASIS   BASIS     P2S    ABASIS      S 
                                         1400     1410     1200     1210     1080     1600     1650     1300     1700   
                                           T        V       H0       H01     AOSYM     SMH    MOLCAS    ERIS     OPER   

              2       3        0.92       700     1000     2100   
                                         GEOM     BASIS     RHF  

 PROGRAMS   *        TOTAL       RHF       INT
 CPU TIMES  *        18.94     14.69      4.22
 REAL TIME  *        21.50 SEC
 DISK USED  *         1.28 GB      
 GA USED    *         0.01 MB       (max)       0.00 MB       (current)
 **********************************************************************************************************************************


1PROGRAM * CCSD (Closed-shell coupled cluster)     Authors: C. Hampel, H.-J. Werner, 1991, M. Deegan, P.J. Knowles, 1992


 Convergence thresholds:  THRVAR = 1.00D-08  THRDEN = 1.00D-12

 CCSD(T)     terms to be evaluated (factor= 1.000)


 Number of core orbitals:          10 (  10 )
 Number of closed-shell orbitals:  18 (  18 )
 Number of external orbitals:     110 ( 110 )

 Molecular orbitals read from record     2100.2  Type=RHF/CANONICAL (state 1.1)

 Number of N-1 electron functions:              18
 Number of N-2 electron functions:             171
 Number of singly external CSFs:              1980
 Number of doubly external CSFs:           1961190
 Total number of CSFs:                     1963171

 Length of J-op  integral file:               0.00 MB
 Length of K-op  integral file:               1.35 MB
 Length of 3-ext integral record:             0.00 MB

 Memory could be reduced to 32.58 Mwords without degradation in triples

 Integral transformation finished. Total CPU:   2.01 sec, npass=  1  Memory used:  30.89 MW

 Reference energy:                   -592.71188486

 MP2 singlet pair energy:              -0.53945118
 MP2 triplet pair energy:              -0.30434894
 MP2 correlation energy:               -0.84380012
 MP2 total energy:                   -593.55568498

 SCS-MP2 correlation energy:           -0.83671409   (PS=  1.200000  PT=  0.333333)
 SCS-MP2 total energy:               -593.54859895

 ITER.      SQ.NORM     CORR.ENERGY   TOTAL ENERGY   ENERGY CHANGE        DEN1      VAR(S)    VAR(P)  DIIS     TIME
   1      1.33969559    -0.91078329  -593.62266815    -0.06698317    -0.04302526  0.26D-02  0.55D-02  1  1     8.97
   2      1.36669148    -0.91613128  -593.62801614    -0.00534799    -0.02577713  0.69D-04  0.46D-03  2  2    15.96
   3      1.37202452    -0.91625923  -593.62814409    -0.00012795    -0.00303762  0.16D-04  0.28D-04  3  3    22.98
   4      1.37351747    -0.91631728  -593.62820214    -0.00005805    -0.00059392  0.76D-06  0.20D-05  4  4    30.00
   5      1.37375802    -0.91632390  -593.62820876    -0.00000661    -0.00007083  0.17D-06  0.16D-06  5  5    37.02
   6      1.37380363    -0.91631945  -593.62820431     0.00000445    -0.00001392  0.30D-07  0.14D-07  6  6    44.06
   7      1.37381120    -0.91631934  -593.62820420     0.00000011     0.00000064  0.53D-08  0.23D-08  6  2    51.09
   8      1.37381727    -0.91631902  -593.62820388     0.00000031    -0.00000125  0.73D-09  0.27D-09  6  1    58.11
   9      1.37381810    -0.91631896  -593.62820382     0.00000006     0.00000050  0.66D-10  0.44D-10  6  4    65.14
  10      1.37381898    -0.91631893  -593.62820379     0.00000003    -0.00000011  0.48D-11  0.35D-11  6  3    72.18
  11      1.37381899    -0.91631893  -593.62820379    -0.00000000     0.00000004  0.12D-11  0.54D-12  6  5    79.20
  12      1.37381895    -0.91631893  -593.62820379    -0.00000000     0.00000002  0.17D-12  0.78D-13  6  6    86.23
  13      1.37381890    -0.91631893  -593.62820379    -0.00000000     0.00000002  0.24D-13  0.11D-13  6  1    93.25
  14      1.37381889    -0.91631893  -593.62820379    -0.00000000     0.00000000  0.31D-14  0.12D-14  6  2   100.28
  15      1.37381889    -0.91631893  -593.62820379     0.00000000    -0.00000000  0.68D-15  0.31D-15  6  4   107.32
  16      1.37381890    -0.91631893  -593.62820379     0.00000000    -0.00000000  0.33D-16  0.24D-16  6  5   114.36
  17      1.37381890    -0.91631893  -593.62820379     0.00000000    -0.00000000  0.59D-17  0.25D-17  6  3   121.40
  18      1.37381890    -0.91631893  -593.62820379     0.00000000    -0.00000000  0.15D-17  0.43D-18  6  5   128.42
  19      1.37381890    -0.91631893  -593.62820379     0.00000000    -0.00000000  0.19D-18  0.66D-19  6  6   135.46
  20      1.37381890    -0.91631893  -593.62820379     0.00000000     0.00000000  0.15D-19  0.68D-20  6  1   142.49
  21      1.37381890    -0.91631893  -593.62820379    -0.00000000     0.00000000  0.25D-20  0.10D-20  6  2   149.53

 Norm of t1 vector:      0.07013731      S-energy:    -0.00000000      T1 diagnostic:  0.00826576
                                                                       D1 diagnostic:  0.02109244


 Total CPU time for triples:    100.48 sec


 RESULTS
 =======

  Reference energy                   -592.711884859705
  CCSD singlet pair energy             -0.634209568587
  CCSD triplet pair energy             -0.282109364303
  CCSD correlation energy              -0.916318932891

  Triples (T) contribution             -0.029864574577
  Total correlation energy             -0.946183507468

  CCSD total energy                  -593.628203792596
  CCSD[T] energy                     -593.658687662390
  CCSD-T energy                      -593.657757223953
 !CCSD(T) total energy               -593.658068367173

 Timing summary (sec):

 STEP                 CPU(USER)    SYS     CPU(TOT)    WALL
 Transformation          2.11      0.19      2.30      2.31
 CCSD iterations       147.42      2.74    150.16    150.25
 Triples               100.48      1.91    102.39    102.42

 Program statistics:

 Available memory in ccsd:               999998604
 Min. memory needed in ccsd:               5123362
 Max. memory used in ccsd:                 6867976
 Max. memory used in cckext:               6836871 (21 integral passes)



 **********************************************************************************************************************************
 DATASETS  * FILE   NREC   LENGTH (MB)   RECORD NAMES
              1      20      485.83       500      610      700      900      950      970     1000      129      960     1100   
                                          VAR    BASINP    GEOM    SYMINP    ZMAT    AOBASIS   BASIS     P2S    ABASIS      S 
                                         1400     1410     1200     1210     1080     1600     1650     1300     1700     1380   
                                           T        V       H0       H01     AOSYM     SMH    MOLCAS    ERIS     OPER     JKOP   

              2       3        0.92       700     1000     2100   
                                         GEOM     BASIS     RHF  

 PROGRAMS   *        TOTAL   CCSD(T)       RHF       INT
 CPU TIMES  *       268.96    250.02     14.69      4.22
 REAL TIME  *       276.55 SEC
 DISK USED  *         1.28 GB      
 GA USED    *         0.01 MB       (max)       0.00 MB       (current)
 **********************************************************************************************************************************

        CCSD(T)         RHF-SCF 
   -593.65806837   -592.71188486
 **********************************************************************************************************************************
 Variable memory released
