
    -----------------------------------------------------------------------
          Psi4: An Open-Source Ab Initio Electronic Structure Package
                               Psi4 1.4a2.dev629 

                         Git: Rev {master} 2938fc2 dirty


    D. G. A. Smith, L. A. Burns, A. C. Simmonett, R. M. Parrish,
    M. C. Schieber, R. Galvelis, P. Kraus, H. Kruse, R. Di Remigio,
    A. Alenaizan, A. M. James, S. Lehtola, J. P. Misiewicz, M. Scheurer,
    R. A. Shaw, J. B. Schriber, Y. Xie, Z. L. Glick, D. A. Sirianni,
    J. S. O'Brien, J. M. Waldrop, A. Kumar, E. G. Hohenstein,
    B. P. Pritchard, B. R. Brooks, H. F. Schaefer III, A. Yu. Sokolov,
    K. Patkowski, A. E. DePrince III, U. Bozkaya, R. A. King,
    F. A. Evangelista, J. M. Turney, T. D. Crawford, C. D. Sherrill,
    J. Chem. Phys. 152(18) 184108 (2020). https://doi.org/10.1063/5.0006002

                            Additional Code Authors
    E. T. Seidl, C. L. Janssen, E. F. Valeev, M. L. Leininger,
    J. F. Gonthier, R. M. Richard, H. R. McAlexander, M. Saitow, X. Wang,
    P. Verma, and M. H. Lechner

             Previous Authors, Complete List of Code Contributors,
                       and Citations for Specific Modules
    https://github.com/psi4/psi4/blob/master/codemeta.json
    https://github.com/psi4/psi4/graphs/contributors
    http://psicode.org/psi4manual/master/introduction.html#citing-psifour

    -----------------------------------------------------------------------


    Psi4 started on: Monday, 07 March 2022 03:11PM

    Process ID: 7357
    Host:       n091
    PSIDATADIR: /opt/psi/4/master/share/psi4
    Memory:     500.0 MiB
    Threads:    4
    
  ==> Input File <==

--------------------------------------------------------------------------
import os
memory 14 GB 
 
molecule {
 C   -1.4258278093    0.0000006930   -0.8232516158
 C    0.0000847727   -0.0000013870    1.6473844404
 C    1.4275272298    0.0000006939   -0.8241348898
 H   -2.3785860258    1.7267607011   -1.3759020065
 H   -2.3809148839   -1.7267583375   -1.3718705447
 H    0.0022126893   -1.7221142972    2.7474486093
 H   -0.0024334788    1.7221095702    2.7474508424
 H    2.3801274082    1.7174677839   -1.3715544694
 H    2.3778100978   -1.7174654205   -1.3755703959
units bohr
}

basis {

assign 6-31g_2dfp_

[ 6-31g_2dfp_ ]

spherical

!----------------------------------------------------------------------
! Basis Set Exchange
! Version v0.8.13
! https://www.basissetexchange.org
!----------------------------------------------------------------------
!   Basis set: 6-31G(2df,p)
! Description: 6-31G(2df,p)
!        Role: orbital
!     Version: 0  (Data from the original Basis Set Exchange)
!----------------------------------------------------------------------


****
H     0
S    3   1.00
     18.7311370              0.03349460
      2.8253937              0.23472695
      0.6401217              0.81375733
S    1   1.00
      0.1612778              1.00000000
P    1   1.00
      1.5000000              1.0000000
P    1   1.00
      0.3750000              1.0000000
****
B     0
S    6   1.00
   2068.8823000              0.0018663
    310.6495700              0.0142515
     70.6830330              0.0695516
     19.8610800              0.2325729
      6.2993048              0.4670787
      2.1270270              0.3634314
SP   3   1.00
      4.7279710             -0.1303938              0.0745976
      1.1903377             -0.1307889              0.3078467
      0.3594117              1.1309444              0.7434568
SP   1   1.00
      0.1267512              1.0000000              1.0000000
D    1   1.00
      0.8020000              1.0000000
D    1   1.00
      0.2005000              1.0000000
F    1   1.00
      0.5000000              1.0000000
****
C     0
S    6   1.00
   3047.5249000              0.0018347
    457.3695100              0.0140373
    103.9486900              0.0688426
     29.2101550              0.2321844
      9.2866630              0.4679413
      3.1639270              0.3623120
SP   3   1.00
      7.8682724             -0.1193324              0.0689991
      1.8812885             -0.1608542              0.3164240
      0.5442493              1.1434564              0.7443083
SP   1   1.00
      0.1687144              1.0000000              1.0000000
D    1   1.00
      1.2520000              1.0000000
D    1   1.00
      0.3130000              1.0000000
F    1   1.00
      0.8000000              1.0000000
****
N     0
S    6   1.00
   4173.5110000              0.0018348
    627.4579000              0.0139950
    142.9021000              0.0685870
     40.2343300              0.2322410
     12.8202100              0.4690700
      4.3904370              0.3604550
SP   3   1.00
     11.6263580             -0.1149610              0.0675800
      2.7162800             -0.1691180              0.3239070
      0.7722180              1.1458520              0.7408950
SP   1   1.00
      0.2120313              1.0000000              1.0000000
D    1   1.00
      1.8260000              1.0000000
D    1   1.00
      0.4565000              1.0000000
F    1   1.00
      1.0000000              1.0000000
****
O     0
S    6   1.00
   5484.6717000              0.0018311
    825.2349500              0.0139501
    188.0469600              0.0684451
     52.9645000              0.2327143
     16.8975700              0.4701930
      5.7996353              0.3585209
SP   3   1.00
     15.5396160             -0.1107775              0.0708743
      3.5999336             -0.1480263              0.3397528
      1.0137618              1.1307670              0.7271586
SP   1   1.00
      0.2700058              1.0000000              1.0000000
D    1   1.00
      2.5840000              1.0000000
D    1   1.00
      0.6460000              1.0000000
F    1   1.00
      1.4000000              1.0000000
****
F     0
S    6   1.00
   7001.7130900              0.0018196169
   1051.3660900              0.0139160796
    239.2856900              0.0684053245
     67.3974453              0.233185760
     21.5199573              0.471267439
      7.40310130             0.356618546
SP   3   1.00
     20.8479528             -0.108506975            0.0716287243
      4.80830834            -0.146451658            0.3459121030
      1.34406986             1.128688580            0.7224699570
SP   1   1.00
      0.358151393            1.0000000              1.0000000
D    1   1.00
      3.5000000              1.0000000
D    1   1.00
      0.8750000              1.0000000
F    1   1.00
      1.8500000              1.0000000
****
Al     0
S    6   1.00
  13983.1000000              0.00194267
   2098.7500000              0.0148599
    477.7050000              0.0728494
    134.3600000              0.2468300
     42.8709000              0.4872580
     14.5189000              0.3234960
SP   6   1.00
    239.6680000             -0.00292619             0.00460285
     57.4419000             -0.0374080              0.0331990
     18.2859000             -0.1144870              0.1362820
      6.5991400              0.1156350              0.3304760
      2.4904900              0.6125950              0.4491460
      0.9445400              0.3937990              0.2657040
SP   3   1.00
      1.2779000             -0.2276060             -0.0175130
      0.3975900              0.00144583             0.2445330
      0.1600950              1.0927900              0.8049340
SP   1   1.00
      0.0556577              1.0000000              1.0000000
D    1   1.00
      0.6500000              1.0000000
D    1   1.00
      0.1625000              1.0000000
F    1   1.00
      0.2500000              1.0000000
****
Si     0
S    6   1.00
  16115.9000000              0.00195948
   2425.5800000              0.01492880
    553.8670000              0.07284780
    156.3400000              0.24613000
     50.0683000              0.48591400
     17.0178000              0.32500200
SP   6   1.00
    292.7180000             -0.00278094             0.00443826
     69.8731000             -0.03571460             0.03266790
     22.3363000             -0.11498500             0.13472100
      8.1503900              0.09356340             0.32867800
      3.1345800              0.60301700             0.44964000
      1.2254300              0.41895900             0.26137200
SP   3   1.00
      1.7273800             -0.24463000            -0.01779510
      0.5729220              0.00431572             0.25353900
      0.2221920              1.09818000             0.80066900
SP   1   1.00
      0.0778369              1.00000000             1.00000000
D    1   1.00
      0.9000000              1.0000000
D    1   1.00
      0.2250000              1.0000000
F    1   1.00
      0.3200000              1.0000000
****
P     0
S    6   1.00
  19413.3000000              0.0018516
   2909.4200000              0.0142062
    661.3640000              0.0699995
    185.7590000              0.2400790
     59.1943000              0.4847620
     20.0310000              0.3352000
SP   6   1.00
    339.4780000             -0.00278217             0.00456462
     81.0101000             -0.0360499              0.03369360
     25.8780000             -0.1166310              0.13975500
      9.4522100              0.0968328              0.33936200
      3.6656600              0.6144180              0.45092100
      1.4674600              0.4037980              0.23858600
SP   3   1.00
      2.1562300             -0.2529230             -0.01776530
      0.7489970              0.0328517              0.27405800
      0.2831450              1.0812500              0.78542100
SP   1   1.00
      0.0998317              1.0000000              1.00000000
D    1   1.00
      1.1000000              1.0000000
D    1   1.00
      0.2750000              1.0000000
F    1   1.00
      0.4500000              1.0000000
****
S     0
S    6   1.00
  21917.1000000              0.0018690
   3301.4900000              0.0142300
    754.1460000              0.0696960
    212.7110000              0.2384870
     67.9896000              0.4833070
     23.0515000              0.3380740
SP   6   1.00
    423.7350000             -0.0023767              0.0040610
    100.7100000             -0.0316930              0.0306810
     32.1599000             -0.1133170              0.1304520
     11.8079000              0.0560900              0.3272050
      4.6311000              0.5922550              0.4528510
      1.8702500              0.4550060              0.2560420
SP   3   1.00
      2.6158400             -0.2503740             -0.0145110
      0.9221670              0.0669570              0.3102630
      0.3412870              1.0545100              0.7544830
SP   1   1.00
      0.1171670              1.0000000              1.0000000
D    1   1.00
      1.3000000              1.0000000
D    1   1.00
      0.3250000              1.0000000
F    1   1.00
      0.5500000              1.0000000
****
Cl     0
S    6   1.00
  25180.1000000              0.0018330
   3780.3500000              0.0140340
    860.4740000              0.0690970
    242.1450000              0.2374520
     77.3349000              0.4830340
     26.2470000              0.3398560
SP   6   1.00
    491.7650000             -0.0022974              0.0039894
    116.9840000             -0.0307140              0.0303180
     37.4153000             -0.1125280              0.1298800
     13.7834000              0.0450160              0.3279510
      5.4521500              0.5893530              0.4535270
      2.2258800              0.4652060              0.2521540
SP   3   1.00
      3.1864900             -0.2518300             -0.0142990
      1.1442700              0.0615890              0.3235720
      0.4203770              1.0601800              0.7435070
SP   1   1.00
      0.1426570              1.0000000              1.0000000
D    1   1.00
      1.5000000              1.0000000
D    1   1.00
      0.3750000              1.0000000
F    1   1.00
      0.7000000              1.0000000
****
}


set {
reference rhf                          
freeze_core true
e_convergence 10                       
d_convergence 10                      
dft_spherical_points 1202
dft_radial_points 99
}

e = energy('b3lyp')

print_out('Grab this energy {0}'.format(e))
--------------------------------------------------------------------------

  Memory set to  13.039 GiB by Python driver.

Scratch directory: /tmp/

*** tstart() called on n091
*** at Mon Mar  7 15:11:47 2022

   => Loading Basis Set <=

    Name: ANONYMOUS89E7A267
    Role: ORBITAL
    Keyword: BASIS
    atoms 1-3 entry C          line    48 inputblock 6-31g_2dfp_ 
    atoms 4-9 entry H          line    15 inputblock 6-31g_2dfp_ 


         ---------------------------------------------------------
                                   SCF
               by Justin Turney, Rob Parrish, Andy Simmonett
                          and Daniel G. A. Smith
                              RKS Reference
                        4 Threads,  13351 MiB Core
         ---------------------------------------------------------

  ==> Geometry <==

    Molecular point group: c1
    Full point group: C1

    Geometry (in Bohr), charge = 0, multiplicity = 1:

       Center              X                  Y                   Z               Mass       
    ------------   -----------------  -----------------  -----------------  -----------------
         C           -1.426294244172     0.000000693029    -0.823251075184    12.000000000000
         C           -0.000381662172    -0.000001386971     1.647384981016    12.000000000000
         C            1.427060794928     0.000000693929    -0.824134349184    12.000000000000
         H           -2.379052460672     1.726760701129    -1.375901465884     1.007825032230
         H           -2.381381318772    -1.726758337471    -1.371870004084     1.007825032230
         H            0.001746254428    -1.722114297171     2.747449149916     1.007825032230
         H           -0.002899913672     1.722109570229     2.747451383016     1.007825032230
         H            2.379660973328     1.717467783929    -1.371553928784     1.007825032230
         H            2.377343662928    -1.717465420471    -1.375569855284     1.007825032230

  Running in c1 symmetry.

  Rotational constants: A =      0.67203  B =      0.67162  C =      0.41996 [cm^-1]
  Rotational constants: A =  20146.99669  B =  20134.79727  C =  12590.20160 [MHz]
  Nuclear repulsion =   75.708155170740937

  Charge       = 0
  Multiplicity = 1
  Electrons    = 24
  Nalpha       = 12
  Nbeta        = 12

  ==> Algorithm <==

  SCF Algorithm Type is DF.
  DIIS enabled.
  MOM disabled.
  Fractional occupation disabled.
  Guess Type is SAD.
  Energy threshold   = 1.00e-10
  Density threshold  = 1.00e-10
  Integral threshold = 0.00e+00

  ==> Primary Basis <==

  Basis Set: ANONYMOUS89E7A267
    Blend: 6-31G_2DFP_
    Number of shells: 48
    Number of basis function: 126
    Number of Cartesian functions: 141
    Spherical Harmonics?: true
    Max angular momentum: 3

  ==> DFT Potential <==

   => Composite Functional: B3LYP <= 

    B3LYP Hyb-GGA Exchange-Correlation Functional

    P. J. Stephens, F. J. Devlin, C. F. Chabalowski, and M. J. Frisch, J. Phys. Chem. 98, 11623 (1994)

    Deriv               =              1
    GGA                 =           TRUE
    Meta                =          FALSE

    Exchange Hybrid     =           TRUE
    MP2 Hybrid          =          FALSE

   => Exchange Functionals <=

    0.0800   Slater exchange
    0.7200         Becke 88

   => Exact (HF) Exchange <=

    0.2000               HF 

   => Correlation Functionals <=

    0.1900   Vosko, Wilk & Nusair (VWN5_RPA)
    0.8100   Lee, Yang & Parr

   => Molecular Quadrature <=

    Radial Scheme          =       TREUTLER
    Pruning Scheme         =           NONE
    Nuclear Scheme         =       TREUTLER

    BS radius alpha        =              1
    Pruning alpha          =              1
    Radial Points          =             99
    Spherical Points       =           1202
    Total Points           =        1004925
    Total Blocks           =           6716
    Max Points             =            256
    Max Functions          =            126
    Weights Tolerance      =       1.00E-15

   => Loading Basis Set <=

    Name: (ANONYMOUS89E7A267 AUX)
    Role: JKFIT
    Keyword: DF_BASIS_SCF
    atoms 1-3 entry C          line   198 file /opt/psi/4/master/share/psi4/basis/def2-universal-jkfit.gbs 
    atoms 4-9 entry H          line    18 file /opt/psi/4/master/share/psi4/basis/def2-universal-jkfit.gbs 

  ==> Integral Setup <==

  DFHelper Memory: AOs need 0.044 GiB; user supplied 6.520 GiB. Using in-core AOs.

  ==> MemDFJK: Density-Fitted J/K Matrices <==

    J tasked:                   Yes
    K tasked:                   Yes
    wK tasked:                   No
    OpenMP threads:               4
    Memory [MiB]:              6676
    Algorithm:                 Core
    Schwarz Cutoff:           1E-12
    Mask sparsity (%):       0.0000
    Fitting Condition:        1E-10

   => Auxiliary Basis Set <=

  Basis Set: (ANONYMOUS89E7A267 AUX)
    Blend: DEF2-UNIVERSAL-JKFIT
    Number of shells: 111
    Number of basis function: 333
    Number of Cartesian functions: 387
    Spherical Harmonics?: true
    Max angular momentum: 4

  Cached 100.0% of DFT collocation blocks in 3.259 [GiB].

  Minimum eigenvalue in the overlap matrix is 1.7442869990E-03.
  Reciprocal condition number of the overlap matrix is 2.8335171048E-04.
    Using symmetric orthogonalization.

  ==> Pre-Iterations <==

  SCF Guess: Superposition of Atomic Densities via on-the-fly atomic UHF (no occupation information).

   -------------------------
    Irrep   Nso     Nmo    
   -------------------------
     A        126     126 
   -------------------------
    Total     126     126
   -------------------------

  ==> Iterations <==

                           Total Energy        Delta E     RMS |[F,P]|

   @DF-RKS iter SAD:  -117.51868351620563   -1.17519e+02   0.00000e+00 
   @DF-RKS iter   1:  -117.64451779000501   -1.25834e-01   5.46058e-03 DIIS
   @DF-RKS iter   2:  -117.51087029996846    1.33647e-01   6.76643e-03 DIIS
   @DF-RKS iter   3:  -117.90631087794796   -3.95441e-01   2.62885e-04 DIIS
   @DF-RKS iter   4:  -117.90677643731657   -4.65559e-04   5.00069e-05 DIIS
   @DF-RKS iter   5:  -117.90679521539838   -1.87781e-05   5.59980e-06 DIIS
   @DF-RKS iter   6:  -117.90679533485653   -1.19458e-07   4.23515e-06 DIIS
   @DF-RKS iter   7:  -117.90679547719995   -1.42343e-07   1.34494e-07 DIIS
   @DF-RKS iter   8:  -117.90679547735701   -1.57058e-10   9.92062e-09 DIIS
   @DF-RKS iter   9:  -117.90679547735797   -9.66338e-13   1.42410e-09 DIIS
   @DF-RKS iter  10:  -117.90679547735816   -1.84741e-13   4.01624e-10 DIIS
   @DF-RKS iter  11:  -117.90679547735809    7.10543e-14   1.88998e-10 DIIS
   @DF-RKS iter  12:  -117.90679547735813   -4.26326e-14   9.31902e-12 DIIS
  Energy and wave function converged.


  ==> Post-Iterations <==

    Orbital Energies [Eh]
    ---------------------

    Doubly Occupied:                                                      

       1A    -10.176821     2A    -10.176329     3A    -10.175855  
       4A     -0.842424     5A     -0.593102     6A     -0.592155  
       7A     -0.489266     8A     -0.459222     9A     -0.360613  
      10A     -0.360028    11A     -0.289257    12A     -0.288926  

    Virtual:                                                              

      13A      0.090111    14A      0.103674    15A      0.139768  
      16A      0.140093    17A      0.147554    18A      0.213471  
      19A      0.213886    20A      0.249961    21A      0.250197  
      22A      0.396601    23A      0.399091    24A      0.465260  
      25A      0.469124    26A      0.469218    27A      0.481094  
      28A      0.481617    29A      0.541595    30A      0.541885  
      31A      0.566356    32A      0.618873    33A      0.639749  
      34A      0.640987    35A      0.647298    36A      0.648596  
      37A      0.659398    38A      0.723589    39A      0.839725  
      40A      0.840905    41A      0.890560    42A      0.891283  
      43A      0.987924    44A      1.110523    45A      1.111092  
      46A      1.116729    47A      1.138621    48A      1.146283  
      49A      1.146910    50A      1.185862    51A      1.186792  
      52A      1.189993    53A      1.283005    54A      1.283446  
      55A      1.344435    56A      1.390733    57A      1.390743  
      58A      1.417593    59A      1.418587    60A      1.419332  
      61A      1.510056    62A      1.511837    63A      1.613165  
      64A      1.637773    65A      1.738041    66A      1.742610  
      67A      1.804380    68A      1.998672    69A      1.998763  
      70A      2.143026    71A      2.209776    72A      2.213654  
      73A      2.555629    74A      2.700380    75A      2.886860  
      76A      2.913932    77A      2.914111    78A      2.917296  
      79A      2.917949    80A      2.980405    81A      2.980584  
      82A      3.081593    83A      3.119238    84A      3.119890  
      85A      3.147246    86A      3.253707    87A      3.254872  
      88A      3.298911    89A      3.301104    90A      3.355093  
      91A      3.369548    92A      3.468627    93A      3.549730  
      94A      3.602941    95A      3.602970    96A      3.730018  
      97A      3.730766    98A      3.830598    99A      3.860501  
     100A      3.862403   101A      4.035639   102A      4.036007  
     103A      4.078831   104A      4.082946   105A      4.120232  
     106A      4.216354   107A      4.216632   108A      4.338029  
     109A      4.340280   110A      4.346822   111A      4.349384  
     112A      4.350439   113A      4.397795   114A      4.426819  
     115A      4.427931   116A      4.460605   117A      4.549417  
     118A      4.618106   119A      5.032606   120A      5.043549  
     121A      5.069137   122A      5.144841   123A      5.305084  
     124A      5.308245   125A      5.373440   126A      5.377975  

    Final Occupation by Irrep:
              A 
    DOCC [    12 ]

  @DF-RKS Final Energy:  -117.90679547735813

   => Energetics <=

    Nuclear Repulsion Energy =             75.7081551707409375
    One-Electron Energy =                -306.8275247983046370
    Two-Electron Energy =                 128.2253843696792899
    DFT Exchange-Correlation Energy =     -15.0128102194737316
    Empirical Dispersion Energy =           0.0000000000000000
    VV10 Nonlocal Energy =                  0.0000000000000000
    Total Energy =                       -117.9067954773581306

Computation Completed


Properties will be evaluated at   0.000000,   0.000000,   0.000000 [a0]

Properties computed using the SCF density matrix

  Nuclear Dipole Moment: [e a0]
     X:    -0.0023      Y:     0.0000      Z:     0.0000

  Electronic Dipole Moment: [e a0]
     X:     0.0035      Y:    -0.0000      Z:     0.0000

  Dipole Moment: [e a0]
     X:     0.0012      Y:    -0.0000      Z:     0.0000     Total:     0.0012

  Dipole Moment: [D]
     X:     0.0031      Y:    -0.0000      Z:     0.0000     Total:     0.0031


*** tstop() called on n091 at Mon Mar  7 15:12:01 2022
Module time:
	user time   =      51.91 seconds =       0.87 minutes
	system time =       0.91 seconds =       0.02 minutes
	total time  =         14 seconds =       0.23 minutes
Total time:
	user time   =      51.91 seconds =       0.87 minutes
	system time =       0.91 seconds =       0.02 minutes
	total time  =         14 seconds =       0.23 minutes
Grab this energy -117.90679547735813
    Psi4 stopped on: Monday, 07 March 2022 03:12PM
    Psi4 wall time for execution: 0:00:13.75

*** Psi4 exiting successfully. Buy a developer a beer!
