
    -----------------------------------------------------------------------
          Psi4: An Open-Source Ab Initio Electronic Structure Package
                               Psi4 1.4a2.dev629 

                         Git: Rev {master} 2938fc2 dirty


    D. G. A. Smith, L. A. Burns, A. C. Simmonett, R. M. Parrish,
    M. C. Schieber, R. Galvelis, P. Kraus, H. Kruse, R. Di Remigio,
    A. Alenaizan, A. M. James, S. Lehtola, J. P. Misiewicz, M. Scheurer,
    R. A. Shaw, J. B. Schriber, Y. Xie, Z. L. Glick, D. A. Sirianni,
    J. S. O'Brien, J. M. Waldrop, A. Kumar, E. G. Hohenstein,
    B. P. Pritchard, B. R. Brooks, H. F. Schaefer III, A. Yu. Sokolov,
    K. Patkowski, A. E. DePrince III, U. Bozkaya, R. A. King,
    F. A. Evangelista, J. M. Turney, T. D. Crawford, C. D. Sherrill,
    J. Chem. Phys. 152(18) 184108 (2020). https://doi.org/10.1063/5.0006002

                            Additional Code Authors
    E. T. Seidl, C. L. Janssen, E. F. Valeev, M. L. Leininger,
    J. F. Gonthier, R. M. Richard, H. R. McAlexander, M. Saitow, X. Wang,
    P. Verma, and M. H. Lechner

             Previous Authors, Complete List of Code Contributors,
                       and Citations for Specific Modules
    https://github.com/psi4/psi4/blob/master/codemeta.json
    https://github.com/psi4/psi4/graphs/contributors
    http://psicode.org/psi4manual/master/introduction.html#citing-psifour

    -----------------------------------------------------------------------


    Psi4 started on: Friday, 22 October 2021 10:51AM

    Process ID: 20568
    Host:       n084
    PSIDATADIR: /opt/psi/4/master/share/psi4
    Memory:     500.0 MiB
    Threads:    1
    
  ==> Input File <==

--------------------------------------------------------------------------
import os
memory 14 GB 
 
molecule {
 C   -1.4291171848   -0.0017516873   -0.8251011942
 C   -0.0007565228    0.0005110584    1.6484522452
 C    1.4272232635    0.0005110584   -0.8248812956
 H   -2.3754512882    1.7187232698   -1.3714674438
 H   -2.3815627761   -1.7261151177   -1.3749959130
 H   -0.0036205233   -1.7201813683    2.7475750295
 H    0.0046613347    1.7242420775    2.7466093950
 H    2.3809641809    1.7242420775   -1.3692678682
 H    2.3776595159   -1.7201813683   -1.3769229849
units bohr
}

basis {

assign 6-31g_2dfp_

[ 6-31g_2dfp_ ]

spherical

!----------------------------------------------------------------------
! Basis Set Exchange
! Version v0.8.13
! https://www.basissetexchange.org
!----------------------------------------------------------------------
!   Basis set: 6-31G(2df,p)
! Description: 6-31G(2df,p)
!        Role: orbital
!     Version: 0  (Data from the original Basis Set Exchange)
!----------------------------------------------------------------------


****
H     0
S    3   1.00
     18.7311370              0.03349460
      2.8253937              0.23472695
      0.6401217              0.81375733
S    1   1.00
      0.1612778              1.00000000
P    1   1.00
      1.5000000              1.0000000
P    1   1.00
      0.3750000              1.0000000
****
B     0
S    6   1.00
   2068.8823000              0.0018663
    310.6495700              0.0142515
     70.6830330              0.0695516
     19.8610800              0.2325729
      6.2993048              0.4670787
      2.1270270              0.3634314
SP   3   1.00
      4.7279710             -0.1303938              0.0745976
      1.1903377             -0.1307889              0.3078467
      0.3594117              1.1309444              0.7434568
SP   1   1.00
      0.1267512              1.0000000              1.0000000
D    1   1.00
      0.8020000              1.0000000
D    1   1.00
      0.2005000              1.0000000
F    1   1.00
      0.5000000              1.0000000
****
C     0
S    6   1.00
   3047.5249000              0.0018347
    457.3695100              0.0140373
    103.9486900              0.0688426
     29.2101550              0.2321844
      9.2866630              0.4679413
      3.1639270              0.3623120
SP   3   1.00
      7.8682724             -0.1193324              0.0689991
      1.8812885             -0.1608542              0.3164240
      0.5442493              1.1434564              0.7443083
SP   1   1.00
      0.1687144              1.0000000              1.0000000
D    1   1.00
      1.2520000              1.0000000
D    1   1.00
      0.3130000              1.0000000
F    1   1.00
      0.8000000              1.0000000
****
N     0
S    6   1.00
   4173.5110000              0.0018348
    627.4579000              0.0139950
    142.9021000              0.0685870
     40.2343300              0.2322410
     12.8202100              0.4690700
      4.3904370              0.3604550
SP   3   1.00
     11.6263580             -0.1149610              0.0675800
      2.7162800             -0.1691180              0.3239070
      0.7722180              1.1458520              0.7408950
SP   1   1.00
      0.2120313              1.0000000              1.0000000
D    1   1.00
      1.8260000              1.0000000
D    1   1.00
      0.4565000              1.0000000
F    1   1.00
      1.0000000              1.0000000
****
O     0
S    6   1.00
   5484.6717000              0.0018311
    825.2349500              0.0139501
    188.0469600              0.0684451
     52.9645000              0.2327143
     16.8975700              0.4701930
      5.7996353              0.3585209
SP   3   1.00
     15.5396160             -0.1107775              0.0708743
      3.5999336             -0.1480263              0.3397528
      1.0137618              1.1307670              0.7271586
SP   1   1.00
      0.2700058              1.0000000              1.0000000
D    1   1.00
      2.5840000              1.0000000
D    1   1.00
      0.6460000              1.0000000
F    1   1.00
      1.4000000              1.0000000
****
F     0
S    6   1.00
   7001.7130900              0.0018196169
   1051.3660900              0.0139160796
    239.2856900              0.0684053245
     67.3974453              0.233185760
     21.5199573              0.471267439
      7.40310130             0.356618546
SP   3   1.00
     20.8479528             -0.108506975            0.0716287243
      4.80830834            -0.146451658            0.3459121030
      1.34406986             1.128688580            0.7224699570
SP   1   1.00
      0.358151393            1.0000000              1.0000000
D    1   1.00
      3.5000000              1.0000000
D    1   1.00
      0.8750000              1.0000000
F    1   1.00
      1.8500000              1.0000000
****
Al     0
S    6   1.00
  13983.1000000              0.00194267
   2098.7500000              0.0148599
    477.7050000              0.0728494
    134.3600000              0.2468300
     42.8709000              0.4872580
     14.5189000              0.3234960
SP   6   1.00
    239.6680000             -0.00292619             0.00460285
     57.4419000             -0.0374080              0.0331990
     18.2859000             -0.1144870              0.1362820
      6.5991400              0.1156350              0.3304760
      2.4904900              0.6125950              0.4491460
      0.9445400              0.3937990              0.2657040
SP   3   1.00
      1.2779000             -0.2276060             -0.0175130
      0.3975900              0.00144583             0.2445330
      0.1600950              1.0927900              0.8049340
SP   1   1.00
      0.0556577              1.0000000              1.0000000
D    1   1.00
      0.6500000              1.0000000
D    1   1.00
      0.1625000              1.0000000
F    1   1.00
      0.2500000              1.0000000
****
Si     0
S    6   1.00
  16115.9000000              0.00195948
   2425.5800000              0.01492880
    553.8670000              0.07284780
    156.3400000              0.24613000
     50.0683000              0.48591400
     17.0178000              0.32500200
SP   6   1.00
    292.7180000             -0.00278094             0.00443826
     69.8731000             -0.03571460             0.03266790
     22.3363000             -0.11498500             0.13472100
      8.1503900              0.09356340             0.32867800
      3.1345800              0.60301700             0.44964000
      1.2254300              0.41895900             0.26137200
SP   3   1.00
      1.7273800             -0.24463000            -0.01779510
      0.5729220              0.00431572             0.25353900
      0.2221920              1.09818000             0.80066900
SP   1   1.00
      0.0778369              1.00000000             1.00000000
D    1   1.00
      0.9000000              1.0000000
D    1   1.00
      0.2250000              1.0000000
F    1   1.00
      0.3200000              1.0000000
****
P     0
S    6   1.00
  19413.3000000              0.0018516
   2909.4200000              0.0142062
    661.3640000              0.0699995
    185.7590000              0.2400790
     59.1943000              0.4847620
     20.0310000              0.3352000
SP   6   1.00
    339.4780000             -0.00278217             0.00456462
     81.0101000             -0.0360499              0.03369360
     25.8780000             -0.1166310              0.13975500
      9.4522100              0.0968328              0.33936200
      3.6656600              0.6144180              0.45092100
      1.4674600              0.4037980              0.23858600
SP   3   1.00
      2.1562300             -0.2529230             -0.01776530
      0.7489970              0.0328517              0.27405800
      0.2831450              1.0812500              0.78542100
SP   1   1.00
      0.0998317              1.0000000              1.00000000
D    1   1.00
      1.1000000              1.0000000
D    1   1.00
      0.2750000              1.0000000
F    1   1.00
      0.4500000              1.0000000
****
S     0
S    6   1.00
  21917.1000000              0.0018690
   3301.4900000              0.0142300
    754.1460000              0.0696960
    212.7110000              0.2384870
     67.9896000              0.4833070
     23.0515000              0.3380740
SP   6   1.00
    423.7350000             -0.0023767              0.0040610
    100.7100000             -0.0316930              0.0306810
     32.1599000             -0.1133170              0.1304520
     11.8079000              0.0560900              0.3272050
      4.6311000              0.5922550              0.4528510
      1.8702500              0.4550060              0.2560420
SP   3   1.00
      2.6158400             -0.2503740             -0.0145110
      0.9221670              0.0669570              0.3102630
      0.3412870              1.0545100              0.7544830
SP   1   1.00
      0.1171670              1.0000000              1.0000000
D    1   1.00
      1.3000000              1.0000000
D    1   1.00
      0.3250000              1.0000000
F    1   1.00
      0.5500000              1.0000000
****
Cl     0
S    6   1.00
  25180.1000000              0.0018330
   3780.3500000              0.0140340
    860.4740000              0.0690970
    242.1450000              0.2374520
     77.3349000              0.4830340
     26.2470000              0.3398560
SP   6   1.00
    491.7650000             -0.0022974              0.0039894
    116.9840000             -0.0307140              0.0303180
     37.4153000             -0.1125280              0.1298800
     13.7834000              0.0450160              0.3279510
      5.4521500              0.5893530              0.4535270
      2.2258800              0.4652060              0.2521540
SP   3   1.00
      3.1864900             -0.2518300             -0.0142990
      1.1442700              0.0615890              0.3235720
      0.4203770              1.0601800              0.7435070
SP   1   1.00
      0.1426570              1.0000000              1.0000000
D    1   1.00
      1.5000000              1.0000000
D    1   1.00
      0.3750000              1.0000000
F    1   1.00
      0.7000000              1.0000000
****
}


set {
reference rhf                          
freeze_core true
e_convergence 10                       
d_convergence 10                      
dft_spherical_points 1202
dft_radial_points 99
}

e = energy('b3lyp')

print_out('Grab this energy {0}'.format(e))
--------------------------------------------------------------------------

  Memory set to  13.039 GiB by Python driver.

Scratch directory: /tmp/

*** tstart() called on n084
*** at Fri Oct 22 10:51:32 2021

   => Loading Basis Set <=

    Name: ANONYMOUS172F2379
    Role: ORBITAL
    Keyword: BASIS
    atoms 1-3 entry C          line    48 inputblock 6-31g_2dfp_ 
    atoms 4-9 entry H          line    15 inputblock 6-31g_2dfp_ 


         ---------------------------------------------------------
                                   SCF
               by Justin Turney, Rob Parrish, Andy Simmonett
                          and Daniel G. A. Smith
                              RKS Reference
                        1 Threads,  13351 MiB Core
         ---------------------------------------------------------

  ==> Geometry <==

    Molecular point group: cs
    Full point group: Cs

    Geometry (in Bohr), charge = 0, multiplicity = 1:

       Center              X                  Y                   Z               Mass       
    ------------   -----------------  -----------------  -----------------  -----------------
         C           -1.649402295571    -0.001560958447     0.000000000000    12.000000000000
         C            0.824371043500     0.000701787253     1.427979785757    12.000000000000
         C            0.824371043500     0.000701787253    -1.427979785757    12.000000000000
         H           -2.742134794383     1.718913998653     0.000000000000     1.007825032230
         H           -2.749191732760    -1.725924388847     0.000000000000     1.007825032230
         H            1.371452138283    -1.719990639447     2.381280038964     1.007825032230
         H            1.378141620463     1.724432806353     2.376302845945     1.007825032230
         H            1.378141620463     1.724432806353    -2.376302845945     1.007825032230
         H            1.371452138283    -1.719990639447    -2.381280038964     1.007825032230

  Running in cs symmetry.

  Rotational constants: A =      0.67122  B =      0.67106  C =      0.41944 [cm^-1]
  Rotational constants: A =  20122.57372  B =  20117.92742  C =  12574.64428 [MHz]
  Nuclear repulsion =   75.676412752582323

  Charge       = 0
  Multiplicity = 1
  Electrons    = 24
  Nalpha       = 12
  Nbeta        = 12

  ==> Algorithm <==

  SCF Algorithm Type is DF.
  DIIS enabled.
  MOM disabled.
  Fractional occupation disabled.
  Guess Type is SAD.
  Energy threshold   = 1.00e-10
  Density threshold  = 1.00e-10
  Integral threshold = 0.00e+00

  ==> Primary Basis <==

  Basis Set: ANONYMOUS172F2379
    Blend: 6-31G_2DFP_
    Number of shells: 48
    Number of basis function: 126
    Number of Cartesian functions: 141
    Spherical Harmonics?: true
    Max angular momentum: 3

  ==> DFT Potential <==

   => Composite Functional: B3LYP <= 

    B3LYP Hyb-GGA Exchange-Correlation Functional

    P. J. Stephens, F. J. Devlin, C. F. Chabalowski, and M. J. Frisch, J. Phys. Chem. 98, 11623 (1994)

    Deriv               =              1
    GGA                 =           TRUE
    Meta                =          FALSE

    Exchange Hybrid     =           TRUE
    MP2 Hybrid          =          FALSE

   => Exchange Functionals <=

    0.0800   Slater exchange
    0.7200         Becke 88

   => Exact (HF) Exchange <=

    0.2000               HF 

   => Correlation Functionals <=

    0.1900   Vosko, Wilk & Nusair (VWN5_RPA)
    0.8100   Lee, Yang & Parr

   => Molecular Quadrature <=

    Radial Scheme          =       TREUTLER
    Pruning Scheme         =           NONE
    Nuclear Scheme         =       TREUTLER

    BS radius alpha        =              1
    Pruning alpha          =              1
    Radial Points          =             99
    Spherical Points       =           1202
    Total Points           =        1004889
    Total Blocks           =           6744
    Max Points             =            256
    Max Functions          =            126
    Weights Tolerance      =       1.00E-15

   => Loading Basis Set <=

    Name: (ANONYMOUS172F2379 AUX)
    Role: JKFIT
    Keyword: DF_BASIS_SCF
    atoms 1-3 entry C          line   198 file /opt/psi/4/master/share/psi4/basis/def2-universal-jkfit.gbs 
    atoms 4-9 entry H          line    18 file /opt/psi/4/master/share/psi4/basis/def2-universal-jkfit.gbs 

  ==> Integral Setup <==

  DFHelper Memory: AOs need 0.044 GiB; user supplied 6.514 GiB. Using in-core AOs.

  ==> MemDFJK: Density-Fitted J/K Matrices <==

    J tasked:                   Yes
    K tasked:                   Yes
    wK tasked:                   No
    OpenMP threads:               1
    Memory [MiB]:              6670
    Algorithm:                 Core
    Schwarz Cutoff:           1E-12
    Mask sparsity (%):       0.0000
    Fitting Condition:        1E-10

   => Auxiliary Basis Set <=

  Basis Set: (ANONYMOUS172F2379 AUX)
    Blend: DEF2-UNIVERSAL-JKFIT
    Number of shells: 111
    Number of basis function: 333
    Number of Cartesian functions: 387
    Spherical Harmonics?: true
    Max angular momentum: 4

  Cached 100.0% of DFT collocation blocks in 3.265 [GiB].

  Minimum eigenvalue in the overlap matrix is 1.4985396309E-03.
  Reciprocal condition number of the overlap matrix is 2.7697608110E-04.
    Using symmetric orthogonalization.

  ==> Pre-Iterations <==

  SCF Guess: Superposition of Atomic Densities via on-the-fly atomic UHF (no occupation information).

   -------------------------
    Irrep   Nso     Nmo    
   -------------------------
     A'        71      71 
     A"        55      55 
   -------------------------
    Total     126     126
   -------------------------

  ==> Iterations <==

                           Total Energy        Delta E     RMS |[F,P]|

   @DF-RKS iter SAD:  -117.51550813515594   -1.17516e+02   0.00000e+00 
   @DF-RKS iter   1:  -117.64534569575595   -1.29838e-01   7.64697e-03 DIIS
   @DF-RKS iter   2:  -117.51333697449839    1.32009e-01   9.46284e-03 DIIS
   @DF-RKS iter   3:  -117.90627981950513   -3.92943e-01   3.69312e-04 DIIS
   @DF-RKS iter   4:  -117.90674703071581   -4.67211e-04   6.95976e-05 DIIS
   @DF-RKS iter   5:  -117.90676562434470   -1.85936e-05   5.89311e-06 DIIS
   @DF-RKS iter   6:  -117.90676577436072   -1.50016e-07   8.36228e-07 DIIS
   @DF-RKS iter   7:  -117.90676577569151   -1.33079e-09   6.16729e-07 DIIS
   @DF-RKS iter   8:  -117.90676577722836   -1.53685e-09   1.55110e-08 DIIS
   @DF-RKS iter   9:  -117.90676577722921   -8.52651e-13   2.19420e-09 DIIS
   @DF-RKS iter  10:  -117.90676577722931   -9.94760e-14   8.43598e-10 DIIS
   @DF-RKS iter  11:  -117.90676577722913    1.84741e-13   3.47554e-11 DIIS
  Energy and wave function converged.


  ==> Post-Iterations <==

    Orbital Energies [Eh]
    ---------------------

    Doubly Occupied:                                                      

       1Ap   -10.176544     1App  -10.176289     2Ap   -10.176272  
       3Ap    -0.841775     4Ap    -0.592815     2App   -0.592642  
       5Ap    -0.489280     6Ap    -0.458836     7Ap    -0.360822  
       3App   -0.360549     4App   -0.288886     8Ap    -0.288783  

    Virtual:                                                              

       9Ap     0.090118    10Ap     0.104043     5App    0.139969  
      11Ap     0.139975     6App    0.147048    12Ap     0.213698  
       7App    0.213712    13Ap     0.249662     8App    0.249740  
      14Ap     0.396407    15Ap     0.399425    16Ap     0.465257  
      17Ap     0.468900     9App    0.469163    10App    0.481287  
      18Ap     0.481420    11App    0.541354    19Ap     0.541499  
      12App    0.566381    20Ap     0.619148    13App    0.640572  
      21Ap     0.640729    14App    0.648005    22Ap     0.648141  
      23Ap     0.659455    15App    0.723547    24Ap     0.840096  
      16App    0.840256    17App    0.890935    25Ap     0.891004  
      26Ap     0.987846    27Ap     1.109738    18App    1.110297  
      28Ap     1.116517    19App    1.138296    29Ap     1.146615  
      20App    1.146811    30Ap     1.185828    21App    1.186193  
      31Ap     1.190391    22App    1.282158    32Ap     1.282602  
      33Ap     1.345186    23App    1.391215    34Ap     1.391781  
      35Ap     1.416973    24App    1.417548    25App    1.418569  
      26App    1.511201    36Ap     1.511473    27App    1.612970  
      37Ap     1.637660    28App    1.741186    38Ap     1.741944  
      39Ap     1.804705    29App    1.999125    40Ap     2.000860  
      41Ap     2.141716    30App    2.210497    42Ap     2.211024  
      43Ap     2.554908    44Ap     2.701345    45Ap     2.887321  
      31App    2.913540    46Ap     2.913542    47Ap     2.916671  
      32App    2.916809    48Ap     2.979746    33App    2.980103  
      34App    3.081108    35App    3.120901    49Ap     3.121569  
      50Ap     3.147636    36App    3.254535    51Ap     3.254769  
      37App    3.299387    52Ap     3.299635    53Ap     3.354930  
      38App    3.368241    54Ap     3.467859    39App    3.549728  
      55Ap     3.601956    40App    3.602207    41App    3.728953  
      56Ap     3.729163    42App    3.829809    57Ap     3.860864  
      43App    3.861065    58Ap     4.034509    44App    4.035155  
      59Ap     4.079551    45App    4.080740    60Ap     4.119622  
      46App    4.214592    61Ap     4.214694    47App    4.338770  
      62Ap     4.339934    48App    4.345455    49App    4.348622  
      63Ap     4.349597    64Ap     4.398289    65Ap     4.427744  
      50App    4.428869    66Ap     4.456974    51App    4.550188  
      52App    4.616028    53App    5.039563    67Ap     5.040761  
      68Ap     5.070906    69Ap     5.144717    54App    5.307080  
      70Ap     5.308653    55App    5.375063    71Ap     5.376304  

    Final Occupation by Irrep:
             Ap   App 
    DOCC [     8,    4 ]

  @DF-RKS Final Energy:  -117.90676577722913

   => Energetics <=

    Nuclear Repulsion Energy =             75.6764127525823227
    One-Electron Energy =                -306.7651701566953761
    Two-Electron Energy =                 128.1945085320313353
    DFT Exchange-Correlation Energy =     -15.0125169051474092
    Empirical Dispersion Energy =           0.0000000000000000
    VV10 Nonlocal Energy =                  0.0000000000000000
    Total Energy =                       -117.9067657772291113

Computation Completed


Properties will be evaluated at   0.000000,   0.000000,   0.000000 [a0]

Properties computed using the SCF density matrix

  Nuclear Dipole Moment: [e a0]
     X:     0.0039      Y:     0.0009      Z:     0.0000

  Electronic Dipole Moment: [e a0]
     X:    -0.0038      Y:    -0.0007      Z:     0.0000

  Dipole Moment: [e a0]
     X:     0.0001      Y:     0.0003      Z:     0.0000     Total:     0.0003

  Dipole Moment: [D]
     X:     0.0004      Y:     0.0007      Z:     0.0000     Total:     0.0008


*** tstop() called on n084 at Fri Oct 22 10:52:14 2021
Module time:
	user time   =      40.91 seconds =       0.68 minutes
	system time =       0.87 seconds =       0.01 minutes
	total time  =         42 seconds =       0.70 minutes
Total time:
	user time   =      40.91 seconds =       0.68 minutes
	system time =       0.87 seconds =       0.01 minutes
	total time  =         42 seconds =       0.70 minutes
Grab this energy -117.90676577722913
    Psi4 stopped on: Friday, 22 October 2021 10:52AM
    Psi4 wall time for execution: 0:00:41.81

*** Psi4 exiting successfully. Buy a developer a beer!
