
    -----------------------------------------------------------------------
          Psi4: An Open-Source Ab Initio Electronic Structure Package
                               Psi4 1.4a2.dev629 

                         Git: Rev {master} 2938fc2 dirty


    D. G. A. Smith, L. A. Burns, A. C. Simmonett, R. M. Parrish,
    M. C. Schieber, R. Galvelis, P. Kraus, H. Kruse, R. Di Remigio,
    A. Alenaizan, A. M. James, S. Lehtola, J. P. Misiewicz, M. Scheurer,
    R. A. Shaw, J. B. Schriber, Y. Xie, Z. L. Glick, D. A. Sirianni,
    J. S. O'Brien, J. M. Waldrop, A. Kumar, E. G. Hohenstein,
    B. P. Pritchard, B. R. Brooks, H. F. Schaefer III, A. Yu. Sokolov,
    K. Patkowski, A. E. DePrince III, U. Bozkaya, R. A. King,
    F. A. Evangelista, J. M. Turney, T. D. Crawford, C. D. Sherrill,
    J. Chem. Phys. 152(18) 184108 (2020). https://doi.org/10.1063/5.0006002

                            Additional Code Authors
    E. T. Seidl, C. L. Janssen, E. F. Valeev, M. L. Leininger,
    J. F. Gonthier, R. M. Richard, H. R. McAlexander, M. Saitow, X. Wang,
    P. Verma, and M. H. Lechner

             Previous Authors, Complete List of Code Contributors,
                       and Citations for Specific Modules
    https://github.com/psi4/psi4/blob/master/codemeta.json
    https://github.com/psi4/psi4/graphs/contributors
    http://psicode.org/psi4manual/master/introduction.html#citing-psifour

    -----------------------------------------------------------------------


    Psi4 started on: Monday, 07 March 2022 03:09PM

    Process ID: 31686
    Host:       n067
    PSIDATADIR: /opt/psi/4/master/share/psi4
    Memory:     500.0 MiB
    Threads:    4
    
  ==> Input File <==

--------------------------------------------------------------------------
import os
memory 14 GB 
 
molecule {
 C   -1.4284927291   -0.0000736480   -0.8243017001
 C   -0.0007602030   -0.0000725338    1.6473841752
 C    1.4248630198   -0.0000714241   -0.8230838930
 H   -2.3821010720    1.7224176609   -1.3757067266
 H   -2.3751229033   -1.7223419143   -1.3716770097
 H    0.0006936756   -1.7220736624    2.7434225201
 H    0.0006951825    1.7221461966    2.7514752848
 H    2.3835973307    1.7218728045   -1.3757678645
 H    2.3766276988   -1.7218034794   -1.3717448162
units bohr
}

basis {

assign 6-31g_2dfp_

[ 6-31g_2dfp_ ]

spherical

!----------------------------------------------------------------------
! Basis Set Exchange
! Version v0.8.13
! https://www.basissetexchange.org
!----------------------------------------------------------------------
!   Basis set: 6-31G(2df,p)
! Description: 6-31G(2df,p)
!        Role: orbital
!     Version: 0  (Data from the original Basis Set Exchange)
!----------------------------------------------------------------------


****
H     0
S    3   1.00
     18.7311370              0.03349460
      2.8253937              0.23472695
      0.6401217              0.81375733
S    1   1.00
      0.1612778              1.00000000
P    1   1.00
      1.5000000              1.0000000
P    1   1.00
      0.3750000              1.0000000
****
B     0
S    6   1.00
   2068.8823000              0.0018663
    310.6495700              0.0142515
     70.6830330              0.0695516
     19.8610800              0.2325729
      6.2993048              0.4670787
      2.1270270              0.3634314
SP   3   1.00
      4.7279710             -0.1303938              0.0745976
      1.1903377             -0.1307889              0.3078467
      0.3594117              1.1309444              0.7434568
SP   1   1.00
      0.1267512              1.0000000              1.0000000
D    1   1.00
      0.8020000              1.0000000
D    1   1.00
      0.2005000              1.0000000
F    1   1.00
      0.5000000              1.0000000
****
C     0
S    6   1.00
   3047.5249000              0.0018347
    457.3695100              0.0140373
    103.9486900              0.0688426
     29.2101550              0.2321844
      9.2866630              0.4679413
      3.1639270              0.3623120
SP   3   1.00
      7.8682724             -0.1193324              0.0689991
      1.8812885             -0.1608542              0.3164240
      0.5442493              1.1434564              0.7443083
SP   1   1.00
      0.1687144              1.0000000              1.0000000
D    1   1.00
      1.2520000              1.0000000
D    1   1.00
      0.3130000              1.0000000
F    1   1.00
      0.8000000              1.0000000
****
N     0
S    6   1.00
   4173.5110000              0.0018348
    627.4579000              0.0139950
    142.9021000              0.0685870
     40.2343300              0.2322410
     12.8202100              0.4690700
      4.3904370              0.3604550
SP   3   1.00
     11.6263580             -0.1149610              0.0675800
      2.7162800             -0.1691180              0.3239070
      0.7722180              1.1458520              0.7408950
SP   1   1.00
      0.2120313              1.0000000              1.0000000
D    1   1.00
      1.8260000              1.0000000
D    1   1.00
      0.4565000              1.0000000
F    1   1.00
      1.0000000              1.0000000
****
O     0
S    6   1.00
   5484.6717000              0.0018311
    825.2349500              0.0139501
    188.0469600              0.0684451
     52.9645000              0.2327143
     16.8975700              0.4701930
      5.7996353              0.3585209
SP   3   1.00
     15.5396160             -0.1107775              0.0708743
      3.5999336             -0.1480263              0.3397528
      1.0137618              1.1307670              0.7271586
SP   1   1.00
      0.2700058              1.0000000              1.0000000
D    1   1.00
      2.5840000              1.0000000
D    1   1.00
      0.6460000              1.0000000
F    1   1.00
      1.4000000              1.0000000
****
F     0
S    6   1.00
   7001.7130900              0.0018196169
   1051.3660900              0.0139160796
    239.2856900              0.0684053245
     67.3974453              0.233185760
     21.5199573              0.471267439
      7.40310130             0.356618546
SP   3   1.00
     20.8479528             -0.108506975            0.0716287243
      4.80830834            -0.146451658            0.3459121030
      1.34406986             1.128688580            0.7224699570
SP   1   1.00
      0.358151393            1.0000000              1.0000000
D    1   1.00
      3.5000000              1.0000000
D    1   1.00
      0.8750000              1.0000000
F    1   1.00
      1.8500000              1.0000000
****
Al     0
S    6   1.00
  13983.1000000              0.00194267
   2098.7500000              0.0148599
    477.7050000              0.0728494
    134.3600000              0.2468300
     42.8709000              0.4872580
     14.5189000              0.3234960
SP   6   1.00
    239.6680000             -0.00292619             0.00460285
     57.4419000             -0.0374080              0.0331990
     18.2859000             -0.1144870              0.1362820
      6.5991400              0.1156350              0.3304760
      2.4904900              0.6125950              0.4491460
      0.9445400              0.3937990              0.2657040
SP   3   1.00
      1.2779000             -0.2276060             -0.0175130
      0.3975900              0.00144583             0.2445330
      0.1600950              1.0927900              0.8049340
SP   1   1.00
      0.0556577              1.0000000              1.0000000
D    1   1.00
      0.6500000              1.0000000
D    1   1.00
      0.1625000              1.0000000
F    1   1.00
      0.2500000              1.0000000
****
Si     0
S    6   1.00
  16115.9000000              0.00195948
   2425.5800000              0.01492880
    553.8670000              0.07284780
    156.3400000              0.24613000
     50.0683000              0.48591400
     17.0178000              0.32500200
SP   6   1.00
    292.7180000             -0.00278094             0.00443826
     69.8731000             -0.03571460             0.03266790
     22.3363000             -0.11498500             0.13472100
      8.1503900              0.09356340             0.32867800
      3.1345800              0.60301700             0.44964000
      1.2254300              0.41895900             0.26137200
SP   3   1.00
      1.7273800             -0.24463000            -0.01779510
      0.5729220              0.00431572             0.25353900
      0.2221920              1.09818000             0.80066900
SP   1   1.00
      0.0778369              1.00000000             1.00000000
D    1   1.00
      0.9000000              1.0000000
D    1   1.00
      0.2250000              1.0000000
F    1   1.00
      0.3200000              1.0000000
****
P     0
S    6   1.00
  19413.3000000              0.0018516
   2909.4200000              0.0142062
    661.3640000              0.0699995
    185.7590000              0.2400790
     59.1943000              0.4847620
     20.0310000              0.3352000
SP   6   1.00
    339.4780000             -0.00278217             0.00456462
     81.0101000             -0.0360499              0.03369360
     25.8780000             -0.1166310              0.13975500
      9.4522100              0.0968328              0.33936200
      3.6656600              0.6144180              0.45092100
      1.4674600              0.4037980              0.23858600
SP   3   1.00
      2.1562300             -0.2529230             -0.01776530
      0.7489970              0.0328517              0.27405800
      0.2831450              1.0812500              0.78542100
SP   1   1.00
      0.0998317              1.0000000              1.00000000
D    1   1.00
      1.1000000              1.0000000
D    1   1.00
      0.2750000              1.0000000
F    1   1.00
      0.4500000              1.0000000
****
S     0
S    6   1.00
  21917.1000000              0.0018690
   3301.4900000              0.0142300
    754.1460000              0.0696960
    212.7110000              0.2384870
     67.9896000              0.4833070
     23.0515000              0.3380740
SP   6   1.00
    423.7350000             -0.0023767              0.0040610
    100.7100000             -0.0316930              0.0306810
     32.1599000             -0.1133170              0.1304520
     11.8079000              0.0560900              0.3272050
      4.6311000              0.5922550              0.4528510
      1.8702500              0.4550060              0.2560420
SP   3   1.00
      2.6158400             -0.2503740             -0.0145110
      0.9221670              0.0669570              0.3102630
      0.3412870              1.0545100              0.7544830
SP   1   1.00
      0.1171670              1.0000000              1.0000000
D    1   1.00
      1.3000000              1.0000000
D    1   1.00
      0.3250000              1.0000000
F    1   1.00
      0.5500000              1.0000000
****
Cl     0
S    6   1.00
  25180.1000000              0.0018330
   3780.3500000              0.0140340
    860.4740000              0.0690970
    242.1450000              0.2374520
     77.3349000              0.4830340
     26.2470000              0.3398560
SP   6   1.00
    491.7650000             -0.0022974              0.0039894
    116.9840000             -0.0307140              0.0303180
     37.4153000             -0.1125280              0.1298800
     13.7834000              0.0450160              0.3279510
      5.4521500              0.5893530              0.4535270
      2.2258800              0.4652060              0.2521540
SP   3   1.00
      3.1864900             -0.2518300             -0.0142990
      1.1442700              0.0615890              0.3235720
      0.4203770              1.0601800              0.7435070
SP   1   1.00
      0.1426570              1.0000000              1.0000000
D    1   1.00
      1.5000000              1.0000000
D    1   1.00
      0.3750000              1.0000000
F    1   1.00
      0.7000000              1.0000000
****
}


set {
reference rhf                          
freeze_core true
e_convergence 10                       
d_convergence 10                      
dft_spherical_points 1202
dft_radial_points 99
}

e = energy('b3lyp')

print_out('Grab this energy {0}'.format(e))
--------------------------------------------------------------------------

  Memory set to  13.039 GiB by Python driver.

Scratch directory: /tmp/

*** tstart() called on n067
*** at Mon Mar  7 15:09:47 2022

   => Loading Basis Set <=

    Name: ANONYMOUS6839972C
    Role: ORBITAL
    Keyword: BASIS
    atoms 1-3 entry C          line    48 inputblock 6-31g_2dfp_ 
    atoms 4-9 entry H          line    15 inputblock 6-31g_2dfp_ 


         ---------------------------------------------------------
                                   SCF
               by Justin Turney, Rob Parrish, Andy Simmonett
                          and Daniel G. A. Smith
                              RKS Reference
                        4 Threads,  13351 MiB Core
         ---------------------------------------------------------

  ==> Geometry <==

    Molecular point group: c1
    Full point group: C1

    Geometry (in Bohr), charge = 0, multiplicity = 1:

       Center              X                  Y                   Z               Mass       
    ------------   -----------------  -----------------  -----------------  -----------------
         C           -1.427345090951    -0.000016760114    -0.824301328705    12.000000000000
         C            0.000387435149    -0.000015645914     1.647384546595    12.000000000000
         C            1.426010657949    -0.000014536214    -0.823083521605    12.000000000000
         H           -2.380953433851     1.722474548786    -1.375706355205     1.007825032230
         H           -2.373975265151    -1.722285026414    -1.371676638305     1.007825032230
         H            0.001841313749    -1.722016774514     2.743422891495     1.007825032230
         H            0.001842820649     1.722203084486     2.751475656195     1.007825032230
         H            2.384744968849     1.721929692386    -1.375767493105     1.007825032230
         H            2.377775336949    -1.721746591514    -1.371744444805     1.007825032230

  Running in c1 symmetry.

  Rotational constants: A =      0.67214  B =      0.67152  C =      0.41996 [cm^-1]
  Rotational constants: A =  20150.15385  B =  20131.68665  C =  12590.19026 [MHz]
  Nuclear repulsion =   75.708134828630406

  Charge       = 0
  Multiplicity = 1
  Electrons    = 24
  Nalpha       = 12
  Nbeta        = 12

  ==> Algorithm <==

  SCF Algorithm Type is DF.
  DIIS enabled.
  MOM disabled.
  Fractional occupation disabled.
  Guess Type is SAD.
  Energy threshold   = 1.00e-10
  Density threshold  = 1.00e-10
  Integral threshold = 0.00e+00

  ==> Primary Basis <==

  Basis Set: ANONYMOUS6839972C
    Blend: 6-31G_2DFP_
    Number of shells: 48
    Number of basis function: 126
    Number of Cartesian functions: 141
    Spherical Harmonics?: true
    Max angular momentum: 3

  ==> DFT Potential <==

   => Composite Functional: B3LYP <= 

    B3LYP Hyb-GGA Exchange-Correlation Functional

    P. J. Stephens, F. J. Devlin, C. F. Chabalowski, and M. J. Frisch, J. Phys. Chem. 98, 11623 (1994)

    Deriv               =              1
    GGA                 =           TRUE
    Meta                =          FALSE

    Exchange Hybrid     =           TRUE
    MP2 Hybrid          =          FALSE

   => Exchange Functionals <=

    0.0800   Slater exchange
    0.7200         Becke 88

   => Exact (HF) Exchange <=

    0.2000               HF 

   => Correlation Functionals <=

    0.1900   Vosko, Wilk & Nusair (VWN5_RPA)
    0.8100   Lee, Yang & Parr

   => Molecular Quadrature <=

    Radial Scheme          =       TREUTLER
    Pruning Scheme         =           NONE
    Nuclear Scheme         =       TREUTLER

    BS radius alpha        =              1
    Pruning alpha          =              1
    Radial Points          =             99
    Spherical Points       =           1202
    Total Points           =        1004924
    Total Blocks           =           6734
    Max Points             =            256
    Max Functions          =            126
    Weights Tolerance      =       1.00E-15

   => Loading Basis Set <=

    Name: (ANONYMOUS6839972C AUX)
    Role: JKFIT
    Keyword: DF_BASIS_SCF
    atoms 1-3 entry C          line   198 file /opt/psi/4/master/share/psi4/basis/def2-universal-jkfit.gbs 
    atoms 4-9 entry H          line    18 file /opt/psi/4/master/share/psi4/basis/def2-universal-jkfit.gbs 

  ==> Integral Setup <==

  DFHelper Memory: AOs need 0.044 GiB; user supplied 6.520 GiB. Using in-core AOs.

  ==> MemDFJK: Density-Fitted J/K Matrices <==

    J tasked:                   Yes
    K tasked:                   Yes
    wK tasked:                   No
    OpenMP threads:               4
    Memory [MiB]:              6676
    Algorithm:                 Core
    Schwarz Cutoff:           1E-12
    Mask sparsity (%):       0.0000
    Fitting Condition:        1E-10

   => Auxiliary Basis Set <=

  Basis Set: (ANONYMOUS6839972C AUX)
    Blend: DEF2-UNIVERSAL-JKFIT
    Number of shells: 111
    Number of basis function: 333
    Number of Cartesian functions: 387
    Spherical Harmonics?: true
    Max angular momentum: 4

  Cached 100.0% of DFT collocation blocks in 3.259 [GiB].

  Minimum eigenvalue in the overlap matrix is 1.7434147530E-03.
  Reciprocal condition number of the overlap matrix is 2.8320974020E-04.
    Using symmetric orthogonalization.

  ==> Pre-Iterations <==

  SCF Guess: Superposition of Atomic Densities via on-the-fly atomic UHF (no occupation information).

   -------------------------
    Irrep   Nso     Nmo    
   -------------------------
     A        126     126 
   -------------------------
    Total     126     126
   -------------------------

  ==> Iterations <==

                           Total Energy        Delta E     RMS |[F,P]|

   @DF-RKS iter SAD:  -117.51869174223410   -1.17519e+02   0.00000e+00 
   @DF-RKS iter   1:  -117.64452895123844   -1.25837e-01   5.46056e-03 DIIS
   @DF-RKS iter   2:  -117.51087867987694    1.33650e-01   6.76643e-03 DIIS
   @DF-RKS iter   3:  -117.90631980524061   -3.95441e-01   2.62850e-04 DIIS
   @DF-RKS iter   4:  -117.90678533407247   -4.65529e-04   4.98635e-05 DIIS
   @DF-RKS iter   5:  -117.90680409819882   -1.87641e-05   4.34794e-06 DIIS
   @DF-RKS iter   6:  -117.90680424406045   -1.45862e-07   1.47052e-06 DIIS
   @DF-RKS iter   7:  -117.90680426033823   -1.62778e-08   3.39144e-07 DIIS
   @DF-RKS iter   8:  -117.90680426126171   -9.23478e-10   1.02312e-08 DIIS
   @DF-RKS iter   9:  -117.90680426126252   -8.10019e-13   1.98569e-09 DIIS
   @DF-RKS iter  10:  -117.90680426126276   -2.41585e-13   6.50752e-10 DIIS
   @DF-RKS iter  11:  -117.90680426126272    4.26326e-14   2.40041e-10 DIIS
   @DF-RKS iter  12:  -117.90680426126268    4.26326e-14   3.39665e-11 DIIS
  Energy and wave function converged.


  ==> Post-Iterations <==

    Orbital Energies [Eh]
    ---------------------

    Doubly Occupied:                                                      

       1A    -10.176516     2A    -10.176266     3A    -10.176224  
       4A     -0.842425     5A     -0.592783     6A     -0.592470  
       7A     -0.489267     8A     -0.459221     9A     -0.360579  
      10A     -0.360061    11A     -0.289141    12A     -0.289042  

    Virtual:                                                              

      13A      0.090114    14A      0.103677    15A      0.139913  
      16A      0.139945    17A      0.147556    18A      0.213664  
      19A      0.213691    20A      0.249904    21A      0.250255  
      22A      0.396570    23A      0.399124    24A      0.465263  
      25A      0.468938    26A      0.469410    27A      0.481254  
      28A      0.481444    29A      0.541739    30A      0.541747  
      31A      0.566355    32A      0.618885    33A      0.640138  
      34A      0.640476    35A      0.647975    36A      0.648083  
      37A      0.659338    38A      0.723589    39A      0.840171  
      40A      0.840452    41A      0.890905    42A      0.890949  
      43A      0.987908    44A      1.110566    45A      1.111047  
      46A      1.116729    47A      1.138647    48A      1.146487  
      49A      1.146700    50A      1.186089    51A      1.186537  
      52A      1.189990    53A      1.282779    54A      1.283683  
      55A      1.344453    56A      1.390252    57A      1.391226  
      58A      1.417565    59A      1.418586    60A      1.419344  
      61A      1.510693    62A      1.511193    63A      1.613173  
      64A      1.637839    65A      1.739643    66A      1.740935  
      67A      1.804381    68A      1.997534    69A      1.999929  
      70A      2.143022    71A      2.211696    72A      2.211735  
      73A      2.555612    74A      2.700385    75A      2.886846  
      76A      2.913988    77A      2.914071    78A      2.917331  
      79A      2.917918    80A      2.980363    81A      2.980611  
      82A      3.081594    83A      3.118924    84A      3.120196  
      85A      3.147262    86A      3.254037    87A      3.254521  
      88A      3.299859    89A      3.300179    90A      3.355147  
      91A      3.369486    92A      3.468641    93A      3.549710  
      94A      3.602721    95A      3.603154    96A      3.730296  
      97A      3.730533    98A      3.830596    99A      3.860934  
     100A      3.861973   101A      4.035304   102A      4.036360  
     103A      4.079934   104A      4.081951   105A      4.120033  
     106A      4.216460   107A      4.216544   108A      4.337732  
     109A      4.340095   110A      4.348333   111A      4.349364  
     112A      4.349498   113A      4.397714   114A      4.426553  
     115A      4.428242   116A      4.460621   117A      4.549395  
     118A      4.618045   119A      5.037161   120A      5.039373  
     121A      5.069056   122A      5.144581   123A      5.305481  
     124A      5.307623   125A      5.374915   126A      5.376634  

    Final Occupation by Irrep:
              A 
    DOCC [    12 ]

  @DF-RKS Final Energy:  -117.90680426126268

   => Energetics <=

    Nuclear Repulsion Energy =             75.7081348286304063
    One-Electron Energy =                -306.8275081706176479
    Two-Electron Energy =                 128.2253765039892528
    DFT Exchange-Correlation Energy =     -15.0128074232647215
    Empirical Dispersion Energy =           0.0000000000000000
    VV10 Nonlocal Energy =                  0.0000000000000000
    Total Energy =                       -117.9068042612626925

Computation Completed


Properties will be evaluated at   0.000000,   0.000000,   0.000000 [a0]

Properties computed using the SCF density matrix

  Nuclear Dipole Moment: [e a0]
     X:     0.0056      Y:     0.0003      Z:     0.0000

  Electronic Dipole Moment: [e a0]
     X:    -0.0053      Y:    -0.0014      Z:    -0.0000

  Dipole Moment: [e a0]
     X:     0.0003      Y:    -0.0011      Z:     0.0000     Total:     0.0012

  Dipole Moment: [D]
     X:     0.0008      Y:    -0.0029      Z:     0.0000     Total:     0.0030


*** tstop() called on n067 at Mon Mar  7 15:10:02 2022
Module time:
	user time   =      56.52 seconds =       0.94 minutes
	system time =       0.97 seconds =       0.02 minutes
	total time  =         15 seconds =       0.25 minutes
Total time:
	user time   =      56.52 seconds =       0.94 minutes
	system time =       0.97 seconds =       0.02 minutes
	total time  =         15 seconds =       0.25 minutes
Grab this energy -117.90680426126268
    Psi4 stopped on: Monday, 07 March 2022 03:10PM
    Psi4 wall time for execution: 0:00:14.90

*** Psi4 exiting successfully. Buy a developer a beer!
