
    -----------------------------------------------------------------------
          Psi4: An Open-Source Ab Initio Electronic Structure Package
                               Psi4 1.4a2.dev629 

                         Git: Rev {master} 2938fc2 dirty


    D. G. A. Smith, L. A. Burns, A. C. Simmonett, R. M. Parrish,
    M. C. Schieber, R. Galvelis, P. Kraus, H. Kruse, R. Di Remigio,
    A. Alenaizan, A. M. James, S. Lehtola, J. P. Misiewicz, M. Scheurer,
    R. A. Shaw, J. B. Schriber, Y. Xie, Z. L. Glick, D. A. Sirianni,
    J. S. O'Brien, J. M. Waldrop, A. Kumar, E. G. Hohenstein,
    B. P. Pritchard, B. R. Brooks, H. F. Schaefer III, A. Yu. Sokolov,
    K. Patkowski, A. E. DePrince III, U. Bozkaya, R. A. King,
    F. A. Evangelista, J. M. Turney, T. D. Crawford, C. D. Sherrill,
    J. Chem. Phys. 152(18) 184108 (2020). https://doi.org/10.1063/5.0006002

                            Additional Code Authors
    E. T. Seidl, C. L. Janssen, E. F. Valeev, M. L. Leininger,
    J. F. Gonthier, R. M. Richard, H. R. McAlexander, M. Saitow, X. Wang,
    P. Verma, and M. H. Lechner

             Previous Authors, Complete List of Code Contributors,
                       and Citations for Specific Modules
    https://github.com/psi4/psi4/blob/master/codemeta.json
    https://github.com/psi4/psi4/graphs/contributors
    http://psicode.org/psi4manual/master/introduction.html#citing-psifour

    -----------------------------------------------------------------------


    Psi4 started on: Monday, 07 March 2022 04:40PM

    Process ID: 23618
    Host:       n027
    PSIDATADIR: /opt/psi/4/master/share/psi4
    Memory:     500.0 MiB
    Threads:    4
    
  ==> Input File <==

--------------------------------------------------------------------------
import os
memory 14 GB 
 
molecule {
 C   -1.4272844452    0.0018478385   -0.8248038606
 C    0.0000000001    0.0000000005    1.6452171045
 C    1.4272844455   -0.0018478389   -0.8248038608
 H   -2.3795861927    1.7219592915   -1.3730622505
 H   -2.3790744693   -1.7225690139   -1.3729656647
 H    0.0001766859   -1.7217930995    2.7482232187
 H   -0.0001766860    1.7217930993    2.7482232188
 H    2.3790744692    1.7225690140   -1.3729656646
 H    2.3795861926   -1.7219592915   -1.3730622506
units bohr
}

basis {

assign 6-31g_2dfp_

[ 6-31g_2dfp_ ]

spherical

!----------------------------------------------------------------------
! Basis Set Exchange
! Version v0.8.13
! https://www.basissetexchange.org
!----------------------------------------------------------------------
!   Basis set: 6-31G(2df,p)
! Description: 6-31G(2df,p)
!        Role: orbital
!     Version: 0  (Data from the original Basis Set Exchange)
!----------------------------------------------------------------------


****
H     0
S    3   1.00
     18.7311370              0.03349460
      2.8253937              0.23472695
      0.6401217              0.81375733
S    1   1.00
      0.1612778              1.00000000
P    1   1.00
      1.5000000              1.0000000
P    1   1.00
      0.3750000              1.0000000
****
B     0
S    6   1.00
   2068.8823000              0.0018663
    310.6495700              0.0142515
     70.6830330              0.0695516
     19.8610800              0.2325729
      6.2993048              0.4670787
      2.1270270              0.3634314
SP   3   1.00
      4.7279710             -0.1303938              0.0745976
      1.1903377             -0.1307889              0.3078467
      0.3594117              1.1309444              0.7434568
SP   1   1.00
      0.1267512              1.0000000              1.0000000
D    1   1.00
      0.8020000              1.0000000
D    1   1.00
      0.2005000              1.0000000
F    1   1.00
      0.5000000              1.0000000
****
C     0
S    6   1.00
   3047.5249000              0.0018347
    457.3695100              0.0140373
    103.9486900              0.0688426
     29.2101550              0.2321844
      9.2866630              0.4679413
      3.1639270              0.3623120
SP   3   1.00
      7.8682724             -0.1193324              0.0689991
      1.8812885             -0.1608542              0.3164240
      0.5442493              1.1434564              0.7443083
SP   1   1.00
      0.1687144              1.0000000              1.0000000
D    1   1.00
      1.2520000              1.0000000
D    1   1.00
      0.3130000              1.0000000
F    1   1.00
      0.8000000              1.0000000
****
N     0
S    6   1.00
   4173.5110000              0.0018348
    627.4579000              0.0139950
    142.9021000              0.0685870
     40.2343300              0.2322410
     12.8202100              0.4690700
      4.3904370              0.3604550
SP   3   1.00
     11.6263580             -0.1149610              0.0675800
      2.7162800             -0.1691180              0.3239070
      0.7722180              1.1458520              0.7408950
SP   1   1.00
      0.2120313              1.0000000              1.0000000
D    1   1.00
      1.8260000              1.0000000
D    1   1.00
      0.4565000              1.0000000
F    1   1.00
      1.0000000              1.0000000
****
O     0
S    6   1.00
   5484.6717000              0.0018311
    825.2349500              0.0139501
    188.0469600              0.0684451
     52.9645000              0.2327143
     16.8975700              0.4701930
      5.7996353              0.3585209
SP   3   1.00
     15.5396160             -0.1107775              0.0708743
      3.5999336             -0.1480263              0.3397528
      1.0137618              1.1307670              0.7271586
SP   1   1.00
      0.2700058              1.0000000              1.0000000
D    1   1.00
      2.5840000              1.0000000
D    1   1.00
      0.6460000              1.0000000
F    1   1.00
      1.4000000              1.0000000
****
F     0
S    6   1.00
   7001.7130900              0.0018196169
   1051.3660900              0.0139160796
    239.2856900              0.0684053245
     67.3974453              0.233185760
     21.5199573              0.471267439
      7.40310130             0.356618546
SP   3   1.00
     20.8479528             -0.108506975            0.0716287243
      4.80830834            -0.146451658            0.3459121030
      1.34406986             1.128688580            0.7224699570
SP   1   1.00
      0.358151393            1.0000000              1.0000000
D    1   1.00
      3.5000000              1.0000000
D    1   1.00
      0.8750000              1.0000000
F    1   1.00
      1.8500000              1.0000000
****
Al     0
S    6   1.00
  13983.1000000              0.00194267
   2098.7500000              0.0148599
    477.7050000              0.0728494
    134.3600000              0.2468300
     42.8709000              0.4872580
     14.5189000              0.3234960
SP   6   1.00
    239.6680000             -0.00292619             0.00460285
     57.4419000             -0.0374080              0.0331990
     18.2859000             -0.1144870              0.1362820
      6.5991400              0.1156350              0.3304760
      2.4904900              0.6125950              0.4491460
      0.9445400              0.3937990              0.2657040
SP   3   1.00
      1.2779000             -0.2276060             -0.0175130
      0.3975900              0.00144583             0.2445330
      0.1600950              1.0927900              0.8049340
SP   1   1.00
      0.0556577              1.0000000              1.0000000
D    1   1.00
      0.6500000              1.0000000
D    1   1.00
      0.1625000              1.0000000
F    1   1.00
      0.2500000              1.0000000
****
Si     0
S    6   1.00
  16115.9000000              0.00195948
   2425.5800000              0.01492880
    553.8670000              0.07284780
    156.3400000              0.24613000
     50.0683000              0.48591400
     17.0178000              0.32500200
SP   6   1.00
    292.7180000             -0.00278094             0.00443826
     69.8731000             -0.03571460             0.03266790
     22.3363000             -0.11498500             0.13472100
      8.1503900              0.09356340             0.32867800
      3.1345800              0.60301700             0.44964000
      1.2254300              0.41895900             0.26137200
SP   3   1.00
      1.7273800             -0.24463000            -0.01779510
      0.5729220              0.00431572             0.25353900
      0.2221920              1.09818000             0.80066900
SP   1   1.00
      0.0778369              1.00000000             1.00000000
D    1   1.00
      0.9000000              1.0000000
D    1   1.00
      0.2250000              1.0000000
F    1   1.00
      0.3200000              1.0000000
****
P     0
S    6   1.00
  19413.3000000              0.0018516
   2909.4200000              0.0142062
    661.3640000              0.0699995
    185.7590000              0.2400790
     59.1943000              0.4847620
     20.0310000              0.3352000
SP   6   1.00
    339.4780000             -0.00278217             0.00456462
     81.0101000             -0.0360499              0.03369360
     25.8780000             -0.1166310              0.13975500
      9.4522100              0.0968328              0.33936200
      3.6656600              0.6144180              0.45092100
      1.4674600              0.4037980              0.23858600
SP   3   1.00
      2.1562300             -0.2529230             -0.01776530
      0.7489970              0.0328517              0.27405800
      0.2831450              1.0812500              0.78542100
SP   1   1.00
      0.0998317              1.0000000              1.00000000
D    1   1.00
      1.1000000              1.0000000
D    1   1.00
      0.2750000              1.0000000
F    1   1.00
      0.4500000              1.0000000
****
S     0
S    6   1.00
  21917.1000000              0.0018690
   3301.4900000              0.0142300
    754.1460000              0.0696960
    212.7110000              0.2384870
     67.9896000              0.4833070
     23.0515000              0.3380740
SP   6   1.00
    423.7350000             -0.0023767              0.0040610
    100.7100000             -0.0316930              0.0306810
     32.1599000             -0.1133170              0.1304520
     11.8079000              0.0560900              0.3272050
      4.6311000              0.5922550              0.4528510
      1.8702500              0.4550060              0.2560420
SP   3   1.00
      2.6158400             -0.2503740             -0.0145110
      0.9221670              0.0669570              0.3102630
      0.3412870              1.0545100              0.7544830
SP   1   1.00
      0.1171670              1.0000000              1.0000000
D    1   1.00
      1.3000000              1.0000000
D    1   1.00
      0.3250000              1.0000000
F    1   1.00
      0.5500000              1.0000000
****
Cl     0
S    6   1.00
  25180.1000000              0.0018330
   3780.3500000              0.0140340
    860.4740000              0.0690970
    242.1450000              0.2374520
     77.3349000              0.4830340
     26.2470000              0.3398560
SP   6   1.00
    491.7650000             -0.0022974              0.0039894
    116.9840000             -0.0307140              0.0303180
     37.4153000             -0.1125280              0.1298800
     13.7834000              0.0450160              0.3279510
      5.4521500              0.5893530              0.4535270
      2.2258800              0.4652060              0.2521540
SP   3   1.00
      3.1864900             -0.2518300             -0.0142990
      1.1442700              0.0615890              0.3235720
      0.4203770              1.0601800              0.7435070
SP   1   1.00
      0.1426570              1.0000000              1.0000000
D    1   1.00
      1.5000000              1.0000000
D    1   1.00
      0.3750000              1.0000000
F    1   1.00
      0.7000000              1.0000000
****
}


set {
reference rhf                          
freeze_core true
e_convergence 10                       
d_convergence 10                      
dft_spherical_points 1202
dft_radial_points 99
}

e = energy('b3lyp')

print_out('Grab this energy {0}'.format(e))
--------------------------------------------------------------------------

  Memory set to  13.039 GiB by Python driver.

Scratch directory: /tmp/

*** tstart() called on n027
*** at Mon Mar  7 16:40:03 2022

   => Loading Basis Set <=

    Name: ANONYMOUS8178F7B1
    Role: ORBITAL
    Keyword: BASIS
    atoms 1-3 entry C          line    48 inputblock 6-31g_2dfp_ 
    atoms 4-9 entry H          line    15 inputblock 6-31g_2dfp_ 


         ---------------------------------------------------------
                                   SCF
               by Justin Turney, Rob Parrish, Andy Simmonett
                          and Daniel G. A. Smith
                              RKS Reference
                        4 Threads,  13351 MiB Core
         ---------------------------------------------------------

  ==> Geometry <==

    Molecular point group: c2
    Full point group: C2

    Geometry (in Bohr), charge = 0, multiplicity = 1:

       Center              X                  Y                   Z               Mass       
    ------------   -----------------  -----------------  -----------------  -----------------
         C            0.001847838700     1.427284445350    -0.823656038115    12.000000000000
         C            0.000000000000     0.000000000000     1.646364927085    12.000000000000
         C           -0.001847838700    -1.427284445350    -0.823656038115    12.000000000000
         H            1.721959291500     2.379586192650    -1.371914427965     1.007825032230
         H           -1.722569013950     2.379074469250    -1.371817842065     1.007825032230
         H           -1.721793099400    -0.000176685950     2.749371041335     1.007825032230
         H            1.721793099400     0.000176685950     2.749371041335     1.007825032230
         H            1.722569013950    -2.379074469250    -1.371817842065     1.007825032230
         H           -1.721959291500    -2.379586192650    -1.371914427965     1.007825032230

  Running in c2 symmetry.

  Rotational constants: A =      0.67214  B =      0.67152  C =      0.41996 [cm^-1]
  Rotational constants: A =  20150.17256  B =  20131.71534  C =  12590.20250 [MHz]
  Nuclear repulsion =   75.708149281330975

  Charge       = 0
  Multiplicity = 1
  Electrons    = 24
  Nalpha       = 12
  Nbeta        = 12

  ==> Algorithm <==

  SCF Algorithm Type is DF.
  DIIS enabled.
  MOM disabled.
  Fractional occupation disabled.
  Guess Type is SAD.
  Energy threshold   = 1.00e-10
  Density threshold  = 1.00e-10
  Integral threshold = 0.00e+00

  ==> Primary Basis <==

  Basis Set: ANONYMOUS8178F7B1
    Blend: 6-31G_2DFP_
    Number of shells: 48
    Number of basis function: 126
    Number of Cartesian functions: 141
    Spherical Harmonics?: true
    Max angular momentum: 3

  ==> DFT Potential <==

   => Composite Functional: B3LYP <= 

    B3LYP Hyb-GGA Exchange-Correlation Functional

    P. J. Stephens, F. J. Devlin, C. F. Chabalowski, and M. J. Frisch, J. Phys. Chem. 98, 11623 (1994)

    Deriv               =              1
    GGA                 =           TRUE
    Meta                =          FALSE

    Exchange Hybrid     =           TRUE
    MP2 Hybrid          =          FALSE

   => Exchange Functionals <=

    0.0800   Slater exchange
    0.7200         Becke 88

   => Exact (HF) Exchange <=

    0.2000               HF 

   => Correlation Functionals <=

    0.1900   Vosko, Wilk & Nusair (VWN5_RPA)
    0.8100   Lee, Yang & Parr

   => Molecular Quadrature <=

    Radial Scheme          =       TREUTLER
    Pruning Scheme         =           NONE
    Nuclear Scheme         =       TREUTLER

    BS radius alpha        =              1
    Pruning alpha          =              1
    Radial Points          =             99
    Spherical Points       =           1202
    Total Points           =        1004886
    Total Blocks           =           6694
    Max Points             =            256
    Max Functions          =            126
    Weights Tolerance      =       1.00E-15

   => Loading Basis Set <=

    Name: (ANONYMOUS8178F7B1 AUX)
    Role: JKFIT
    Keyword: DF_BASIS_SCF
    atoms 1-3 entry C          line   198 file /opt/psi/4/master/share/psi4/basis/def2-universal-jkfit.gbs 
    atoms 4-9 entry H          line    18 file /opt/psi/4/master/share/psi4/basis/def2-universal-jkfit.gbs 

  ==> Integral Setup <==

  DFHelper Memory: AOs need 0.044 GiB; user supplied 6.513 GiB. Using in-core AOs.

  ==> MemDFJK: Density-Fitted J/K Matrices <==

    J tasked:                   Yes
    K tasked:                   Yes
    wK tasked:                   No
    OpenMP threads:               4
    Memory [MiB]:              6669
    Algorithm:                 Core
    Schwarz Cutoff:           1E-12
    Mask sparsity (%):       0.0000
    Fitting Condition:        1E-10

   => Auxiliary Basis Set <=

  Basis Set: (ANONYMOUS8178F7B1 AUX)
    Blend: DEF2-UNIVERSAL-JKFIT
    Number of shells: 111
    Number of basis function: 333
    Number of Cartesian functions: 387
    Spherical Harmonics?: true
    Max angular momentum: 4

  Cached 100.0% of DFT collocation blocks in 3.266 [GiB].

  Minimum eigenvalue in the overlap matrix is 1.4892097771E-03.
  Reciprocal condition number of the overlap matrix is 2.7904850509E-04.
    Using symmetric orthogonalization.

  ==> Pre-Iterations <==

  SCF Guess: Superposition of Atomic Densities via on-the-fly atomic UHF (no occupation information).

   -------------------------
    Irrep   Nso     Nmo    
   -------------------------
     A         64      64 
     B         62      62 
   -------------------------
    Total     126     126
   -------------------------

  ==> Iterations <==

                           Total Energy        Delta E     RMS |[F,P]|

   @DF-RKS iter SAD:  -117.51869545728941   -1.17519e+02   0.00000e+00 
   @DF-RKS iter   1:  -117.64453411702527   -1.25839e-01   7.72140e-03 DIIS
   @DF-RKS iter   2:  -117.51088614830765    1.33648e-01   9.56794e-03 DIIS
   @DF-RKS iter   3:  -117.90632348016456   -3.95437e-01   3.71682e-04 DIIS
   @DF-RKS iter   4:  -117.90678901410843   -4.65534e-04   7.05076e-05 DIIS
   @DF-RKS iter   5:  -117.90680777767405   -1.87636e-05   6.14765e-06 DIIS
   @DF-RKS iter   6:  -117.90680792355317   -1.45879e-07   2.07672e-06 DIIS
   @DF-RKS iter   7:  -117.90680793978467   -1.62315e-08   4.79641e-07 DIIS
   @DF-RKS iter   8:  -117.90680794070823   -9.23563e-10   1.41135e-08 DIIS
   @DF-RKS iter   9:  -117.90680794070897   -7.38964e-13   1.55670e-09 DIIS
   @DF-RKS iter  10:  -117.90680794070904   -7.10543e-14   4.69222e-10 DIIS
   @DF-RKS iter  11:  -117.90680794070910   -5.68434e-14   8.57139e-12 DIIS
  Energy and wave function converged.


  ==> Post-Iterations <==

    Orbital Energies [Eh]
    ---------------------

    Doubly Occupied:                                                      

       1A    -10.176516     2A    -10.176264     1B    -10.176225  
       3A     -0.842424     2B     -0.592784     4A     -0.592471  
       3B     -0.489265     5A     -0.459226     6A     -0.360578  
       4B     -0.360061     5B     -0.289141     7A     -0.289042  

    Virtual:                                                              

       8A      0.090116     6B      0.103676     9A      0.139915  
       7B      0.139945     8B      0.147556    10A      0.213664  
       9B      0.213691    10B      0.249904    11A      0.250255  
      11B      0.396601    12A      0.399091    13A      0.465261  
      12B      0.468939    14A      0.469411    13B      0.481254  
      15A      0.481446    16A      0.541737    14B      0.541746  
      15B      0.566357    16B      0.618883    17B      0.640185  
      17A      0.640517    18A      0.647927    18B      0.648038  
      19A      0.659341    20A      0.723586    21A      0.840177  
      19B      0.840458    20B      0.890899    22A      0.890942  
      23A      0.987919    21B      1.110563    24A      1.111058  
      22B      1.116723    23B      1.138646    25A      1.146496  
      24B      1.146711    25B      1.186090    26A      1.186536  
      26B      1.189987    27A      1.282767    27B      1.283677  
      28A      1.344447    28B      1.390265    29A      1.391236  
      29B      1.417557    30A      1.418595    30B      1.419336  
      31B      1.510698    31A      1.511201    32A      1.613177  
      33A      1.637848    34A      1.739638    32B      1.740913  
      33B      1.804397    35A      1.997524    34B      1.999916  
      36A      2.143013    37A      2.211701    35B      2.211738  
      38A      2.555622    36B      2.700379    37B      2.886824  
      38B      2.913995    39A      2.914053    39B      2.917338  
      40A      2.917924    40B      2.980380    41A      2.980609  
      41B      3.081580    42B      3.118932    42A      3.120189  
      43A      3.147267    44A      3.254038    43B      3.254521  
      44B      3.299856    45A      3.300173    45B      3.355137  
      46B      3.369489    46A      3.468643    47A      3.549703  
      48A      3.602727    47B      3.603165    48B      3.730288  
      49A      3.730524    50A      3.830586    49B      3.860939  
      51A      3.861995    52A      4.035284    50B      4.036349  
      51B      4.079955    53A      4.081964    54A      4.120054  
      55A      4.216474    52B      4.216518    56A      4.337983  
      53B      4.340361    54B      4.347748    57A      4.349195  
      55B      4.349719    56B      4.397773    57B      4.426546  
      58A      4.428213    59A      4.460580    58B      4.549389  
      60A      4.618075    59B      5.037166    61A      5.039399  
      62A      5.069114    60B      5.144486    63A      5.305571  
      61B      5.307722    62B      5.374822    64A      5.376541  

    Final Occupation by Irrep:
              A     B 
    DOCC [     7,    5 ]

  @DF-RKS Final Energy:  -117.90680794070910

   => Energetics <=

    Nuclear Repulsion Energy =             75.7081492813309751
    One-Electron Energy =                -306.8275413687853757
    Two-Electron Energy =                 128.2253922942508382
    DFT Exchange-Correlation Energy =     -15.0128081475055488
    Empirical Dispersion Energy =           0.0000000000000000
    VV10 Nonlocal Energy =                  0.0000000000000000
    Total Energy =                       -117.9068079407091147

Computation Completed


Properties will be evaluated at   0.000000,   0.000000,   0.000000 [a0]

Properties computed using the SCF density matrix

  Nuclear Dipole Moment: [e a0]
     X:     0.0000      Y:     0.0000      Z:     0.0056

  Electronic Dipole Moment: [e a0]
     X:     0.0000      Y:     0.0000      Z:    -0.0053

  Dipole Moment: [e a0]
     X:     0.0000      Y:     0.0000      Z:     0.0003     Total:     0.0003

  Dipole Moment: [D]
     X:     0.0000      Y:     0.0000      Z:     0.0008     Total:     0.0008


*** tstop() called on n027 at Mon Mar  7 16:40:20 2022
Module time:
	user time   =      64.38 seconds =       1.07 minutes
	system time =       0.77 seconds =       0.01 minutes
	total time  =         17 seconds =       0.28 minutes
Total time:
	user time   =      64.38 seconds =       1.07 minutes
	system time =       0.77 seconds =       0.01 minutes
	total time  =         17 seconds =       0.28 minutes
Grab this energy -117.9068079407091
    Psi4 stopped on: Monday, 07 March 2022 04:40PM
    Psi4 wall time for execution: 0:00:16.92

*** Psi4 exiting successfully. Buy a developer a beer!
