
 Primary working directories    : /tmp/862637.200.gen4.q
 Secondary working directories  : /tmp/862637.200.gen4.q
 Wavefunction directory         : /home/vulcan/lo21740/wfu/
 Main file repository           : /tmp/862637.200.gen4.q/

 ARCHNAME  : Linux/x86_64
 FC        : /opt/intel/compilers_and_libraries_2016.1.150/linux/bin/intel64/ifort
 FCVERSION : 16.0.1
 BLASLIB   : -mkl
 id        : ccgc

 Nodes     nprocs
 n066         1
 ga_uses_ma=false, calling ma_init with nominal heap.
 GA-space will be limited to   8.0 MW (determined by -G option)

 Using customized tuning parameters: mindgm=10; mindgv=16; mindgc=4; mindgr=1; noblas=0; mincuda=1000; minvec=7
 default implementation of scratch files=df  

 ***,Optimization of formic acid
 memory,1000,m
 gthresh,energy=1.0d-12,orbital=1.0d-10,oneint=1.0d-16,twoint=1.0d-16,optgrad=1.0d-6,compress=1.0d-13
 geomtyp=xyz
 
 bohr
 geometry = {
  C   -3.4991582559   -0.8306875280   -0.0000000000
  O   -3.0930185441    1.6264986652    0.0000000000
  O   -1.8898352295   -2.4816204734   -0.0000000000
  H   -5.5195545318   -1.2749364372   -0.0000000000
  H   -1.2408042557    1.9520804431    0.0000000000
  C    3.5020584504    0.8308600026    0.0000000000
  O    3.0956631326   -1.6188612869    0.0000000000
  O    1.8809428834    2.4808216105   -0.0000000000
  H    5.5201439661    1.2718229835    0.0000000000
  H    1.2435623844   -1.9559779795    0.0000000000
 }
 
 basis=AVDZ, H=VDZ
 {rhf;maxit,200}
 {ccsd(t);maxit,200}

 Variables initialized (661), CPU time= 0.00 sec
 Commands  initialized (458), CPU time= 0.00 sec, 486 directives.
 Default parameters read. Elapsed time= 0.05 sec

 Checking input...
 Passed
1


                                         ***  PROGRAM SYSTEM MOLPRO  ***
                         Copyright, University College Cardiff Consultants Limited, 2008

                                    Version 2010.1 linked May 16 2016 07:17:05


 **********************************************************************************************************************************
 LABEL *   Optimization of formic acid                                                   
 Linux-4.4.3/n066(x86_64) 64 bit mpp version                                             DATE: 27-Apr-23          TIME: 15:36:06  
 **********************************************************************************************************************************

 SHA1:             9e8077add272b0f3cad6f7df79ec5211205f459d
 **********************************************************************************************************************************

 THRESHOLDS:

 ZERO    =  1.00D-12  ONEINT  =  1.00D-16  TWOINT  =  1.00D-16  PREFAC  =  1.00D-14  LOCALI  =  1.00D-09  EORDER  =  1.00D-04
 ENERGY  =  1.00D-12  ETEST   =  0.00D+00  EDENS   =  0.00D+00  THRDEDEF=  1.00D-06  GRADIENT=  1.00D-02  STEP    =  1.00D-03
 ORBITAL =  1.00D-10  CIVEC   =  1.00D-05  COEFF   =  1.00D-04  PRINTCI =  5.00D-02  PUNCHCI =  9.90D+01  OPTGRAD =  1.00D-06
 OPTENERG=  1.00D-06  OPTSTEP =  3.00D-04  THRGRAD =  1.00D-10  COMPRESS=  1.00D-13  VARMIN  =  1.00D-07  VARMAX  =  1.00D-03
 THRDOUB =  0.00D+00  THRDIV  =  1.00D-05  THRRED  =  1.00D-07  THRPSP  =  1.00D+00  THRDC   =  1.00D-10  THRCS   =  1.00D-10
 THRNRM  =  1.00D-08  THREQ   =  0.00D+00  THRDE   =  1.00D+00  THRREF  =  1.00D-05  SPARFAC =  1.00D+00  THRDLP  =  1.00D-07
 THRDIA  =  1.00D-10  THRDLS  =  1.00D-07  THRGPS  =  0.00D+00  THRKEX  =  0.00D+00  THRDIS  =  2.00D-01  THRVAR  =  1.00D-10
 THRLOC  =  1.00D-06  THRGAP  =  1.00D-06  THRLOCT = -1.00D+00  THRGAPT = -1.00D+00  THRORB  =  1.00D-06  THRMLTP =  0.00D+00
 THRCPQCI=  1.00D-10  KEXTA   =  0.00D+00  THRCOARS=  0.00D+00  SYMTOL  =  1.00D-06  GRADTOL =  1.00D-06  THROVL  =  1.00D-08
 THRORTH =  1.00D-08  GRID    =  1.00D-06  GRIDMAX =  1.00D-03  DTMAX   =  0.00D+00

 SETTING GEOMTYP        =    XYZ
 ZUNIT=BOHR
 

 Variable memory set to 1000000000 words,  buffer space   230000 words

 SETTING BASIS          =    AVDZ,H=VDZ


 Recomputing integrals since basis changed


 Using spherical harmonics

 Library entry C      S aug-cc-pVDZ          selected for orbital group  1
 Library entry C      P aug-cc-pVDZ          selected for orbital group  1
 Library entry C      D aug-cc-pVDZ          selected for orbital group  1
 Library entry O      S aug-cc-pVDZ          selected for orbital group  2
 Library entry O      P aug-cc-pVDZ          selected for orbital group  2
 Library entry O      D aug-cc-pVDZ          selected for orbital group  2
 Library entry H      S cc-pVDZ              selected for orbital group  3
 Library entry H      P cc-pVDZ              selected for orbital group  3

1PROGRAM * SEWARD (Integral evaluation for generally contracted gaussian basis sets)     Author: Roland Lindh, 1990

 Geometry written to block  1 of record 700


 Point group  Cs  



 ATOMIC COORDINATES

 NR  ATOM    CHARGE       X              Y              Z

   1  C       6.00   -3.499158256   -0.830687528    0.000000000
   2  O       8.00   -3.093018544    1.626498665    0.000000000
   3  O       8.00   -1.889835230   -2.481620473    0.000000000
   4  H       1.00   -5.519554532   -1.274936437    0.000000000
   5  H       1.00   -1.240804256    1.952080443    0.000000000
   6  C       6.00    3.502058450    0.830860003    0.000000000
   7  O       8.00    3.095663133   -1.618861287    0.000000000
   8  O       8.00    1.880942883    2.480821611    0.000000000
   9  H       1.00    5.520143966    1.271822983    0.000000000
  10  H       1.00    1.243562384   -1.955977980    0.000000000

 Bond lengths in Bohr (Angstrom)

 1-2  2.490524735  1-3  2.305536856  1-4  2.068660969  2-5  1.880611939  6-7  2.483201875
     ( 1.317928928)     ( 1.220037559)     ( 1.094688238)     ( 0.995176977)     ( 1.314053837)

  6- 8  2.313090787   6- 9  2.065700244   7-10  1.882531499
       ( 1.224034927)       ( 1.093121490)       ( 0.996192765)

 Bond angles

  1-2-5  109.35495367   2-1-3  126.34584886   2-1-4  111.78633792   3-1-4  121.86781321

  6- 7-10  109.73523029   7- 6- 8  126.08597923   7- 6- 9  111.74499416   8- 6- 9  122.16902662

 NUCLEAR CHARGE:                   48
 NUMBER OF PRIMITIVE AOS:         250
 NUMBER OF SYMMETRY AOS:          238
 NUMBER OF CONTRACTIONS:          158   ( 112A'  +  46A"  )
 NUMBER OF CORE ORBITALS:           6   (   6A'  +   0A"  )
 NUMBER OF VALENCE ORBITALS:       28   (  22A'  +   6A"  )


 NUCLEAR REPULSION ENERGY  235.53096831


 Eigenvalues of metric

         1 0.779E-03 0.127E-02 0.143E-02 0.198E-02 0.276E-02 0.420E-02 0.474E-02 0.695E-02
         2 0.270E-01 0.379E-01 0.473E-01 0.520E-01 0.617E-01 0.743E-01 0.105E+00 0.138E+00


 Contracted 2-electron integrals neglected if value below      1.0D-16
 AO integral compression algorithm  1   Integral accuracy      1.0D-16

     353.370 MB (compressed) written to integral file ( 94.6%)

     Node minimum: 353.370 MB, node maximum: 353.370 MB


 NUMBER OF SORTED TWO-ELECTRON INTEGRALS:   41131481.     BUFFER LENGTH:  32768
 NUMBER OF SEGMENTS:   3  SEGMENT LENGTH:   15997996      RECORD LENGTH: 524288

 Memory used in sort:      16.56 MW

 SORT1 READ    46708508. AND WROTE    40803113. INTEGRALS IN    118 RECORDS. CPU TIME:     0.55 SEC, REAL TIME:     0.81 SEC
 SORT2 READ    40803113. AND WROTE    41131481. INTEGRALS IN   1348 RECORDS. CPU TIME:     0.36 SEC, REAL TIME:     0.54 SEC

 FILE SIZES:   FILE 1:   319.8 MBYTE,  FILE 4:   495.0 MBYTE,   TOTAL:    814.7 MBYTE

 OPERATOR DM      FOR CENTER  0  COORDINATES:    0.000000    0.000000    0.000000


 **********************************************************************************************************************************
 DATASETS  * FILE   NREC   LENGTH (MB)   RECORD NAMES
              1      19      319.94       500      610      700      900      950      970     1000      129      960     1100   
                                          VAR    BASINP    GEOM    SYMINP    ZMAT    AOBASIS   BASIS     P2S    ABASIS      S 
                                         1400     1410     1200     1210     1080     1600     1650     1300     1700   
                                           T        V       H0       H01     AOSYM     SMH    MOLCAS    ERIS     OPER   

 PROGRAMS   *        TOTAL       INT
 CPU TIMES  *         4.65      4.60
 REAL TIME  *         5.44 SEC
 DISK USED  *         1.17 GB      
 GA USED    *         0.00 MB       (max)       0.00 MB       (current)
 **********************************************************************************************************************************

1PROGRAM * RHF-SCF (CLOSED SHELL)       Authors: W. Meyer, H.-J. Werner


 NUMBER OF ELECTRONS:      24+   24-
 CONVERGENCE THRESHOLDS:    1.00E-10 (Density)    1.00E-13 (Energy)
 MAX. NUMBER OF ITERATIONS:      200
 INTERPOLATION TYPE:            DIIS
 INTERPOLATION STEPS:              2 (START)      1 (STEP)
 LEVEL SHIFTS:                  0.00 (CLOSED)  0.00 (OPEN) 



 Orbital guess generated from atomic densities. Full valence occupancy:   28   6

 Molecular orbital dump at record        2100.2

 Initial alpha occupancy:  20   4
 Initial beta  occupancy:  20   4
 Wave function symmetry:    1

 ITERATION    DDIFF          GRAD             ENERGY        2-EL.EN.            DIPOLE MOMENTS         DIIS
    1      0.000D+00      0.000D+00      -377.47437896    746.306584    0.02200   -0.02513    0.00000    0
    2      0.000D+00      0.943D-02      -377.56260387    743.507066    0.01091   -0.01076    0.00000    1
    3      0.179D-01      0.593D-02      -377.60995423    745.782109    0.01593   -0.01657    0.00000    2
    4      0.668D-02      0.847D-03      -377.61156347    745.384527    0.01470   -0.01470    0.00000    3
    5      0.130D-02      0.359D-03      -377.61184635    745.421784    0.01520   -0.01534    0.00000    4
    6      0.540D-03      0.101D-03      -377.61189012    745.473485    0.01506   -0.01511    0.00000    5
    7      0.181D-03      0.449D-04      -377.61190062    745.455463    0.01513   -0.01516    0.00000    6
    8      0.104D-03      0.141D-04      -377.61190186    745.460974    0.01511   -0.01513    0.00000    7
    9      0.386D-04      0.467D-05      -377.61190198    745.459650    0.01514   -0.01517    0.00000    8
   10      0.125D-04      0.130D-05      -377.61190199    745.459871    0.01511   -0.01513    0.00000    7
   11      0.350D-05      0.432D-06      -377.61190199    745.459819    0.01514   -0.01517    0.00000    8
   12      0.977D-06      0.229D-06      -377.61190199    745.459811    0.01512   -0.01515    0.00000    9
   13      0.374D-06      0.493D-07      -377.61190199    745.459823    0.01513   -0.01515    0.00000    8
   14      0.121D-06      0.198D-07      -377.61190199    745.459816    0.01513   -0.01515    0.00000    9
   15      0.325D-07      0.670D-08      -377.61190199    745.459818    0.01513   -0.01515    0.00000    8
   16      0.160D-07      0.148D-08      -377.61190199    745.459818    0.01513   -0.01515    0.00000    8
   17      0.263D-08      0.548D-09      -377.61190199    745.459818    0.01513   -0.01515    0.00000    8
   18      0.101D-08      0.196D-09      -377.61190199    745.459818    0.01513   -0.01515    0.00000    8
   19      0.332D-09      0.662D-10      -377.61190199    745.459818    0.01513   -0.01515    0.00000    8
   20      0.148D-09      0.278D-10      -377.61190199    745.459818    0.01513   -0.01515    0.00000    8
   21      0.639D-10      0.801D-11      -377.61190199    745.459818    0.01513   -0.01515    0.00000    8
   22      0.220D-10      0.236D-11      -377.61190199    745.459818    0.01513   -0.01515    0.00000    8
   23      0.665D-11      0.750D-12      -377.61190199    745.459818    0.01513   -0.01515    0.00000    8
   24      0.239D-11      0.380D-12      -377.61190199    745.459818    0.01513   -0.01515    0.00000    8
   25      0.103D-11      0.154D-12      -377.61190199    745.459818    0.01513   -0.01515    0.00000    8
   26      0.851D-12      0.823D-13      -377.61190199    745.459818    0.01513   -0.01515    0.00000    9
   27      0.562D-12      0.545D-13      -377.61190199    745.459818    0.01513   -0.01515    0.00000    0

 Final occupancy:  20   4

 !RHF STATE 1.1 Energy               -377.611901990530
 Nuclear energy                       235.53096831
 One-electron energy                 -985.87277920
 Two-electron energy                  372.72990890
 Virial quotient                       -1.00164083
 !RHF STATE 1.1 Dipole moment           0.01512563    -0.01514750     0.00000000
 Dipole moment /Debye                   0.03844301    -0.03849857     0.00000000

 Orbital energies:

         1.1          2.1          3.1          4.1          5.1          6.1          7.1          8.1          9.1         10.1
    -20.626906   -20.625601   -20.587939   -20.587268   -11.420167   -11.419629    -1.490313    -1.477620    -1.392161    -1.378143

        11.1         12.1         13.1         14.1         15.1         16.1         17.1         18.1         19.1         20.1
     -0.921896    -0.886146    -0.771402    -0.735472    -0.726759    -0.698117    -0.622433    -0.581945    -0.498043    -0.475640

        21.1         22.1
      0.069490     0.070592

         1.2          2.2          3.2          4.2          5.2          6.2
     -0.645626    -0.635274    -0.506863    -0.495119     0.080712     0.093007


 **********************************************************************************************************************************
 DATASETS  * FILE   NREC   LENGTH (MB)   RECORD NAMES
              1      19      319.94       500      610      700      900      950      970     1000      129      960     1100   
                                          VAR    BASINP    GEOM    SYMINP    ZMAT    AOBASIS   BASIS     P2S    ABASIS      S 
                                         1400     1410     1200     1210     1080     1600     1650     1300     1700   
                                           T        V       H0       H01     AOSYM     SMH    MOLCAS    ERIS     OPER   

              2       3        0.73       700     1000     2100   
                                         GEOM     BASIS     RHF  

 PROGRAMS   *        TOTAL       RHF       INT
 CPU TIMES  *        10.94      6.29      4.60
 REAL TIME  *        12.78 SEC
 DISK USED  *         1.17 GB      
 GA USED    *         0.00 MB       (max)       0.00 MB       (current)
 **********************************************************************************************************************************


1PROGRAM * CCSD (Closed-shell coupled cluster)     Authors: C. Hampel, H.-J. Werner, 1991, M. Deegan, P.J. Knowles, 1992


 Convergence thresholds:  THRVAR = 1.00D-08  THRDEN = 1.00D-12

 CCSD(T)     terms to be evaluated (factor= 1.000)


 Number of core orbitals:           6 (   6   0 )
 Number of closed-shell orbitals:  18 (  14   4 )
 Number of external orbitals:     134 (  92  42 )

 Molecular orbitals read from record     2100.2  Type=RHF/CANONICAL (state 1.1)

 Number of N-1 electron functions:              18
 Number of N-2 electron functions:             171
 Number of singly external CSFs:              1456
 Number of doubly external CSFs:           1518142
 Total number of CSFs:                     1519599

 Length of J-op  integral file:               0.00 MB
 Length of K-op  integral file:               1.05 MB
 Length of 3-ext integral record:             0.00 MB

 Memory could be reduced to 29.62 Mwords without degradation in triples

 Integral transformation finished. Total CPU:   1.60 sec, npass=  1  Memory used:  13.10 MW

 Reference energy:                   -377.61190199

 MP2 singlet pair energy:              -0.63199435
 MP2 triplet pair energy:              -0.43056288
 MP2 correlation energy:               -1.06255723
 MP2 total energy:                   -378.67445922

 SCS-MP2 correlation energy:           -1.02629902   (PS=  1.200000  PT=  0.333333)
 SCS-MP2 total energy:               -378.63820101

 ITER.      SQ.NORM     CORR.ENERGY   TOTAL ENERGY   ENERGY CHANGE        DEN1      VAR(S)    VAR(P)  DIIS     TIME
   1      1.30279322    -1.07991024  -378.69181223    -0.01735301     0.01548922  0.11D-01  0.60D-02  1  1     5.47
   2      1.32738997    -1.08101322  -378.69291521    -0.00110298    -0.02621051  0.24D-03  0.10D-02  2  2     9.45
   3      1.34057015    -1.08186671  -378.69376870    -0.00085349    -0.00594328  0.21D-03  0.45D-04  3  3    13.43
   4      1.34589505    -1.08159849  -378.69350048     0.00026822    -0.00176591  0.18D-04  0.80D-05  4  4    17.43
   5      1.34798285    -1.08150942  -378.69341141     0.00008907    -0.00046823  0.17D-05  0.73D-06  5  5    21.42
   6      1.34836551    -1.08148913  -378.69339113     0.00002029    -0.00002188  0.14D-06  0.84D-07  6  6    25.44
   7      1.34844788    -1.08147967  -378.69338166     0.00000947    -0.00000599  0.12D-07  0.12D-07  6  2    29.45
   8      1.34845370    -1.08148049  -378.69338248    -0.00000082     0.00000232  0.19D-08  0.11D-08  6  1    33.42
   9      1.34845439    -1.08148031  -378.69338230     0.00000018     0.00000127  0.31D-09  0.17D-09  6  4    37.42
  10      1.34845614    -1.08148014  -378.69338213     0.00000017    -0.00000050  0.71D-10  0.23D-10  6  3    41.42
  11      1.34845566    -1.08148026  -378.69338225    -0.00000012     0.00000022  0.16D-10  0.41D-11  6  5    45.42
  12      1.34845540    -1.08148028  -378.69338227    -0.00000002     0.00000004  0.30D-11  0.10D-11  6  6    49.41
  13      1.34845511    -1.08148032  -378.69338231    -0.00000004     0.00000011  0.48D-12  0.20D-12  6  1    53.40
  14      1.34845501    -1.08148032  -378.69338231    -0.00000001     0.00000002  0.66D-13  0.31D-13  6  2    57.39
  15      1.34845499    -1.08148032  -378.69338231    -0.00000000     0.00000000  0.12D-13  0.50D-14  6  4    61.39
  16      1.34845498    -1.08148032  -378.69338231    -0.00000000    -0.00000000  0.24D-14  0.11D-14  6  3    65.36
  17      1.34845498    -1.08148032  -378.69338231     0.00000000    -0.00000000  0.28D-15  0.17D-15  6  6    69.35
  18      1.34845498    -1.08148032  -378.69338231    -0.00000000     0.00000000  0.37D-16  0.17D-16  6  5    73.34
  19      1.34845498    -1.08148032  -378.69338231    -0.00000000     0.00000000  0.93D-17  0.28D-17  6  1    77.35
  20      1.34845498    -1.08148032  -378.69338231     0.00000000    -0.00000000  0.17D-17  0.84D-18  6  5    81.35
  21      1.34845498    -1.08148032  -378.69338231    -0.00000000     0.00000000  0.19D-18  0.96D-19  6  2    85.34
  22      1.34845498    -1.08148032  -378.69338231     0.00000000    -0.00000000  0.17D-19  0.15D-19  6  3    89.34
  23      1.34845498    -1.08148032  -378.69338231     0.00000000     0.00000000  0.36D-20  0.11D-20  6  4    93.35
  24      1.34845498    -1.08148032  -378.69338231     0.00000000     0.00000000  0.12D-20  0.28D-21  6  6    97.35

 Norm of t1 vector:      0.15400855      S-energy:    -0.00000000      T1 diagnostic:  0.01815008
                                                                       D1 diagnostic:  0.06239858

 Singles amplitudes (print threshold =  0.500E-01):

         I         SYM. A    A   T(IA)

        16         2         4      0.05262617


 Total CPU time for triples:     89.49 sec


 RESULTS
 =======

  Reference energy                   -377.611901990530
  CCSD singlet pair energy             -0.702940416060
  CCSD triplet pair energy             -0.378539906744
  CCSD correlation energy              -1.081480322805

  Triples (T) contribution             -0.039460536368
  Total correlation energy             -1.120940859173

  CCSD total energy                  -378.693382313336
  CCSD[T] energy                     -378.736490735006
  CCSD-T energy                      -378.731587646154
 !CCSD(T) total energy               -378.732842849703

 Timing summary (sec):

 STEP                 CPU(USER)    SYS     CPU(TOT)    WALL
 Transformation          1.66      0.18      1.84      1.84
 CCSD iterations        95.69      2.73     98.42     99.28
 Triples                89.49      2.22     91.71     91.72

 Program statistics:

 Available memory in ccsd:               999998604
 Min. memory needed in ccsd:               3931458
 Max. memory used in ccsd:                 5315516
 Max. memory used in cckext:               5296012 (24 integral passes)



 **********************************************************************************************************************************
 DATASETS  * FILE   NREC   LENGTH (MB)   RECORD NAMES
              1      20      438.33       500      610      700      900      950      970     1000      129      960     1100   
                                          VAR    BASINP    GEOM    SYMINP    ZMAT    AOBASIS   BASIS     P2S    ABASIS      S 
                                         1400     1410     1200     1210     1080     1600     1650     1300     1700     1380   
                                           T        V       H0       H01     AOSYM     SMH    MOLCAS    ERIS     OPER     JKOP   

              2       3        0.73       700     1000     2100   
                                         GEOM     BASIS     RHF  

 PROGRAMS   *        TOTAL   CCSD(T)       RHF       INT
 CPU TIMES  *       197.79    186.85      6.29      4.60
 REAL TIME  *       205.67 SEC
 DISK USED  *         1.17 GB      
 GA USED    *         0.00 MB       (max)       0.00 MB       (current)
 **********************************************************************************************************************************

        CCSD(T)         RHF-SCF 
   -378.73284285   -377.61190199
 **********************************************************************************************************************************
 Variable memory released
