
 Primary working directories    : /tmp/1003441.408.gen6.q
 Secondary working directories  : /tmp/1003441.408.gen6.q
 Wavefunction directory         : /home/vulcan/jj04645/wfu/
 Main file repository           : /tmp/1003441.408.gen6.q/

 ARCHNAME  : Linux/x86_64
 FC        : /opt/intel/compilers_and_libraries_2016.1.150/linux/bin/intel64/ifort
 FCVERSION : 16.0.1
 BLASLIB   : -mkl
 id        : ccgc

 Nodes     nprocs
 n080         1
 ga_uses_ma=false, calling ma_init with nominal heap.
 GA-space will be limited to   8.0 MW (determined by -G option)

 Using customized tuning parameters: mindgm=10; mindgv=16; mindgc=4; mindgr=1; noblas=0; mincuda=1000; minvec=7
 default implementation of scratch files=df  

 ***,Optimization of acetyl acetylene
 memory,1000,m
 gthresh,energy=1.0d-12,orbital=1.0d-10,oneint=1.0d-16,twoint=1.0d-16,optgrad=1.0d-6,compress=1.0d-13
 geomtyp=xyz
 
 bohr
 geometry = {
  H    3.3738167177   -1.7668232104   -1.6619535179
  C    2.2748201053   -2.3117830002   -0.0019055874
  H    1.9278635155   -4.3383786602    0.0093734559
  C   -0.2125075132   -0.9155206135   -0.0019055874
  H    3.3690768340   -1.7752670401    1.6640135866
  O   -2.2584963987   -1.9582249111   -0.0019055874
  C   -0.0179412175    1.8511750471   -0.0019055874
  C    0.2078274741    4.1326070971   -0.0019055874
  H    0.3566656619    6.1377801285   -0.0019055874
 }
 
 basis=VDZ
 {rhf;maxit,200}
 {ccsd(t);maxit,200}

 Variables initialized (661), CPU time= 0.00 sec
 Commands  initialized (458), CPU time= 0.00 sec, 486 directives.
 Default parameters read. Elapsed time= 0.05 sec

 Checking input...
 Passed
1


                                         ***  PROGRAM SYSTEM MOLPRO  ***
                         Copyright, University College Cardiff Consultants Limited, 2008

                                    Version 2010.1 linked May 16 2016 07:17:05


 **********************************************************************************************************************************
 LABEL *   Optimization of acetyl acetylene                                              
 Linux-4.4.3/n080(x86_64) 64 bit mpp version                                             DATE: 15-Feb-24          TIME: 14:10:36  
 **********************************************************************************************************************************

 SHA1:             9e8077add272b0f3cad6f7df79ec5211205f459d
 **********************************************************************************************************************************

 THRESHOLDS:

 ZERO    =  1.00D-12  ONEINT  =  1.00D-16  TWOINT  =  1.00D-16  PREFAC  =  1.00D-14  LOCALI  =  1.00D-09  EORDER  =  1.00D-04
 ENERGY  =  1.00D-12  ETEST   =  0.00D+00  EDENS   =  0.00D+00  THRDEDEF=  1.00D-06  GRADIENT=  1.00D-02  STEP    =  1.00D-03
 ORBITAL =  1.00D-10  CIVEC   =  1.00D-05  COEFF   =  1.00D-04  PRINTCI =  5.00D-02  PUNCHCI =  9.90D+01  OPTGRAD =  1.00D-06
 OPTENERG=  1.00D-06  OPTSTEP =  3.00D-04  THRGRAD =  1.00D-10  COMPRESS=  1.00D-13  VARMIN  =  1.00D-07  VARMAX  =  1.00D-03
 THRDOUB =  0.00D+00  THRDIV  =  1.00D-05  THRRED  =  1.00D-07  THRPSP  =  1.00D+00  THRDC   =  1.00D-10  THRCS   =  1.00D-10
 THRNRM  =  1.00D-08  THREQ   =  0.00D+00  THRDE   =  1.00D+00  THRREF  =  1.00D-05  SPARFAC =  1.00D+00  THRDLP  =  1.00D-07
 THRDIA  =  1.00D-10  THRDLS  =  1.00D-07  THRGPS  =  0.00D+00  THRKEX  =  0.00D+00  THRDIS  =  2.00D-01  THRVAR  =  1.00D-10
 THRLOC  =  1.00D-06  THRGAP  =  1.00D-06  THRLOCT = -1.00D+00  THRGAPT = -1.00D+00  THRORB  =  1.00D-06  THRMLTP =  0.00D+00
 THRCPQCI=  1.00D-10  KEXTA   =  0.00D+00  THRCOARS=  0.00D+00  SYMTOL  =  1.00D-06  GRADTOL =  1.00D-06  THROVL  =  1.00D-08
 THRORTH =  1.00D-08  GRID    =  1.00D-06  GRIDMAX =  1.00D-03  DTMAX   =  0.00D+00

 SETTING GEOMTYP        =    XYZ
 ZUNIT=BOHR
 

 Variable memory set to 1000000000 words,  buffer space   230000 words

 SETTING BASIS          =    VDZ


 Recomputing integrals since basis changed


 Using spherical harmonics

 Library entry H      S cc-pVDZ              selected for orbital group  1
 Library entry H      P cc-pVDZ              selected for orbital group  1
 Library entry C      S cc-pVDZ              selected for orbital group  2
 Library entry C      P cc-pVDZ              selected for orbital group  2
 Library entry C      D cc-pVDZ              selected for orbital group  2
 Library entry O      S cc-pVDZ              selected for orbital group  6
 Library entry O      P cc-pVDZ              selected for orbital group  6
 Library entry O      D cc-pVDZ              selected for orbital group  6

1PROGRAM * SEWARD (Integral evaluation for generally contracted gaussian basis sets)     Author: Roland Lindh, 1990

 Geometry written to block  1 of record 700


 Point group  C1  



 ATOMIC COORDINATES

 NR  ATOM    CHARGE       X              Y              Z

   1  H       1.00    3.373816718   -1.766823210   -1.661953518
   2  C       6.00    2.274820105   -2.311783000   -0.001905587
   3  H       1.00    1.927863515   -4.338378660    0.009373456
   4  C       6.00   -0.212507513   -0.915520614   -0.001905587
   5  H       1.00    3.369076834   -1.775267040    1.664013587
   6  O       8.00   -2.258496399   -1.958224911   -0.001905587
   7  C       6.00   -0.017941217    1.851175047   -0.001905587
   8  C       6.00    0.207827474    4.132607097   -0.001905587
   9  H       1.00    0.356665662    6.137780129   -0.001905587

 Bond lengths in Bohr (Angstrom)

 1-2  2.064106068  2-3  2.056111880  2-4  2.852428322  2-5  2.064106068  4-6  2.296367299
     ( 1.092277888)     ( 1.088047546)     ( 1.509440059)     ( 1.092277888)     ( 1.215185238)

 4-7  2.773528605  7-8  2.292575779  8-9  2.010689357
     ( 1.467688126)     ( 1.213178852)     ( 1.064010982)

 Bond angles

  1-2-3  110.76181196   1-2-4  109.57536145   1-2-5  107.35023332   2-4-6  123.68739543

  2-4-7  115.28502355   3-2-4  109.59243755   3-2-5  109.95153047   4-2-5  109.57536309

  4-7-8  178.37112628   6-4-7  121.02758103   7-8-9  178.59357076

 NUCLEAR CHARGE:                   36
 NUMBER OF PRIMITIVE AOS:         163
 NUMBER OF SYMMETRY AOS:          158
 NUMBER OF CONTRACTIONS:           90   (  90A   )
 NUMBER OF CORE ORBITALS:           5   (   5A   )
 NUMBER OF VALENCE ORBITALS:       24   (  24A   )


 NUCLEAR REPULSION ENERGY  142.22939749


 Eigenvalues of metric

         1 0.304E-03 0.212E-02 0.378E-02 0.954E-02 0.161E-01 0.176E-01 0.219E-01 0.328E-01


 Contracted 2-electron integrals neglected if value below      1.0D-16
 AO integral compression algorithm  1   Integral accuracy      1.0D-16

     54.264 MB (compressed) written to integral file ( 70.8%)

     Node minimum: 54.264 MB, node maximum: 54.264 MB


 NUMBER OF SORTED TWO-ELECTRON INTEGRALS:    8386560.     BUFFER LENGTH:  32768
 NUMBER OF SEGMENTS:   1  SEGMENT LENGTH:    8386560      RECORD LENGTH: 524288

 Memory used in sort:       8.94 MW

 SORT1 READ     9559587. AND WROTE     6361798. INTEGRALS IN     19 RECORDS. CPU TIME:     0.07 SEC, REAL TIME:     0.11 SEC
 SORT2 READ     6361798. AND WROTE     8386560. INTEGRALS IN    207 RECORDS. CPU TIME:     0.11 SEC, REAL TIME:     0.13 SEC

 FILE SIZES:   FILE 1:    50.5 MBYTE,  FILE 4:    79.7 MBYTE,   TOTAL:    130.2 MBYTE

 OPERATOR DM      FOR CENTER  0  COORDINATES:    0.000000    0.000000    0.000000


 **********************************************************************************************************************************
 DATASETS  * FILE   NREC   LENGTH (MB)   RECORD NAMES
              1      19       50.56       500      610      700      900      950      970     1000      129      960     1100   
                                          VAR    BASINP    GEOM    SYMINP    ZMAT    AOBASIS   BASIS     P2S    ABASIS      S 
                                         1400     1410     1200     1210     1080     1600     1650     1300     1700   
                                           T        V       H0       H01     AOSYM     SMH    MOLCAS    ERIS     OPER   

 PROGRAMS   *        TOTAL       INT
 CPU TIMES  *         0.92      0.89
 REAL TIME  *         1.22 SEC
 DISK USED  *       185.19 MB      
 GA USED    *         0.00 MB       (max)       0.00 MB       (current)
 **********************************************************************************************************************************

1PROGRAM * RHF-SCF (CLOSED SHELL)       Authors: W. Meyer, H.-J. Werner


 NUMBER OF ELECTRONS:      18+   18-    SPACE SYMMETRY=1    SPIN SYMMETRY: Singlet 
 CONVERGENCE THRESHOLDS:    1.00E-10 (Density)    1.00E-13 (Energy)
 MAX. NUMBER OF ITERATIONS:      200
 INTERPOLATION TYPE:            DIIS
 INTERPOLATION STEPS:              2 (START)      1 (STEP)
 LEVEL SHIFTS:                  0.00 (CLOSED)  0.00 (OPEN) 



 Orbital guess generated from atomic densities. Full valence occupancy:   29

 Molecular orbital dump at record        2100.2

 ITERATION    DDIFF          GRAD             ENERGY        2-EL.EN.            DIPOLE MOMENTS         DIIS
    1      0.000D+00      0.000D+00      -228.51846123    442.464691    1.92163    1.01342    0.00318    0
    2      0.000D+00      0.891D-02      -228.57144307    440.623354    0.82687    0.44524    0.00174    1
    3      0.212D-01      0.653D-02      -228.60353491    441.177305    1.22508    0.61503    0.00167    2
    4      0.782D-02      0.106D-02      -228.60538741    441.309151    1.16743    0.62517    0.00172    3
    5      0.237D-02      0.401D-03      -228.60565026    441.202678    1.16332    0.58315    0.00162    4
    6      0.831D-03      0.148D-03      -228.60568720    441.235229    1.16441    0.59328    0.00161    5
    7      0.319D-03      0.624D-04      -228.60569610    441.225119    1.16091    0.58573    0.00161    6
    8      0.163D-03      0.258D-04      -228.60569768    441.228169    1.16066    0.58503    0.00161    7
    9      0.770D-04      0.709D-05      -228.60569784    441.226911    1.16012    0.58454    0.00161    8
   10      0.281D-04      0.162D-05      -228.60569786    441.227344    1.16003    0.58453    0.00161    7
   11      0.547D-05      0.746D-06      -228.60569786    441.227112    1.15999    0.58453    0.00161    8
   12      0.239D-05      0.403D-06      -228.60569786    441.227151    1.15997    0.58452    0.00161    8
   13      0.190D-05      0.191D-06      -228.60569786    441.227140    1.15997    0.58451    0.00161    9
   14      0.850D-06      0.653D-07      -228.60569786    441.227142    1.15997    0.58451    0.00161    9
   15      0.276D-06      0.133D-07      -228.60569786    441.227144    1.15997    0.58451    0.00161    8
   16      0.469D-07      0.426D-08      -228.60569786    441.227143    1.15998    0.58451    0.00161    8
   17      0.904D-08      0.196D-08      -228.60569786    441.227144    1.15998    0.58451    0.00161    9
   18      0.429D-08      0.606D-09      -228.60569786    441.227143    1.15998    0.58451    0.00161    9
   19      0.148D-08      0.201D-09      -228.60569786    441.227143    1.15998    0.58451    0.00161    9
   20      0.540D-09      0.391D-10      -228.60569786    441.227143    1.15998    0.58451    0.00161    7
   21      0.114D-09      0.987D-11      -228.60569786    441.227143    1.15998    0.58451    0.00161    7
   22      0.236D-10      0.425D-11      -228.60569786    441.227143    1.15998    0.58451    0.00161    0

 Final occupancy:  18

 !RHF STATE 1.1 Energy               -228.605697860502
 Nuclear energy                       142.22939749
 One-electron energy                 -591.44866705
 Two-electron energy                  220.61357171
 Virial quotient                       -1.00147501
 !RHF STATE 1.1 Dipole moment           1.15997507     0.58450519     0.00160791
 Dipole moment /Debye                   2.94816943     1.48556670     0.00408663

 Orbital energies:

         1.1          2.1          3.1          4.1          5.1          6.1          7.1          8.1          9.1         10.1
    -20.568332   -11.368627   -11.272683   -11.261562   -11.252573    -1.403909    -1.070679    -1.015783    -0.860363    -0.733040

        11.1         12.1         13.1         14.1         15.1         16.1         17.1         18.1         19.1         20.1
     -0.684878    -0.637251    -0.614278    -0.571511    -0.517731    -0.445513    -0.417697    -0.414352     0.094178     0.180260


 **********************************************************************************************************************************
 DATASETS  * FILE   NREC   LENGTH (MB)   RECORD NAMES
              1      19       50.56       500      610      700      900      950      970     1000      129      960     1100   
                                          VAR    BASINP    GEOM    SYMINP    ZMAT    AOBASIS   BASIS     P2S    ABASIS      S 
                                         1400     1410     1200     1210     1080     1600     1650     1300     1700   
                                           T        V       H0       H01     AOSYM     SMH    MOLCAS    ERIS     OPER   

              2       3        0.57       700     1000     2100   
                                         GEOM     BASIS     RHF  

 PROGRAMS   *        TOTAL       RHF       INT
 CPU TIMES  *         2.20      1.28      0.89
 REAL TIME  *         2.62 SEC
 DISK USED  *       185.19 MB      
 GA USED    *         0.00 MB       (max)       0.00 MB       (current)
 **********************************************************************************************************************************


1PROGRAM * CCSD (Closed-shell coupled cluster)     Authors: C. Hampel, H.-J. Werner, 1991, M. Deegan, P.J. Knowles, 1992


 Convergence thresholds:  THRVAR = 1.00D-08  THRDEN = 1.00D-12

 CCSD(T)     terms to be evaluated (factor= 1.000)


 Number of core orbitals:           5 (   5 )
 Number of closed-shell orbitals:  13 (  13 )
 Number of external orbitals:      72 (  72 )

 Molecular orbitals read from record     2100.2  Type=RHF/CANONICAL (state 1.1)

 Number of N-1 electron functions:              13
 Number of N-2 electron functions:              91
 Number of singly external CSFs:               936
 Number of doubly external CSFs:            438516
 Total number of CSFs:                      439453

 Length of J-op  integral file:               0.00 MB
 Length of K-op  integral file:               0.59 MB
 Length of 3-ext integral record:             0.00 MB

 Memory could be reduced to 7.27 Mwords without degradation in triples

 Integral transformation finished. Total CPU:   0.31 sec, npass=  1  Memory used:   6.58 MW

 Reference energy:                   -228.60569786

 MP2 singlet pair energy:              -0.43052458
 MP2 triplet pair energy:              -0.26903175
 MP2 correlation energy:               -0.69955633
 MP2 total energy:                   -229.30525419

 SCS-MP2 correlation energy:           -0.68402702   (PS=  1.200000  PT=  0.333333)
 SCS-MP2 total energy:               -229.28972489

 ITER.      SQ.NORM     CORR.ENERGY   TOTAL ENERGY   ENERGY CHANGE        DEN1      VAR(S)    VAR(P)  DIIS     TIME
   1      1.25726354    -0.72722489  -229.33292275    -0.02766856    -0.00370585  0.60D-02  0.55D-02  1  1     1.12
   2      1.28001282    -0.72999715  -229.33569501    -0.00277226    -0.02080636  0.12D-03  0.98D-03  2  2     1.96
   3      1.29066955    -0.73077248  -229.33647034    -0.00077533    -0.00476005  0.11D-03  0.92D-04  3  3     2.79
   4      1.29495274    -0.73073736  -229.33643522     0.00003512    -0.00140747  0.80D-05  0.18D-04  4  4     3.63
   5      1.29681243    -0.73075841  -229.33645627    -0.00002105    -0.00044456  0.16D-05  0.20D-05  5  5     4.47
   6      1.29723743    -0.73075435  -229.33645221     0.00000407    -0.00006261  0.28D-06  0.27D-06  6  6     5.31
   7      1.29732509    -0.73075015  -229.33644802     0.00000419    -0.00000186  0.56D-07  0.30D-07  6  1     6.14
   8      1.29736317    -0.73075112  -229.33644898    -0.00000097    -0.00000947  0.11D-07  0.48D-08  6  2     6.98
   9      1.29736535    -0.73075122  -229.33644908    -0.00000010     0.00000298  0.17D-08  0.83D-09  6  3     7.81
  10      1.29736809    -0.73075094  -229.33644880     0.00000028    -0.00000057  0.33D-09  0.16D-09  6  4     8.65
  11      1.29736791    -0.73075119  -229.33644905    -0.00000025     0.00000057  0.42D-10  0.32D-10  6  5     9.49
  12      1.29736762    -0.73075115  -229.33644901     0.00000004     0.00000015  0.82D-11  0.62D-11  6  6    10.32
  13      1.29736727    -0.73075118  -229.33644904    -0.00000003     0.00000015  0.95D-12  0.16D-11  6  1    11.17
  14      1.29736704    -0.73075118  -229.33644904    -0.00000000     0.00000006  0.29D-12  0.24D-12  6  2    12.00
  15      1.29736693    -0.73075118  -229.33644904    -0.00000000     0.00000003  0.46D-13  0.51D-13  6  3    12.84
  16      1.29736688    -0.73075118  -229.33644904    -0.00000000     0.00000001  0.96D-14  0.10D-13  6  4    13.68
  17      1.29736686    -0.73075118  -229.33644905    -0.00000000     0.00000000  0.32D-14  0.13D-14  6  5    14.52
  18      1.29736686    -0.73075119  -229.33644905    -0.00000000    -0.00000000  0.72D-15  0.29D-15  6  6    15.36
  19      1.29736686    -0.73075119  -229.33644905    -0.00000000    -0.00000000  0.28D-15  0.74D-16  6  1    16.19
  20      1.29736686    -0.73075119  -229.33644905     0.00000000    -0.00000000  0.12D-15  0.24D-16  6  2    17.03
  21      1.29736686    -0.73075119  -229.33644905    -0.00000000     0.00000000  0.45D-16  0.97D-17  6  3    17.88
  22      1.29736686    -0.73075119  -229.33644905     0.00000000     0.00000000  0.12D-16  0.36D-17  6  4    18.71
  23      1.29736686    -0.73075119  -229.33644905     0.00000000     0.00000000  0.26D-17  0.87D-18  6  5    19.55
  24      1.29736686    -0.73075119  -229.33644905     0.00000000     0.00000000  0.57D-18  0.19D-18  6  6    20.38
  25      1.29736686    -0.73075119  -229.33644905     0.00000000    -0.00000000  0.90D-19  0.49D-19  6  1    21.22
  26      1.29736686    -0.73075119  -229.33644905     0.00000000    -0.00000000  0.29D-19  0.11D-19  6  4    22.06
  27      1.29736686    -0.73075119  -229.33644905     0.00000000    -0.00000000  0.40D-20  0.16D-20  6  2    22.90

 Norm of t1 vector:      0.10831883      S-energy:     0.00000000      T1 diagnostic:  0.01502112
                                                                       D1 diagnostic:  0.05036631

 Doubles amplitudes (print threshold =  0.500E-01):

         I         J         SYM. A    SYM. B    A         B      T(IJ, AB)

        10        10         1         1         1         1     -0.05803984
        12        12         1         1         2         2     -0.06483823
        13        13         1         1         1         1     -0.07377790


 Total CPU time for triples:      7.64 sec


 RESULTS
 =======

  Reference energy                   -228.605697860502
  CCSD singlet pair energy             -0.496639389272
  CCSD triplet pair energy             -0.234111796128
  CCSD correlation energy              -0.730751185400

  Triples (T) contribution             -0.028476886808
  Total correlation energy             -0.759228072208

  CCSD total energy                  -229.336449045902
  CCSD[T] energy                     -229.366781905737
  CCSD-T energy                      -229.364222927833
 !CCSD(T) total energy               -229.364925932709

 Timing summary (sec):

 STEP                 CPU(USER)    SYS     CPU(TOT)    WALL
 Transformation          0.32      0.04      0.36      0.36
 CCSD iterations        22.58      0.67     23.25     23.30
 Triples                 7.64      0.20      7.84      7.84

 Program statistics:

 Available memory in ccsd:               999999224
 Min. memory needed in ccsd:               1253983
 Max. memory used in ccsd:                 1626745
 Max. memory used in cckext:               1605212 (27 integral passes)



 **********************************************************************************************************************************
 DATASETS  * FILE   NREC   LENGTH (MB)   RECORD NAMES
              1      20       79.31       500      610      700      900      950      970     1000      129      960     1100   
                                          VAR    BASINP    GEOM    SYMINP    ZMAT    AOBASIS   BASIS     P2S    ABASIS      S 
                                         1400     1410     1200     1210     1080     1600     1650     1300     1700     1380   
                                           T        V       H0       H01     AOSYM     SMH    MOLCAS    ERIS     OPER     JKOP   

              2       3        0.57       700     1000     2100   
                                         GEOM     BASIS     RHF  

 PROGRAMS   *        TOTAL   CCSD(T)       RHF       INT
 CPU TIMES  *        32.74     30.54      1.28      0.89
 REAL TIME  *        34.16 SEC
 DISK USED  *       212.31 MB      
 GA USED    *         0.00 MB       (max)       0.00 MB       (current)
 **********************************************************************************************************************************

        CCSD(T)         RHF-SCF 
   -229.36492593   -228.60569786
 **********************************************************************************************************************************
 Variable memory released
