
 Primary working directories    : /tmp/943419.241.gen5.q
 Secondary working directories  : /tmp/943419.241.gen5.q
 Wavefunction directory         : /home/vulcan/mel64643/wfu/
 Main file repository           : /tmp/943419.241.gen5.q/

 ARCHNAME  : Linux/x86_64
 FC        : /opt/intel/compilers_and_libraries_2016.1.150/linux/bin/intel64/ifort
 FCVERSION : 16.0.1
 BLASLIB   : -mkl
 id        : ccgc

 Nodes     nprocs
 n070         1
 ga_uses_ma=false, calling ma_init with nominal heap.
 GA-space will be limited to   8.0 MW (determined by -G option)

 Using customized tuning parameters: mindgm=10; mindgv=16; mindgc=4; mindgr=1; noblas=0; mincuda=1000; minvec=7
 default implementation of scratch files=df  

 ***,Optimization of nh3_nitrosmethane
 memory,1000,m
 gthresh,energy=1.0d-12,orbital=1.0d-10,oneint=1.0d-16,twoint=1.0d-16,optgrad=1.0d-6,compress=1.0d-13
 geomtyp=xyz
 
 bohr
 geometry = {
  N   -5.2221173366   -0.1849519751   -0.0015147715
  H   -6.2956169683    0.2314060070   -1.5360442577
  H   -3.7578291248    1.0581948570    0.0003280966
  H   -6.2973077411    0.2288486376    1.5325226529
  H   -0.9203503482   -2.4009741439    0.0001569681
  H    1.8690718580   -3.4313483564   -1.6623064494
  H    1.8890559510   -3.4323730796    1.6616903706
  C    1.1344085313   -2.4704990636    0.0044652479
  N    2.2644118155    0.0975198018   -0.0015366819
  O    0.7003918532    1.7812343243    0.0022388243
 }
 
 basis=aug-cc-pvtz
 {rhf;maxit,200}
 {mp2}

 Variables initialized (661), CPU time= 0.01 sec
 Commands  initialized (458), CPU time= 0.01 sec, 486 directives.
 Default parameters read. Elapsed time= 0.10 sec

 Checking input...
 Passed
1


                                         ***  PROGRAM SYSTEM MOLPRO  ***
                         Copyright, University College Cardiff Consultants Limited, 2008

                                    Version 2010.1 linked May 16 2016 07:17:05


 **********************************************************************************************************************************
 LABEL *   Optimization of nh3_nitrosmethane                                             
 Linux-4.4.3/n070(x86_64) 64 bit mpp version                                             DATE: 25-Oct-23          TIME: 23:09:07  
 **********************************************************************************************************************************

 SHA1:             9e8077add272b0f3cad6f7df79ec5211205f459d
 **********************************************************************************************************************************

 THRESHOLDS:

 ZERO    =  1.00D-12  ONEINT  =  1.00D-16  TWOINT  =  1.00D-16  PREFAC  =  1.00D-14  LOCALI  =  1.00D-09  EORDER  =  1.00D-04
 ENERGY  =  1.00D-12  ETEST   =  0.00D+00  EDENS   =  0.00D+00  THRDEDEF=  1.00D-06  GRADIENT=  1.00D-02  STEP    =  1.00D-03
 ORBITAL =  1.00D-10  CIVEC   =  1.00D-05  COEFF   =  1.00D-04  PRINTCI =  5.00D-02  PUNCHCI =  9.90D+01  OPTGRAD =  1.00D-06
 OPTENERG=  1.00D-06  OPTSTEP =  3.00D-04  THRGRAD =  1.00D-10  COMPRESS=  1.00D-13  VARMIN  =  1.00D-07  VARMAX  =  1.00D-03
 THRDOUB =  0.00D+00  THRDIV  =  1.00D-05  THRRED  =  1.00D-07  THRPSP  =  1.00D+00  THRDC   =  1.00D-10  THRCS   =  1.00D-10
 THRNRM  =  1.00D-08  THREQ   =  0.00D+00  THRDE   =  1.00D+00  THRREF  =  1.00D-05  SPARFAC =  1.00D+00  THRDLP  =  1.00D-07
 THRDIA  =  1.00D-10  THRDLS  =  1.00D-07  THRGPS  =  0.00D+00  THRKEX  =  0.00D+00  THRDIS  =  2.00D-01  THRVAR  =  1.00D-10
 THRLOC  =  1.00D-06  THRGAP  =  1.00D-06  THRLOCT = -1.00D+00  THRGAPT = -1.00D+00  THRORB  =  1.00D-06  THRMLTP =  0.00D+00
 THRCPQCI=  1.00D-10  KEXTA   =  0.00D+00  THRCOARS=  0.00D+00  SYMTOL  =  1.00D-06  GRADTOL =  1.00D-06  THROVL  =  1.00D-08
 THRORTH =  1.00D-08  GRID    =  1.00D-06  GRIDMAX =  1.00D-03  DTMAX   =  0.00D+00

 SETTING GEOMTYP        =    XYZ
 ZUNIT=BOHR
 

 Variable memory set to 1000000000 words,  buffer space   230000 words

 SETTING BASIS          =    AUG-CC-PVTZ


 Recomputing integrals since basis changed


 Using spherical harmonics

 Library entry N      S aug-cc-pVTZ          selected for orbital group  1
 Library entry N      P aug-cc-pVTZ          selected for orbital group  1
 Library entry N      D aug-cc-pVTZ          selected for orbital group  1
 Library entry N      F aug-cc-pVTZ          selected for orbital group  1
 Library entry H      S aug-cc-pVTZ          selected for orbital group  2
 Library entry H      P aug-cc-pVTZ          selected for orbital group  2
 Library entry H      D aug-cc-pVTZ          selected for orbital group  2
 Library entry C      S aug-cc-pVTZ          selected for orbital group  3
 Library entry C      P aug-cc-pVTZ          selected for orbital group  3
 Library entry C      D aug-cc-pVTZ          selected for orbital group  3
 Library entry C      F aug-cc-pVTZ          selected for orbital group  3
 Library entry O      S aug-cc-pVTZ          selected for orbital group  5
 Library entry O      P aug-cc-pVTZ          selected for orbital group  5
 Library entry O      D aug-cc-pVTZ          selected for orbital group  5
 Library entry O      F aug-cc-pVTZ          selected for orbital group  5

1PROGRAM * SEWARD (Integral evaluation for generally contracted gaussian basis sets)     Author: Roland Lindh, 1990

 Geometry written to block  1 of record 700


 Point group  C1  



 ATOMIC COORDINATES

 NR  ATOM    CHARGE       X              Y              Z

   1  N       7.00   -5.222117337   -0.184951975   -0.001514771
   2  H       1.00   -6.295616968    0.231406007   -1.536044258
   3  H       1.00   -3.757829125    1.058194857    0.000328097
   4  H       1.00   -6.297307741    0.228848638    1.532522653
   5  H       1.00   -0.920350348   -2.400974144    0.000156968
   6  H       1.00    1.869071858   -3.431348356   -1.662306449
   7  H       1.00    1.889055951   -3.432373080    1.661690371
   8  C       6.00    1.134408531   -2.470499064    0.004465248
   9  N       7.00    2.264411815    0.097519802   -0.001536682
  10  O       8.00    0.700391853    1.781234324    0.002238824

 Bond lengths in Bohr (Angstrom)

 1-2  1.918472354  1-3  1.920822066  1-4  1.918472354  5-8  2.055939281  6-8  2.059390555
     ( 1.015211846)     ( 1.016455260)     ( 1.015211846)     ( 1.087956211)     ( 1.089782546)

  7- 8  2.059390555   8- 9  2.805648648   9-10  2.298057286
       ( 1.089782546)       ( 1.484685321)       ( 1.216079541)

 Bond angles

  2-1-3  106.67095379   2-1-4  106.21107418   3-1-4  106.67095379   5-8-6  111.75356300

  5-8-7  112.56384411   5-8-9  111.81259323   6-8-7  107.61715628   6-8-9  106.35819337

  7- 8- 9  106.35819144   8- 9-10  113.35946296

 NUCLEAR CHARGE:                   34
 NUMBER OF PRIMITIVE AOS:         430
 NUMBER OF SYMMETRY AOS:          382
 NUMBER OF CONTRACTIONS:          322   ( 322A   )
 NUMBER OF CORE ORBITALS:           4   (   4A   )
 NUMBER OF VALENCE ORBITALS:       22   (  22A   )


 NUCLEAR REPULSION ENERGY  117.44081997


 Eigenvalues of metric

         1 0.329E-04 0.522E-04 0.809E-04 0.105E-03 0.118E-03 0.169E-03 0.232E-03 0.237E-03


 Contracted 2-electron integrals neglected if value below      1.0D-16
 AO integral compression algorithm  1   Integral accuracy      1.0D-16

     9698.804 MB (compressed) written to integral file ( 80.5%)

     Node minimum: 9698.804 MB, node maximum: 9698.804 MB


 NUMBER OF SORTED TWO-ELECTRON INTEGRALS: 1352182006.     BUFFER LENGTH:  32768
 NUMBER OF SEGMENTS:  43  SEGMENT LENGTH:   31998710      RECORD LENGTH: 524288

 Memory used in sort:      32.56 MW

 SORT1 READ  1506454996. AND WROTE  1291552847. INTEGRALS IN   3716 RECORDS. CPU TIME:    16.08 SEC, REAL TIME:    24.06 SEC
 SORT2 READ  1291552847. AND WROTE  1352182006. INTEGRALS IN  36998 RECORDS. CPU TIME:     9.77 SEC, REAL TIME:    15.58 SEC

 FILE SIZES:   FILE 1:  8809.7 MBYTE,  FILE 4: 15586.1 MBYTE,   TOTAL:  24395.7 MBYTE

 OPERATOR DM      FOR CENTER  0  COORDINATES:    0.000000    0.000000    0.000000


 **********************************************************************************************************************************
 DATASETS  * FILE   NREC   LENGTH (MB)   RECORD NAMES
              1      19     8810.92       500      610      700      900      950      970     1000      129      960     1100   
                                          VAR    BASINP    GEOM    SYMINP    ZMAT    AOBASIS   BASIS     P2S    ABASIS      S 
                                         1400     1410     1200     1210     1080     1600     1650     1300     1700   
                                           T        V       H0       H01     AOSYM     SMH    MOLCAS    ERIS     OPER   

 PROGRAMS   *        TOTAL       INT
 CPU TIMES  *        67.01     66.88
 REAL TIME  *        87.33 SEC
 DISK USED  *        34.10 GB      
 GA USED    *         0.00 MB       (max)       0.00 MB       (current)
 **********************************************************************************************************************************

1PROGRAM * RHF-SCF (CLOSED SHELL)       Authors: W. Meyer, H.-J. Werner


 NUMBER OF ELECTRONS:      17+   17-    SPACE SYMMETRY=1    SPIN SYMMETRY: Singlet 
 CONVERGENCE THRESHOLDS:    1.00E-10 (Density)    1.00E-13 (Energy)
 MAX. NUMBER OF ITERATIONS:      200
 INTERPOLATION TYPE:            DIIS
 INTERPOLATION STEPS:              2 (START)      1 (STEP)
 LEVEL SHIFTS:                  0.00 (CLOSED)  0.00 (OPEN) 



 Orbital guess generated from atomic densities. Full valence occupancy:   26

 Molecular orbital dump at record        2100.2

 ITERATION    DDIFF          GRAD             ENERGY        2-EL.EN.            DIPOLE MOMENTS         DIIS
    1      0.000D+00      0.000D+00      -225.01766237    393.593136    0.07309   -0.60351   -0.00201    0
    2      0.000D+00      0.279D-02      -225.07816647    393.018391   -0.57564   -0.38235    0.00102    1
    3      0.489D-02      0.202D-02      -225.11371127    393.624167   -0.23138   -0.56143    0.00001    2
    4      0.205D-02      0.389D-03      -225.11597236    393.481461   -0.30742   -0.46391    0.00021    3
    5      0.555D-03      0.159D-03      -225.11641387    393.490824   -0.30425   -0.49253    0.00026    4
    6      0.234D-03      0.389D-04      -225.11646177    393.516075   -0.31015   -0.48890    0.00029    5
    7      0.833D-04      0.148D-04      -225.11646868    393.500395   -0.31201   -0.48891    0.00029    6
    8      0.341D-04      0.604D-05      -225.11646980    393.507094   -0.31307   -0.48878    0.00030    7
    9      0.133D-04      0.267D-05      -225.11647006    393.505629   -0.31339   -0.48846    0.00030    8
   10      0.733D-05      0.821D-06      -225.11647009    393.505328   -0.31350   -0.48825    0.00030    8
   11      0.241D-05      0.270D-06      -225.11647009    393.505450   -0.31352   -0.48816    0.00030    8
   12      0.751D-06      0.875D-07      -225.11647009    393.505400   -0.31352   -0.48813    0.00030    8
   13      0.295D-06      0.307D-07      -225.11647009    393.505394   -0.31352   -0.48812    0.00030    8
   14      0.749D-07      0.158D-07      -225.11647009    393.505397   -0.31352   -0.48812    0.00030    9
   15      0.367D-07      0.544D-08      -225.11647009    393.505397   -0.31352   -0.48812    0.00030    8
   16      0.165D-07      0.407D-08      -225.11647009    393.505397   -0.31352   -0.48812    0.00031    8
   17      0.306D-07      0.180D-08      -225.11647009    393.505397   -0.31352   -0.48812    0.00031    8
   18      0.191D-07      0.378D-09      -225.11647009    393.505397   -0.31352   -0.48812    0.00031    9
   19      0.246D-08      0.108D-09      -225.11647009    393.505397   -0.31352   -0.48812    0.00031    9
   20      0.301D-09      0.344D-10      -225.11647009    393.505397   -0.31352   -0.48812    0.00031    9
   21      0.984D-10      0.114D-10      -225.11647009    393.505397   -0.31352   -0.48812    0.00031    9
   22      0.380D-10      0.463D-11      -225.11647009    393.505397   -0.31352   -0.48812    0.00031    9
   23      0.234D-10      0.207D-11      -225.11647009    393.505397   -0.31352   -0.48812    0.00031    9
   24      0.248D-10      0.105D-11      -225.11647009    393.505397   -0.31352   -0.48812    0.00031    8
   25      0.147D-10      0.561D-12      -225.11647009    393.505397   -0.31352   -0.48812    0.00031    8
   26      0.165D-10      0.251D-12      -225.11647009    393.505397   -0.31352   -0.48812    0.00031    9
   27      0.912D-11      0.304D-12      -225.11647009    393.505397   -0.31352   -0.48812    0.00031    0

 Final occupancy:  17

 !RHF STATE 1.1 Energy               -225.116470088749
 Nuclear energy                       117.44081997
 One-electron energy                 -539.30998835
 Two-electron energy                  196.75269829
 Virial quotient                       -1.00196984
 !RHF STATE 1.1 Dipole moment          -0.31352466    -0.48812194     0.00030591
 Dipole moment /Debye                  -0.79684800    -1.24060097     0.00077751

 Orbital energies:

         1.1          2.1          3.1          4.1          5.1          6.1          7.1          8.1          9.1         10.1
    -20.630978   -15.706080   -15.538869   -11.263008    -1.509494    -1.138765    -1.074303    -0.861426    -0.691558    -0.675310

        11.1         12.1         13.1         14.1         15.1         16.1         17.1         18.1         19.1
     -0.636472    -0.624278    -0.623775    -0.557126    -0.534993    -0.429203    -0.406657     0.028801     0.038554


 **********************************************************************************************************************************
 DATASETS  * FILE   NREC   LENGTH (MB)   RECORD NAMES
              1      19     8810.92       500      610      700      900      950      970     1000      129      960     1100   
                                          VAR    BASINP    GEOM    SYMINP    ZMAT    AOBASIS   BASIS     P2S    ABASIS      S 
                                         1400     1410     1200     1210     1080     1600     1650     1300     1700   
                                           T        V       H0       H01     AOSYM     SMH    MOLCAS    ERIS     OPER   

              2       3        2.54       700     1000     2100   
                                         GEOM     BASIS     RHF  

 PROGRAMS   *        TOTAL       RHF       INT
 CPU TIMES  *       412.93    345.92     66.88
 REAL TIME  *       461.47 SEC
 DISK USED  *        34.10 GB      
 GA USED    *         0.00 MB       (max)       0.00 MB       (current)
 **********************************************************************************************************************************


1PROGRAM * MP2 (Closed-shell)     Authors: C. Hampel, H.-J. Werner, 1991, M. Deegan, P.J. Knowles, 1992


 Convergence thresholds:  THRVAR = 1.00D-08  THRDEN = 1.00D-12

 Number of core orbitals:           4 (   4 )
 Number of closed-shell orbitals:  13 (  13 )
 Number of external orbitals:     305 ( 305 )

 Molecular orbitals read from record     2100.2  Type=RHF/CANONICAL (state 1.1)

 Number of N-1 electron functions:              13
 Number of N-2 electron functions:              91
 Number of singly external CSFs:              3965
 Number of doubly external CSFs:           7862595
 Total number of CSFs:                     7866561

 Length of J-op  integral file:               0.00 MB
 Length of K-op  integral file:               7.17 MB

 Integral transformation finished. Total CPU:  26.46 sec, npass=  1  Memory used:  17.90 MW

 Memory needed for MP2:                      0.51 MW

 SCS-MP2 correlation energy:           -0.859000570736   (PS=  1.200000  PT=  0.333333)
 SCS-MP2 total energy:               -225.975470659485


  Reference energy                   -225.116470088749
  MP2 singlet pair energy              -0.557055523280
  MP2 triplet pair energy              -0.306215265213
  MP2 correlation energy               -0.863270788494

 !MP2 total energy                   -225.979740877243


 **********************************************************************************************************************************
 DATASETS  * FILE   NREC   LENGTH (MB)   RECORD NAMES
              1      20     8926.16       500      610      700      900      950      970     1000      129      960     1100   
                                          VAR    BASINP    GEOM    SYMINP    ZMAT    AOBASIS   BASIS     P2S    ABASIS      S 
                                         1400     1410     1200     1210     1080     1600     1650     1300     1700     1380   
                                           T        V       H0       H01     AOSYM     SMH    MOLCAS    ERIS     OPER     JKOP   

              2       3        2.54       700     1000     2100   
                                         GEOM     BASIS     RHF  

 PROGRAMS   *        TOTAL       MP2       RHF       INT
 CPU TIMES  *       440.21     27.28    345.92     66.88
 REAL TIME  *       490.01 SEC
 DISK USED  *        34.10 GB      
 GA USED    *         0.00 MB       (max)       0.00 MB       (current)
 **********************************************************************************************************************************

        MP2             RHF-SCF 
   -225.97974088   -225.11647009
 **********************************************************************************************************************************
 Variable memory released
