
 Primary working directories    : /tmp/662446.161.gen4.q
 Secondary working directories  : /tmp/662446.161.gen4.q
 Wavefunction directory         : /home/vulcan/mel64643/wfu/
 Main file repository           : /tmp/662446.161.gen4.q/

 ARCHNAME  : Linux/x86_64
 FC        : /opt/intel/compilers_and_libraries_2016.1.150/linux/bin/intel64/ifort
 FCVERSION : 16.0.1
 BLASLIB   : -mkl
 id        : ccgc

 Nodes     nprocs
 n067         1
 ga_uses_ma=false, calling ma_init with nominal heap.
 GA-space will be limited to   8.0 MW (determined by -G option)

 Using customized tuning parameters: mindgm=10; mindgv=16; mindgc=4; mindgr=1; noblas=0; mincuda=1000; minvec=7
 default implementation of scratch files=df  

 ***,Optimization of min3
 memory,1000,m
 gthresh,energy=1.0d-12,orbital=1.0d-10,oneint=1.0d-16,twoint=1.0d-16,optgrad=1.0d-6,compress=1.0d-13
 geomtyp=xyz
 
 
 
  bohr
  geometry = {
  C    0.0000000000   -0.0000000000    1.6730230466
  H    0.0021336295   -1.7266337398    2.7931717442
  H   -0.0021336295    1.7266337398    2.7931717442
  C    1.2273398542   -0.0021816166   -0.9166444952
  C   -1.2273398542    0.0021816166   -0.9166444952
  H    2.9863417409   -0.0003298271   -1.9239207373
  H   -2.9863417409    0.0003298271   -1.9239207373
 }
 
 basis=cc-pvdz
 {rhf;maxit,200}
 {ccsd(t);maxit,200}

 Variables initialized (661), CPU time= 0.01 sec
 Commands  initialized (458), CPU time= 0.00 sec, 486 directives.
 Default parameters read. Elapsed time= 0.06 sec

 Checking input...
 Passed
1


                                         ***  PROGRAM SYSTEM MOLPRO  ***
                         Copyright, University College Cardiff Consultants Limited, 2008

                                    Version 2010.1 linked May 16 2016 07:17:05


 **********************************************************************************************************************************
 LABEL *   Optimization of min3                                                          
 Linux-4.4.3/n067(x86_64) 64 bit mpp version                                             DATE: 18-Mar-22          TIME: 17:55:50  
 **********************************************************************************************************************************

 SHA1:             9e8077add272b0f3cad6f7df79ec5211205f459d
 **********************************************************************************************************************************

 THRESHOLDS:

 ZERO    =  1.00D-12  ONEINT  =  1.00D-16  TWOINT  =  1.00D-16  PREFAC  =  1.00D-14  LOCALI  =  1.00D-09  EORDER  =  1.00D-04
 ENERGY  =  1.00D-12  ETEST   =  0.00D+00  EDENS   =  0.00D+00  THRDEDEF=  1.00D-06  GRADIENT=  1.00D-02  STEP    =  1.00D-03
 ORBITAL =  1.00D-10  CIVEC   =  1.00D-05  COEFF   =  1.00D-04  PRINTCI =  5.00D-02  PUNCHCI =  9.90D+01  OPTGRAD =  1.00D-06
 OPTENERG=  1.00D-06  OPTSTEP =  3.00D-04  THRGRAD =  1.00D-10  COMPRESS=  1.00D-13  VARMIN  =  1.00D-07  VARMAX  =  1.00D-03
 THRDOUB =  0.00D+00  THRDIV  =  1.00D-05  THRRED  =  1.00D-07  THRPSP  =  1.00D+00  THRDC   =  1.00D-10  THRCS   =  1.00D-10
 THRNRM  =  1.00D-08  THREQ   =  0.00D+00  THRDE   =  1.00D+00  THRREF  =  1.00D-05  SPARFAC =  1.00D+00  THRDLP  =  1.00D-07
 THRDIA  =  1.00D-10  THRDLS  =  1.00D-07  THRGPS  =  0.00D+00  THRKEX  =  0.00D+00  THRDIS  =  2.00D-01  THRVAR  =  1.00D-10
 THRLOC  =  1.00D-06  THRGAP  =  1.00D-06  THRLOCT = -1.00D+00  THRGAPT = -1.00D+00  THRORB  =  1.00D-06  THRMLTP =  0.00D+00
 THRCPQCI=  1.00D-10  KEXTA   =  0.00D+00  THRCOARS=  0.00D+00  SYMTOL  =  1.00D-06  GRADTOL =  1.00D-06  THROVL  =  1.00D-08
 THRORTH =  1.00D-08  GRID    =  1.00D-06  GRIDMAX =  1.00D-03  DTMAX   =  0.00D+00

 SETTING GEOMTYP        =    XYZ
 ZUNIT=BOHR
 

 Variable memory set to 1000000000 words,  buffer space   230000 words

 SETTING BASIS          =    CC-PVDZ


 Recomputing integrals since basis changed


 Using spherical harmonics

 Library entry C      S cc-pVDZ              selected for orbital group  1
 Library entry C      P cc-pVDZ              selected for orbital group  1
 Library entry C      D cc-pVDZ              selected for orbital group  1
 Library entry H      S cc-pVDZ              selected for orbital group  2
 Library entry H      P cc-pVDZ              selected for orbital group  2

1PROGRAM * SEWARD (Integral evaluation for generally contracted gaussian basis sets)     Author: Roland Lindh, 1990

 Geometry written to block  1 of record 700


 Point group  C2  



 ATOMIC COORDINATES

 NR  ATOM    CHARGE       X              Y              Z

   1  C       6.00    0.000000000    0.000000000    1.673023047
   2  H       1.00    0.002133629   -1.726633740    2.793171744
   3  H       1.00   -0.002133629    1.726633740    2.793171744
   4  C       6.00    1.227339854   -0.002181617   -0.916644495
   5  C       6.00   -1.227339854    0.002181617   -0.916644495
   6  H       1.00    2.986341741   -0.000329827   -1.923920737
   7  H       1.00   -2.986341741    0.000329827   -1.923920737

 Bond lengths in Bohr (Angstrom)

 1-2  2.058154933  1-3  2.058154933  1-4  2.865788871  1-5  2.865788871  4-5  2.454683586
     ( 1.089128683)     ( 1.089128683)     ( 1.516510156)     ( 1.516510156)     ( 1.298962609)

 4-6  2.026991982  5-7  2.026991982
     ( 1.072637960)     ( 1.072637960)

 Bond angles

  1-4-5   64.64195005   1-4-6  145.15509963   1-5-4   64.64195005   1-5-7  145.15509963

  2-1-3  114.05328872   2-1-4  119.38840746   2-1-5  119.53088898   3-1-4  119.53088898

  3-1-5  119.38840746   4-1-5   50.71609990   4-5-7  150.20240031   5-4-6  150.20240031

 NUCLEAR CHARGE:                   22
 NUMBER OF PRIMITIVE AOS:         109
 NUMBER OF SYMMETRY AOS:          106
 NUMBER OF CONTRACTIONS:           62   (  32A   +  30B   )
 NUMBER OF CORE ORBITALS:           3   (   2A   +   1B   )
 NUMBER OF VALENCE ORBITALS:       16   (   8A   +   8B   )


 NUCLEAR REPULSION ENERGY   63.63642394


 Eigenvalues of metric

         1 0.418E-02 0.174E-01 0.237E-01 0.392E-01 0.469E-01 0.520E-01 0.102E+00 0.117E+00
         2 0.169E-02 0.191E-01 0.254E-01 0.336E-01 0.369E-01 0.483E-01 0.643E-01 0.119E+00


 Contracted 2-electron integrals neglected if value below      1.0D-16
 AO integral compression algorithm  1   Integral accuracy      1.0D-16

     10.486 MB (compressed) written to integral file ( 96.6%)

     Node minimum: 10.486 MB, node maximum: 10.486 MB


 NUMBER OF SORTED TWO-ELECTRON INTEGRALS:     984561.     BUFFER LENGTH:  32768
 NUMBER OF SEGMENTS:   1  SEGMENT LENGTH:     984561      RECORD LENGTH: 524288

 Memory used in sort:       1.54 MW

 SORT1 READ     1346430. AND WROTE      960799. INTEGRALS IN      3 RECORDS. CPU TIME:     0.02 SEC, REAL TIME:     0.02 SEC
 SORT2 READ      960799. AND WROTE      984561. INTEGRALS IN     40 RECORDS. CPU TIME:     0.02 SEC, REAL TIME:     0.03 SEC

 FILE SIZES:   FILE 1:    10.4 MBYTE,  FILE 4:    12.6 MBYTE,   TOTAL:     23.0 MBYTE

 OPERATOR DM      FOR CENTER  0  COORDINATES:    0.000000    0.000000    0.000000


 **********************************************************************************************************************************
 DATASETS  * FILE   NREC   LENGTH (MB)   RECORD NAMES
              1      19       10.41       500      610      700      900      950      970     1000      129      960     1100   
                                          VAR    BASINP    GEOM    SYMINP    ZMAT    AOBASIS   BASIS     P2S    ABASIS      S 
                                         1400     1410     1200     1210     1080     1600     1650     1300     1700   
                                           T        V       H0       H01     AOSYM     SMH    MOLCAS    ERIS     OPER   

 PROGRAMS   *        TOTAL       INT
 CPU TIMES  *         0.32      0.27
 REAL TIME  *         0.54 SEC
 DISK USED  *        34.15 MB      
 GA USED    *         0.00 MB       (max)       0.00 MB       (current)
 **********************************************************************************************************************************

1PROGRAM * RHF-SCF (CLOSED SHELL)       Authors: W. Meyer, H.-J. Werner


 NUMBER OF ELECTRONS:      11+   11-
 CONVERGENCE THRESHOLDS:    1.00E-10 (Density)    1.00E-13 (Energy)
 MAX. NUMBER OF ITERATIONS:      200
 INTERPOLATION TYPE:            DIIS
 INTERPOLATION STEPS:              2 (START)      1 (STEP)
 LEVEL SHIFTS:                  0.00 (CLOSED)  0.00 (OPEN) 



 Orbital guess generated from atomic densities. Full valence occupancy:   10   9

 Molecular orbital dump at record        2100.2

 Initial alpha occupancy:   6   5
 Initial beta  occupancy:   6   5
 Wave function symmetry:    1

 ITERATION    DDIFF          GRAD             ENERGY        2-EL.EN.            DIPOLE MOMENTS         DIIS
    1      0.000D+00      0.000D+00      -115.81243399    203.508358    0.00000    0.00000   -0.29619    0
    2      0.000D+00      0.710D-02      -115.83051955    202.413354    0.00000    0.00000   -0.20418    1
    3      0.149D-01      0.222D-02      -115.83213505    203.026454    0.00000    0.00000   -0.22470    2
    4      0.490D-02      0.835D-03      -115.83238822    202.852485    0.00000    0.00000   -0.20127    3
    5      0.158D-02      0.126D-03      -115.83239707    202.855357    0.00000    0.00000   -0.20157    4
    6      0.394D-03      0.339D-04      -115.83239779    202.859432    0.00000    0.00000   -0.19962    5
    7      0.101D-03      0.123D-04      -115.83239786    202.858093    0.00000    0.00000   -0.19952    6
    8      0.341D-04      0.239D-05      -115.83239787    202.858165    0.00000    0.00000   -0.19942    7
    9      0.825D-05      0.412D-06      -115.83239787    202.858168    0.00000    0.00000   -0.19940    7
   10      0.140D-05      0.833D-07      -115.83239787    202.858170    0.00000    0.00000   -0.19940    6
   11      0.377D-06      0.143D-07      -115.83239787    202.858171    0.00000    0.00000   -0.19940    6
   12      0.609D-07      0.320D-08      -115.83239787    202.858170    0.00000    0.00000   -0.19940    6
   13      0.943D-08      0.136D-08      -115.83239787    202.858171    0.00000    0.00000   -0.19940    6
   14      0.309D-08      0.620D-09      -115.83239787    202.858171    0.00000    0.00000   -0.19940    6
   15      0.164D-08      0.186D-09      -115.83239787    202.858171    0.00000    0.00000   -0.19940    7
   16      0.627D-09      0.386D-10      -115.83239787    202.858171    0.00000    0.00000   -0.19940    7
   17      0.119D-09      0.113D-10      -115.83239787    202.858171    0.00000    0.00000   -0.19940    7
   18      0.355D-10      0.305D-11      -115.83239787    202.858171    0.00000    0.00000   -0.19940    0

 Final occupancy:   6   5

 !RHF STATE 1.1 Energy               -115.832397869243
 Nuclear energy                        63.63642394
 One-electron energy                 -280.89790711
 Two-electron energy                  101.42908531
 Virial quotient                       -1.00179772
 !RHF STATE 1.1 Dipole moment           0.00000000     0.00000000    -0.19940085
 Dipole moment /Debye                   0.00000000     0.00000000    -0.50679320

 Orbital energies:

         1.1          2.1          3.1          4.1          5.1          6.1          7.1          8.1
    -11.250843   -11.245061    -1.152765    -0.822953    -0.678175    -0.489169     0.167523     0.220413

         1.2          2.2          3.2          4.2          5.2          6.2          7.2
    -11.248777    -0.766957    -0.593096    -0.416287    -0.355787     0.215579     0.270500


 **********************************************************************************************************************************
 DATASETS  * FILE   NREC   LENGTH (MB)   RECORD NAMES
              1      19       10.41       500      610      700      900      950      970     1000      129      960     1100   
                                          VAR    BASINP    GEOM    SYMINP    ZMAT    AOBASIS   BASIS     P2S    ABASIS      S 
                                         1400     1410     1200     1210     1080     1600     1650     1300     1700   
                                           T        V       H0       H01     AOSYM     SMH    MOLCAS    ERIS     OPER   

              2       3        0.40       700     1000     2100   
                                         GEOM     BASIS     RHF  

 PROGRAMS   *        TOTAL       RHF       INT
 CPU TIMES  *         0.41      0.09      0.27
 REAL TIME  *         0.66 SEC
 DISK USED  *        34.15 MB      
 GA USED    *         0.00 MB       (max)       0.00 MB       (current)
 **********************************************************************************************************************************


1PROGRAM * CCSD (Closed-shell coupled cluster)     Authors: C. Hampel, H.-J. Werner, 1991, M. Deegan, P.J. Knowles, 1992


 Convergence thresholds:  THRVAR = 1.00D-08  THRDEN = 1.00D-12

 CCSD(T)     terms to be evaluated (factor= 1.000)


 Number of core orbitals:           3 (   2   1 )
 Number of closed-shell orbitals:   8 (   4   4 )
 Number of external orbitals:      51 (  26  25 )

 Molecular orbitals read from record     2100.2  Type=RHF/CANONICAL (state 1.1)

 Number of N-1 electron functions:               8
 Number of N-2 electron functions:              36
 Number of singly external CSFs:               204
 Number of doubly external CSFs:             41820
 Total number of CSFs:                       42025

 Length of J-op  integral file:               0.00 MB
 Length of K-op  integral file:               0.17 MB
 Length of 3-ext integral record:             0.00 MB

 Memory could be reduced to 1.10 Mwords without degradation in triples

 Integral transformation finished. Total CPU:   0.03 sec, npass=  1  Memory used:   0.56 MW

 Reference energy:                   -115.83239787

 MP2 singlet pair energy:              -0.25570850
 MP2 triplet pair energy:              -0.14555648
 MP2 correlation energy:               -0.40126498
 MP2 total energy:                   -116.23366285

 SCS-MP2 correlation energy:           -0.39741868   (PS=  1.200000  PT=  0.333333)
 SCS-MP2 total energy:               -116.22981655

 ITER.      SQ.NORM     CORR.ENERGY   TOTAL ENERGY   ENERGY CHANGE        DEN1      VAR(S)    VAR(P)  DIIS     TIME
   1      1.16381252    -0.42756368  -116.25996155    -0.02629869    -0.01453531  0.13D-02  0.29D-02  1  1     0.06
   2      1.17857622    -0.43075105  -116.26314892    -0.00318737    -0.01245854  0.29D-04  0.36D-03  2  2     0.09
   3      1.18304672    -0.43093421  -116.26333208    -0.00018317    -0.00209015  0.69D-05  0.36D-04  3  3     0.12
   4      1.18492432    -0.43101306  -116.26341093    -0.00007885    -0.00057043  0.36D-06  0.32D-05  4  4     0.16
   5      1.18533461    -0.43101903  -116.26341690    -0.00000598    -0.00008858  0.34D-07  0.28D-06  5  5     0.20
   6      1.18539987    -0.43101609  -116.26341395     0.00000295    -0.00000902  0.38D-08  0.17D-07  6  6     0.23
   7      1.18540800    -0.43101635  -116.26341422    -0.00000026     0.00000076  0.44D-09  0.12D-08  6  2     0.27
   8      1.18540935    -0.43101622  -116.26341409     0.00000012    -0.00000004  0.33D-10  0.94D-10  6  1     0.30
   9      1.18540964    -0.43101620  -116.26341407     0.00000003    -0.00000009  0.62D-11  0.78D-11  6  3     0.33
  10      1.18540953    -0.43101620  -116.26341407    -0.00000001     0.00000010  0.39D-12  0.63D-12  6  4     0.37
  11      1.18540943    -0.43101621  -116.26341408    -0.00000001     0.00000005  0.70D-13  0.73D-13  6  5     0.40
  12      1.18540938    -0.43101622  -116.26341409    -0.00000000     0.00000002  0.55D-14  0.14D-13  6  6     0.44
  13      1.18540935    -0.43101622  -116.26341409    -0.00000000     0.00000001  0.48D-15  0.25D-14  6  2     0.47
  14      1.18540934    -0.43101622  -116.26341409    -0.00000000     0.00000000  0.36D-16  0.29D-15  6  1     0.50
  15      1.18540934    -0.43101622  -116.26341409    -0.00000000     0.00000000  0.12D-16  0.31D-16  6  3     0.54
  16      1.18540934    -0.43101622  -116.26341409    -0.00000000     0.00000000  0.22D-17  0.37D-17  6  4     0.57
  17      1.18540933    -0.43101622  -116.26341409    -0.00000000     0.00000000  0.46D-18  0.43D-18  6  5     0.61
  18      1.18540933    -0.43101622  -116.26341409    -0.00000000     0.00000000  0.46D-19  0.44D-19  6  6     0.64
  19      1.18540933    -0.43101622  -116.26341409     0.00000000     0.00000000  0.81D-20  0.45D-20  6  2     0.68
  20      1.18540933    -0.43101622  -116.26341409     0.00000000    -0.00000000  0.10D-20  0.64D-21  6  1     0.71

 Norm of t1 vector:      0.05140696      S-energy:    -0.00000000      T1 diagnostic:  0.00908755
                                                                       D1 diagnostic:  0.02705603

 Doubles amplitudes (print threshold =  0.500E-01):

         I         J         SYM. A    SYM. B    A         B      T(IJ, AB)

         8         8         1         1         1         1     -0.10637694


 Total CPU time for triples:      0.26 sec


 RESULTS
 =======

  Reference energy                   -115.832397869243
  CCSD singlet pair energy             -0.301098353107
  CCSD triplet pair energy             -0.129917863311
  CCSD correlation energy              -0.431016216418

  Triples (T) contribution             -0.016213685008
  Total correlation energy             -0.447229901425

  CCSD total energy                  -116.263414085660
  CCSD[T] energy                     -116.279981093598
  CCSD-T energy                      -116.279453477464
 !CCSD(T) total energy               -116.279627770668

 Timing summary (sec):

 STEP                 CPU(USER)    SYS     CPU(TOT)    WALL
 Transformation          0.03      0.00      0.03      0.03
 CCSD iterations         0.68      0.05      0.73      0.77
 Triples                 0.26      0.01      0.27      0.27

 Program statistics:

 Available memory in ccsd:               999999644
 Min. memory needed in ccsd:                142235
 Max. memory used in ccsd:                  174307
 Max. memory used in cckext:                219012 (20 integral passes)



 **********************************************************************************************************************************
 DATASETS  * FILE   NREC   LENGTH (MB)   RECORD NAMES
              1      20       13.47       500      610      700      900      950      970     1000      129      960     1100   
                                          VAR    BASINP    GEOM    SYMINP    ZMAT    AOBASIS   BASIS     P2S    ABASIS      S 
                                         1400     1410     1200     1210     1080     1600     1650     1300     1700     1380   
                                           T        V       H0       H01     AOSYM     SMH    MOLCAS    ERIS     OPER     JKOP   

              2       3        0.40       700     1000     2100   
                                         GEOM     BASIS     RHF  

 PROGRAMS   *        TOTAL   CCSD(T)       RHF       INT
 CPU TIMES  *         1.39      0.98      0.09      0.27
 REAL TIME  *         1.75 SEC
 DISK USED  *        34.15 MB      
 GA USED    *         0.00 MB       (max)       0.00 MB       (current)
 **********************************************************************************************************************************

        CCSD(T)         RHF-SCF 
   -116.27962777   -115.83239787
 **********************************************************************************************************************************
 Variable memory released
