
 Primary working directories    : /tmp/917005.373.gen6.q
 Secondary working directories  : /tmp/917005.373.gen6.q
 Wavefunction directory         : /home/vulcan/lo21740/wfu/
 Main file repository           : /tmp/917005.373.gen6.q/

 ARCHNAME  : Linux/x86_64
 FC        : /opt/intel/compilers_and_libraries_2016.1.150/linux/bin/intel64/ifort
 FCVERSION : 16.0.1
 BLASLIB   : -mkl
 id        : ccgc

 Nodes     nprocs
 n081         1
 ga_uses_ma=false, calling ma_init with nominal heap.
 GA-space will be limited to   8.0 MW (determined by -G option)

 Using customized tuning parameters: mindgm=10; mindgv=16; mindgc=4; mindgr=1; noblas=0; mincuda=1000; minvec=7
 default implementation of scratch files=df  

 ***,Optimization of h2o_2
 memory,1000,m
 gthresh,energy=1.0d-12,orbital=1.0d-10,oneint=1.0d-16,twoint=1.0d-16,optgrad=1.0d-6,compress=1.0d-13
 geomtyp=xyz
 
 bohr
 geometry = {
  C    0.0016883782   -3.4263850669    0.0021489753
  H   -0.9619579622   -2.7312728813   -1.6804860025
  H   -0.9801102231   -2.7316601109    1.6744182191
  H    1.9403941399   -2.7303445778    0.0023814539
  H    0.0024805436   -5.4861967593    0.0019155140
  C   -0.0004990454    3.4230376364   -0.0000742426
  H   -0.0005381486    5.4828489229    0.0014594603
  H    0.9638886659    2.7345977450   -1.6850260357
  H    0.9760917932    2.7320948102    1.6768050112
  H   -1.9414381415    2.7332802816    0.0064576471
 }
 
 basis=VDZ
 {rhf;maxit,200}
 {ccsd(t);maxit,200}

 Variables initialized (661), CPU time= 0.00 sec
 Commands  initialized (458), CPU time= 0.00 sec, 486 directives.
 Default parameters read. Elapsed time= 0.04 sec

 Checking input...
 Passed
1


                                         ***  PROGRAM SYSTEM MOLPRO  ***
                         Copyright, University College Cardiff Consultants Limited, 2008

                                    Version 2010.1 linked May 16 2016 07:17:05


 **********************************************************************************************************************************
 LABEL *   Optimization of h2o_2                                                         
 Linux-4.4.3/n081(x86_64) 64 bit mpp version                                             DATE: 19-Jul-23          TIME: 16:17:26  
 **********************************************************************************************************************************

 SHA1:             9e8077add272b0f3cad6f7df79ec5211205f459d
 **********************************************************************************************************************************

 THRESHOLDS:

 ZERO    =  1.00D-12  ONEINT  =  1.00D-16  TWOINT  =  1.00D-16  PREFAC  =  1.00D-14  LOCALI  =  1.00D-09  EORDER  =  1.00D-04
 ENERGY  =  1.00D-12  ETEST   =  0.00D+00  EDENS   =  0.00D+00  THRDEDEF=  1.00D-06  GRADIENT=  1.00D-02  STEP    =  1.00D-03
 ORBITAL =  1.00D-10  CIVEC   =  1.00D-05  COEFF   =  1.00D-04  PRINTCI =  5.00D-02  PUNCHCI =  9.90D+01  OPTGRAD =  1.00D-06
 OPTENERG=  1.00D-06  OPTSTEP =  3.00D-04  THRGRAD =  1.00D-10  COMPRESS=  1.00D-13  VARMIN  =  1.00D-07  VARMAX  =  1.00D-03
 THRDOUB =  0.00D+00  THRDIV  =  1.00D-05  THRRED  =  1.00D-07  THRPSP  =  1.00D+00  THRDC   =  1.00D-10  THRCS   =  1.00D-10
 THRNRM  =  1.00D-08  THREQ   =  0.00D+00  THRDE   =  1.00D+00  THRREF  =  1.00D-05  SPARFAC =  1.00D+00  THRDLP  =  1.00D-07
 THRDIA  =  1.00D-10  THRDLS  =  1.00D-07  THRGPS  =  0.00D+00  THRKEX  =  0.00D+00  THRDIS  =  2.00D-01  THRVAR  =  1.00D-10
 THRLOC  =  1.00D-06  THRGAP  =  1.00D-06  THRLOCT = -1.00D+00  THRGAPT = -1.00D+00  THRORB  =  1.00D-06  THRMLTP =  0.00D+00
 THRCPQCI=  1.00D-10  KEXTA   =  0.00D+00  THRCOARS=  0.00D+00  SYMTOL  =  1.00D-06  GRADTOL =  1.00D-06  THROVL  =  1.00D-08
 THRORTH =  1.00D-08  GRID    =  1.00D-06  GRIDMAX =  1.00D-03  DTMAX   =  0.00D+00

 SETTING GEOMTYP        =    XYZ
 ZUNIT=BOHR
 

 Variable memory set to 1000000000 words,  buffer space   230000 words

 SETTING BASIS          =    VDZ


 Recomputing integrals since basis changed


 Using spherical harmonics

 Library entry C      S cc-pVDZ              selected for orbital group  1
 Library entry C      P cc-pVDZ              selected for orbital group  1
 Library entry C      D cc-pVDZ              selected for orbital group  1
 Library entry H      S cc-pVDZ              selected for orbital group  2
 Library entry H      P cc-pVDZ              selected for orbital group  2

1PROGRAM * SEWARD (Integral evaluation for generally contracted gaussian basis sets)     Author: Roland Lindh, 1990

 Geometry written to block  1 of record 700


 Point group  C1  



 ATOMIC COORDINATES

 NR  ATOM    CHARGE       X              Y              Z

   1  C       6.00    0.001688378   -3.426385067    0.002148975
   2  H       1.00   -0.961957962   -2.731272881   -1.680486002
   3  H       1.00   -0.980110223   -2.731660111    1.674418219
   4  H       1.00    1.940394140   -2.730344578    0.002381454
   5  H       1.00    0.002480544   -5.486196759    0.001915514
   6  C       6.00   -0.000499045    3.423037636   -0.000074243
   7  H       1.00   -0.000538149    5.482848923    0.001459460
   8  H       1.00    0.963888666    2.734597745   -1.685026036
   9  H       1.00    0.976091793    2.732094810    1.676805011
  10  H       1.00   -1.941438141    2.733280282    0.006457647

 Bond lengths in Bohr (Angstrom)

 1-2  2.059867881  1-3  2.059867880  1-4  2.059867094  1-5  2.059811858  6-7  2.059811858
     ( 1.090035136)     ( 1.090035135)     ( 1.090034720)     ( 1.090005490)     ( 1.090005490)

  6- 8  2.059867881   6- 9  2.059867881   6-10  2.059867095
       ( 1.090035136)       ( 1.090035136)       ( 1.090034720)

 Bond angles

  2-1-3  109.04851422   2-1-4  109.04839823   2-1-5  109.72719278   3-1-4  109.54459429

  3-1-5  109.72719279   4-1-5  109.72728487   7-6-8  109.56240830   7-6-9  109.56240831

  7- 6-10  109.56250040   8- 6- 9  109.37992580   8- 6-10  109.37980975   9- 6-10  109.37980975

 NUCLEAR CHARGE:                   20
 NUMBER OF PRIMITIVE AOS:         110
 NUMBER OF SYMMETRY AOS:          108
 NUMBER OF CONTRACTIONS:           68   (  68A   )
 NUMBER OF CORE ORBITALS:           2   (   2A   )
 NUMBER OF VALENCE ORBITALS:       16   (  16A   )


 NUCLEAR REPULSION ENERGY   41.33397760


 Eigenvalues of metric

         1 0.113E-01 0.127E-01 0.348E-01 0.348E-01 0.356E-01 0.375E-01 0.383E-01 0.383E-01


 Contracted 2-electron integrals neglected if value below      1.0D-16
 AO integral compression algorithm  1   Integral accuracy      1.0D-16

     21.758 MB (compressed) written to integral file ( 86.6%)

     Node minimum: 21.758 MB, node maximum: 21.758 MB


 NUMBER OF SORTED TWO-ELECTRON INTEGRALS:    2753031.     BUFFER LENGTH:  32768
 NUMBER OF SEGMENTS:   1  SEGMENT LENGTH:    2753031      RECORD LENGTH: 524288

 Memory used in sort:       3.31 MW

 SORT1 READ     3104305. AND WROTE     2685863. INTEGRALS IN      8 RECORDS. CPU TIME:     0.03 SEC, REAL TIME:     0.04 SEC
 SORT2 READ     2685863. AND WROTE     2753031. INTEGRALS IN     83 RECORDS. CPU TIME:     0.04 SEC, REAL TIME:     0.05 SEC

 FILE SIZES:   FILE 1:    21.5 MBYTE,  FILE 4:    33.6 MBYTE,   TOTAL:     55.1 MBYTE

 OPERATOR DM      FOR CENTER  0  COORDINATES:    0.000000    0.000000    0.000000


 **********************************************************************************************************************************
 DATASETS  * FILE   NREC   LENGTH (MB)   RECORD NAMES
              1      19       21.55       500      610      700      900      950      970     1000      129      960     1100   
                                          VAR    BASINP    GEOM    SYMINP    ZMAT    AOBASIS   BASIS     P2S    ABASIS      S 
                                         1400     1410     1200     1210     1080     1600     1650     1300     1700   
                                           T        V       H0       H01     AOSYM     SMH    MOLCAS    ERIS     OPER   

 PROGRAMS   *        TOTAL       INT
 CPU TIMES  *         0.40      0.36
 REAL TIME  *         0.62 SEC
 DISK USED  *        77.61 MB      
 GA USED    *         0.00 MB       (max)       0.00 MB       (current)
 **********************************************************************************************************************************

1PROGRAM * RHF-SCF (CLOSED SHELL)       Authors: W. Meyer, H.-J. Werner


 NUMBER OF ELECTRONS:      10+   10-    SPACE SYMMETRY=1    SPIN SYMMETRY: Singlet 
 CONVERGENCE THRESHOLDS:    1.00E-10 (Density)    1.00E-13 (Energy)
 MAX. NUMBER OF ITERATIONS:      200
 INTERPOLATION TYPE:            DIIS
 INTERPOLATION STEPS:              2 (START)      1 (STEP)
 LEVEL SHIFTS:                  0.00 (CLOSED)  0.00 (OPEN) 



 Orbital guess generated from atomic densities. Full valence occupancy:   18

 Molecular orbital dump at record        2100.2

 ITERATION    DDIFF          GRAD             ENERGY        2-EL.EN.            DIPOLE MOMENTS         DIIS
    1      0.000D+00      0.000D+00       -80.35963354    134.811345   -0.00099    0.00285   -0.00172    0
    2      0.000D+00      0.637D-02       -80.39229782    132.533070   -0.00029    0.00125   -0.00051    1
    3      0.132D-01      0.234D-02       -80.39615873    133.334178   -0.00039    0.00139   -0.00068    2
    4      0.460D-02      0.630D-03       -80.39668734    133.197441   -0.00032    0.00119   -0.00056    3
    5      0.165D-02      0.664D-04       -80.39669186    133.203470   -0.00032    0.00117   -0.00055    4
    6      0.233D-03      0.392D-05       -80.39669188    133.203331   -0.00032    0.00116   -0.00055    5
    7      0.206D-04      0.231D-06       -80.39669188    133.203329   -0.00032    0.00116   -0.00055    5
    8      0.738D-06      0.406D-07       -80.39669188    133.203331   -0.00032    0.00116   -0.00055    4
    9      0.110D-06      0.111D-07       -80.39669188    133.203332   -0.00032    0.00116   -0.00055    4
   10      0.378D-07      0.214D-08       -80.39669188    133.203332   -0.00032    0.00116   -0.00055    5
   11      0.715D-08      0.267D-09       -80.39669188    133.203332   -0.00032    0.00116   -0.00055    5
   12      0.749D-09      0.619D-10       -80.39669188    133.203332   -0.00032    0.00116   -0.00055    6
   13      0.200D-09      0.175D-10       -80.39669188    133.203332   -0.00032    0.00116   -0.00055    6
   14      0.404D-10      0.414D-11       -80.39669188    133.203332   -0.00032    0.00116   -0.00055    6
   15      0.152D-10      0.323D-12       -80.39669188    133.203332   -0.00032    0.00116   -0.00055    0

 Final occupancy:  10

 !RHF STATE 1.1 Energy                -80.396691883236
 Nuclear energy                        41.33397760
 One-electron energy                 -188.33233537
 Two-electron energy                   66.60166589
 Virial quotient                       -1.00229966
 !RHF STATE 1.1 Dipole moment          -0.00031546     0.00116315    -0.00055105
 Dipole moment /Debye                  -0.00080177     0.00295623    -0.00140055

 Orbital energies:

         1.1          2.1          3.1          4.1          5.1          6.1          7.1          8.1          9.1         10.1
    -11.215353   -11.215302    -0.944279    -0.938426    -0.550012    -0.545533    -0.544926    -0.538226    -0.537549    -0.534895

        11.1         12.1
      0.172375     0.229321


 **********************************************************************************************************************************
 DATASETS  * FILE   NREC   LENGTH (MB)   RECORD NAMES
              1      19       21.55       500      610      700      900      950      970     1000      129      960     1100   
                                          VAR    BASINP    GEOM    SYMINP    ZMAT    AOBASIS   BASIS     P2S    ABASIS      S 
                                         1400     1410     1200     1210     1080     1600     1650     1300     1700   
                                           T        V       H0       H01     AOSYM     SMH    MOLCAS    ERIS     OPER   

              2       3        0.51       700     1000     2100   
                                         GEOM     BASIS     RHF  

 PROGRAMS   *        TOTAL       RHF       INT
 CPU TIMES  *         0.67      0.27      0.36
 REAL TIME  *         0.93 SEC
 DISK USED  *        77.61 MB      
 GA USED    *         0.00 MB       (max)       0.00 MB       (current)
 **********************************************************************************************************************************


1PROGRAM * CCSD (Closed-shell coupled cluster)     Authors: C. Hampel, H.-J. Werner, 1991, M. Deegan, P.J. Knowles, 1992


 Convergence thresholds:  THRVAR = 1.00D-08  THRDEN = 1.00D-12

 CCSD(T)     terms to be evaluated (factor= 1.000)


 Number of core orbitals:           2 (   2 )
 Number of closed-shell orbitals:   8 (   8 )
 Number of external orbitals:      58 (  58 )

 Molecular orbitals read from record     2100.2  Type=RHF/CANONICAL (state 1.1)

 Number of N-1 electron functions:               8
 Number of N-2 electron functions:              36
 Number of singly external CSFs:               464
 Number of doubly external CSFs:            107880
 Total number of CSFs:                      108345

 Length of J-op  integral file:               0.00 MB
 Length of K-op  integral file:               0.35 MB
 Length of 3-ext integral record:             0.00 MB

 Memory could be reduced to 2.66 Mwords without degradation in triples

 Integral transformation finished. Total CPU:   0.06 sec, npass=  1  Memory used:   1.86 MW

 Reference energy:                    -80.39669188

 MP2 singlet pair energy:              -0.23207663
 MP2 triplet pair energy:              -0.09154833
 MP2 correlation energy:               -0.32362496
 MP2 total energy:                    -80.72031685

 SCS-MP2 correlation energy:           -0.33545536   (PS=  1.200000  PT=  0.333333)
 SCS-MP2 total energy:                -80.73214725

 ITER.      SQ.NORM     CORR.ENERGY   TOTAL ENERGY   ENERGY CHANGE        DEN1      VAR(S)    VAR(P)  DIIS     TIME
   1      1.13421069    -0.36752657   -80.76421845    -0.04390160    -0.03297782  0.50D-03  0.24D-02  1  1     0.19
   2      1.14681944    -0.37032395   -80.76701583    -0.00279738    -0.01276529  0.15D-04  0.96D-04  2  2     0.31
   3      1.14861124    -0.37049496   -80.76718684    -0.00017101    -0.00095509  0.17D-05  0.56D-05  3  3     0.44
   4      1.14897887    -0.37051527   -80.76720715    -0.00002031    -0.00016574  0.25D-07  0.35D-06  4  4     0.56
   5      1.14902481    -0.37051279   -80.76720467     0.00000248    -0.00002393  0.18D-08  0.18D-07  5  5     0.69
   6      1.14902613    -0.37051272   -80.76720461     0.00000006    -0.00000011  0.19D-09  0.12D-08  6  6     0.81
   7      1.14902623    -0.37051299   -80.76720487    -0.00000026     0.00000013  0.13D-10  0.71D-10  6  1     0.94
   8      1.14902640    -0.37051298   -80.76720486     0.00000001    -0.00000013  0.15D-11  0.41D-11  6  2     1.06
   9      1.14902643    -0.37051297   -80.76720485     0.00000001    -0.00000003  0.15D-12  0.26D-12  6  3     1.19
  10      1.14902642    -0.37051297   -80.76720485     0.00000000     0.00000001  0.11D-13  0.23D-13  6  4     1.31
  11      1.14902641    -0.37051297   -80.76720485    -0.00000000     0.00000001  0.80D-15  0.19D-14  6  5     1.43
  12      1.14902641    -0.37051297   -80.76720485    -0.00000000     0.00000000  0.43D-16  0.23D-15  6  6     1.56
  13      1.14902641    -0.37051297   -80.76720485    -0.00000000     0.00000000  0.34D-17  0.28D-16  6  1     1.68
  14      1.14902641    -0.37051297   -80.76720485     0.00000000     0.00000000  0.59D-18  0.37D-17  6  2     1.81
  15      1.14902641    -0.37051297   -80.76720485     0.00000000     0.00000000  0.71D-19  0.37D-18  6  3     1.93
  16      1.14902641    -0.37051297   -80.76720485    -0.00000000     0.00000000  0.15D-20  0.20D-19  6  5     2.06
  17      1.14902641    -0.37051297   -80.76720485    -0.00000000     0.00000000  0.18D-21  0.56D-21  6  4     2.18
  18      1.14902641    -0.37051297   -80.76720485     0.00000000    -0.00000000  0.45D-22  0.51D-22  6  6     2.30

 Norm of t1 vector:      0.03062582      S-energy:     0.00000000      T1 diagnostic:  0.00541393
                                                                       D1 diagnostic:  0.00877935


 Total CPU time for triples:      0.85 sec


 RESULTS
 =======

  Reference energy                    -80.396691883236
  CCSD singlet pair energy             -0.281840028833
  CCSD triplet pair energy             -0.088672938196
  CCSD correlation energy              -0.370512967029

  Triples (T) contribution             -0.007535481273
  Total correlation energy             -0.378048448301

  CCSD total energy                   -80.767204850265
  CCSD[T] energy                      -80.774916509762
  CCSD-T energy                       -80.774645898850
 !CCSD(T) total energy                -80.774740331537

 Timing summary (sec):

 STEP                 CPU(USER)    SYS     CPU(TOT)    WALL
 Transformation          0.06      0.01      0.07      0.08
 CCSD iterations         2.24      0.13      2.37      2.45
 Triples                 0.85      0.01      0.86      0.87

 Program statistics:

 Available memory in ccsd:               999999644
 Min. memory needed in ccsd:                356281
 Max. memory used in ccsd:                  442401
 Max. memory used in cckext:                403930 (18 integral passes)



 **********************************************************************************************************************************
 DATASETS  * FILE   NREC   LENGTH (MB)   RECORD NAMES
              1      20       30.01       500      610      700      900      950      970     1000      129      960     1100   
                                          VAR    BASINP    GEOM    SYMINP    ZMAT    AOBASIS   BASIS     P2S    ABASIS      S 
                                         1400     1410     1200     1210     1080     1600     1650     1300     1700     1380   
                                           T        V       H0       H01     AOSYM     SMH    MOLCAS    ERIS     OPER     JKOP   

              2       3        0.51       700     1000     2100   
                                         GEOM     BASIS     RHF  

 PROGRAMS   *        TOTAL   CCSD(T)       RHF       INT
 CPU TIMES  *         3.83      3.16      0.27      0.36
 REAL TIME  *         4.35 SEC
 DISK USED  *        77.61 MB      
 GA USED    *         0.00 MB       (max)       0.00 MB       (current)
 **********************************************************************************************************************************

        CCSD(T)         RHF-SCF 
    -80.77474033    -80.39669188
 **********************************************************************************************************************************
 Variable memory released
