
 Primary working directories    : /tmp/878919.788.gen6.q
 Secondary working directories  : /tmp/878919.788.gen6.q
 Wavefunction directory         : /home/vulcan/lo21740/wfu/
 Main file repository           : /tmp/878919.788.gen6.q/

 ARCHNAME  : Linux/x86_64
 FC        : /opt/intel/compilers_and_libraries_2016.1.150/linux/bin/intel64/ifort
 FCVERSION : 16.0.1
 BLASLIB   : -mkl
 id        : ccgc

 Nodes     nprocs
 n084         1
 ga_uses_ma=false, calling ma_init with nominal heap.
 GA-space will be limited to   8.0 MW (determined by -G option)

 Using customized tuning parameters: mindgm=10; mindgv=16; mindgc=4; mindgr=1; noblas=0; mincuda=1000; minvec=7
 default implementation of scratch files=df  

 ***,Optimization of formamide
 memory,1000,m
 gthresh,energy=1.0d-12,orbital=1.0d-10,oneint=1.0d-16,twoint=1.0d-16,optgrad=1.0d-6,compress=1.0d-13
 geomtyp=xyz
 
 bohr
 geometry = {
  C   -3.8250194748    0.0864766045   -0.0000000000
  O   -2.7326197190    2.1403459857   -0.0000000000
  N   -2.6827189926   -2.1764895978   -0.0000000000
  H   -3.7466947656   -3.7535464337    0.0000000000
  H   -0.7497631637   -2.3018607907    0.0000000000
  H   -5.8974138177   -0.0266102640   -0.0000000000
  C    3.8250194748   -0.0864766045    0.0000000000
  O    2.7326197190   -2.1403459857    0.0000000000
  N    2.6827189926    2.1764895978   -0.0000000000
  H    3.7466947656    3.7535464337   -0.0000000000
  H    0.7497631637    2.3018607907    0.0000000000
  H    5.8974138177    0.0266102640    0.0000000000
 }
 
 basis=VDZ
 {rhf;maxit,200}
 {ccsd(t);maxit,200}

 Variables initialized (661), CPU time= 0.01 sec
 Commands  initialized (458), CPU time= 0.00 sec, 486 directives.
 Default parameters read. Elapsed time= 0.04 sec

 Checking input...
 Passed
1


                                         ***  PROGRAM SYSTEM MOLPRO  ***
                         Copyright, University College Cardiff Consultants Limited, 2008

                                    Version 2010.1 linked May 16 2016 07:17:05


 **********************************************************************************************************************************
 LABEL *   Optimization of formamide                                                     
 Linux-4.4.3/n084(x86_64) 64 bit mpp version                                             DATE: 22-May-23          TIME: 21:38:22  
 **********************************************************************************************************************************

 SHA1:             9e8077add272b0f3cad6f7df79ec5211205f459d
 **********************************************************************************************************************************

 THRESHOLDS:

 ZERO    =  1.00D-12  ONEINT  =  1.00D-16  TWOINT  =  1.00D-16  PREFAC  =  1.00D-14  LOCALI  =  1.00D-09  EORDER  =  1.00D-04
 ENERGY  =  1.00D-12  ETEST   =  0.00D+00  EDENS   =  0.00D+00  THRDEDEF=  1.00D-06  GRADIENT=  1.00D-02  STEP    =  1.00D-03
 ORBITAL =  1.00D-10  CIVEC   =  1.00D-05  COEFF   =  1.00D-04  PRINTCI =  5.00D-02  PUNCHCI =  9.90D+01  OPTGRAD =  1.00D-06
 OPTENERG=  1.00D-06  OPTSTEP =  3.00D-04  THRGRAD =  1.00D-10  COMPRESS=  1.00D-13  VARMIN  =  1.00D-07  VARMAX  =  1.00D-03
 THRDOUB =  0.00D+00  THRDIV  =  1.00D-05  THRRED  =  1.00D-07  THRPSP  =  1.00D+00  THRDC   =  1.00D-10  THRCS   =  1.00D-10
 THRNRM  =  1.00D-08  THREQ   =  0.00D+00  THRDE   =  1.00D+00  THRREF  =  1.00D-05  SPARFAC =  1.00D+00  THRDLP  =  1.00D-07
 THRDIA  =  1.00D-10  THRDLS  =  1.00D-07  THRGPS  =  0.00D+00  THRKEX  =  0.00D+00  THRDIS  =  2.00D-01  THRVAR  =  1.00D-10
 THRLOC  =  1.00D-06  THRGAP  =  1.00D-06  THRLOCT = -1.00D+00  THRGAPT = -1.00D+00  THRORB  =  1.00D-06  THRMLTP =  0.00D+00
 THRCPQCI=  1.00D-10  KEXTA   =  0.00D+00  THRCOARS=  0.00D+00  SYMTOL  =  1.00D-06  GRADTOL =  1.00D-06  THROVL  =  1.00D-08
 THRORTH =  1.00D-08  GRID    =  1.00D-06  GRIDMAX =  1.00D-03  DTMAX   =  0.00D+00

 SETTING GEOMTYP        =    XYZ
 ZUNIT=BOHR
 

 Variable memory set to 1000000000 words,  buffer space   230000 words

 SETTING BASIS          =    VDZ


 Recomputing integrals since basis changed


 Using spherical harmonics

 Library entry C      S cc-pVDZ              selected for orbital group  1
 Library entry C      P cc-pVDZ              selected for orbital group  1
 Library entry C      D cc-pVDZ              selected for orbital group  1
 Library entry O      S cc-pVDZ              selected for orbital group  2
 Library entry O      P cc-pVDZ              selected for orbital group  2
 Library entry O      D cc-pVDZ              selected for orbital group  2
 Library entry N      S cc-pVDZ              selected for orbital group  3
 Library entry N      P cc-pVDZ              selected for orbital group  3
 Library entry N      D cc-pVDZ              selected for orbital group  3
 Library entry H      S cc-pVDZ              selected for orbital group  4
 Library entry H      P cc-pVDZ              selected for orbital group  4

1PROGRAM * SEWARD (Integral evaluation for generally contracted gaussian basis sets)     Author: Roland Lindh, 1990

 Geometry written to block  1 of record 700


 Point group  C2h 



 ATOMIC COORDINATES

 NR  ATOM    CHARGE       X              Y              Z

   1  C       6.00   -3.825019475    0.086476604    0.000000000
   2  C       6.00    3.825019475   -0.086476604    0.000000000
   3  O       8.00   -2.732619719    2.140345986    0.000000000
   4  O       8.00    2.732619719   -2.140345986    0.000000000
   5  N       7.00   -2.682718993   -2.176489598    0.000000000
   6  N       7.00    2.682718993    2.176489598    0.000000000
   7  H       1.00   -3.746694766   -3.753546434    0.000000000
   8  H       1.00    3.746694766    3.753546434    0.000000000
   9  H       1.00   -0.749763164   -2.301860791    0.000000000
  10  H       1.00    0.749763164    2.301860791    0.000000000
  11  H       1.00   -5.897413818   -0.026610264    0.000000000
  12  H       1.00    5.897413818    0.026610264    0.000000000

 Bond lengths in Bohr (Angstrom)

  1- 3  2.326309666   1- 5  2.534929274   1-11  2.075477524   2- 4  2.326309666   2- 6  2.534929274
       ( 1.231030056)       ( 1.341426798)       ( 1.098295403)       ( 1.231030056)       ( 1.341426798)

  2-12  2.075477524   5- 7  1.902407083   5- 9  1.937017339   6- 8  1.902407083   6-10  1.937017339
       ( 1.098295403)       ( 1.006710471)       ( 1.025025429)       ( 1.006710471)       ( 1.025025429)

 Bond angles

  1- 5- 7  119.21033065   1- 5- 9  120.49473591   2- 6- 8  119.21033065   2- 6-10  120.49473591

  3- 1- 5  125.20890974   3- 1-11  121.13078198   4- 2- 6  125.20890974   4- 2-12  121.13078198

  5- 1-11  113.66030828   6- 2-12  113.66030828   7- 5- 9  120.29493344   8- 6-10  120.29493344

 NUCLEAR CHARGE:                   48
 NUMBER OF PRIMITIVE AOS:         204
 NUMBER OF SYMMETRY AOS:          198
 NUMBER OF CONTRACTIONS:          114   (  42Ag  +  15Au  +  42Bu  +  15Bg  )
 NUMBER OF CORE ORBITALS:           6   (   3Ag  +   0Au  +   3Bu  +   0Bg  )
 NUMBER OF VALENCE ORBITALS:       30   (  12Ag  +   3Au  +  12Bu  +   3Bg  )


 NUCLEAR REPULSION ENERGY  230.54552205


 Eigenvalues of metric

         1 0.553E-02 0.107E-01 0.153E-01 0.239E-01 0.305E-01 0.406E-01 0.418E-01 0.488E-01
         2 0.106E+00 0.169E+00 0.196E+00 0.399E+00 0.435E+00 0.496E+00 0.533E+00 0.601E+00
         3 0.569E-02 0.113E-01 0.154E-01 0.242E-01 0.280E-01 0.399E-01 0.412E-01 0.433E-01
         4 0.105E+00 0.173E+00 0.192E+00 0.407E+00 0.436E+00 0.501E+00 0.525E+00 0.590E+00


 Contracted 2-electron integrals neglected if value below      1.0D-16
 AO integral compression algorithm  1   Integral accuracy      1.0D-16

     56.361 MB (compressed) written to integral file (100.0%)

     Node minimum: 56.361 MB, node maximum: 56.361 MB


 NUMBER OF SORTED TWO-ELECTRON INTEGRALS:    5811279.     BUFFER LENGTH:  32768
 NUMBER OF SEGMENTS:   1  SEGMENT LENGTH:    5811279      RECORD LENGTH: 524288

 Memory used in sort:       6.37 MW

 SORT1 READ     6960680. AND WROTE     5811279. INTEGRALS IN     17 RECORDS. CPU TIME:     0.11 SEC, REAL TIME:     0.14 SEC
 SORT2 READ     5811279. AND WROTE     5811279. INTEGRALS IN    215 RECORDS. CPU TIME:     0.09 SEC, REAL TIME:     0.12 SEC

 FILE SIZES:   FILE 1:    50.0 MBYTE,  FILE 4:    71.3 MBYTE,   TOTAL:    121.3 MBYTE

 OPERATOR DM      FOR CENTER  0  COORDINATES:    0.000000    0.000000    0.000000


 **********************************************************************************************************************************
 DATASETS  * FILE   NREC   LENGTH (MB)   RECORD NAMES
              1      19       50.04       500      610      700      900      950      970     1000      129      960     1100   
                                          VAR    BASINP    GEOM    SYMINP    ZMAT    AOBASIS   BASIS     P2S    ABASIS      S 
                                         1400     1410     1200     1210     1080     1600     1650     1300     1700   
                                           T        V       H0       H01     AOSYM     SMH    MOLCAS    ERIS     OPER   

 PROGRAMS   *        TOTAL       INT
 CPU TIMES  *         1.34      1.30
 REAL TIME  *         1.62 SEC
 DISK USED  *       178.56 MB      
 GA USED    *         0.00 MB       (max)       0.00 MB       (current)
 **********************************************************************************************************************************

1PROGRAM * RHF-SCF (CLOSED SHELL)       Authors: W. Meyer, H.-J. Werner


 NUMBER OF ELECTRONS:      24+   24-
 CONVERGENCE THRESHOLDS:    1.00E-10 (Density)    1.00E-13 (Energy)
 MAX. NUMBER OF ITERATIONS:      200
 INTERPOLATION TYPE:            DIIS
 INTERPOLATION STEPS:              2 (START)      1 (STEP)
 LEVEL SHIFTS:                  0.00 (CLOSED)  0.00 (OPEN) 



 Orbital guess generated from atomic densities. Full valence occupancy:   15   3  15   3

 Molecular orbital dump at record        2100.2

 Initial alpha occupancy:  10   2  10   2
 Initial beta  occupancy:  10   2  10   2
 Wave function symmetry:    1

 ITERATION    DDIFF          GRAD             ENERGY        2-EL.EN.            DIPOLE MOMENTS         DIIS
    1      0.000D+00      0.000D+00      -337.77940845    705.499951    0.00000    0.00000    0.00000    0
    2      0.000D+00      0.170D-01      -337.85796415    700.294176    0.00000    0.00000    0.00000    1
    3      0.339D-01      0.121D-01      -337.91351229    702.768861    0.00000    0.00000    0.00000    2
    4      0.130D-01      0.160D-02      -337.91561640    702.756431    0.00000    0.00000    0.00000    3
    5      0.288D-02      0.561D-03      -337.91588286    702.683685    0.00000    0.00000    0.00000    4
    6      0.103D-02      0.187D-03      -337.91595036    702.702953    0.00000    0.00000    0.00000    5
    7      0.479D-03      0.837D-04      -337.91596166    702.698562    0.00000    0.00000    0.00000    6
    8      0.243D-03      0.219D-04      -337.91596236    702.698935    0.00000    0.00000    0.00000    7
    9      0.621D-04      0.560D-05      -337.91596241    702.698645    0.00000    0.00000    0.00000    7
   10      0.174D-04      0.121D-05      -337.91596241    702.698818    0.00000    0.00000    0.00000    7
   11      0.341D-05      0.272D-06      -337.91596241    702.698748    0.00000    0.00000    0.00000    7
   12      0.731D-06      0.102D-06      -337.91596241    702.698758    0.00000    0.00000    0.00000    7
   13      0.220D-06      0.324D-07      -337.91596241    702.698762    0.00000    0.00000    0.00000    7
   14      0.835D-07      0.759D-08      -337.91596241    702.698761    0.00000    0.00000    0.00000    7
   15      0.179D-07      0.172D-08      -337.91596241    702.698761    0.00000    0.00000    0.00000    7
   16      0.397D-08      0.403D-09      -337.91596241    702.698761    0.00000    0.00000    0.00000    7
   17      0.832D-09      0.166D-09      -337.91596241    702.698761    0.00000    0.00000    0.00000    7
   18      0.410D-09      0.356D-10      -337.91596241    702.698761    0.00000    0.00000    0.00000    7
   19      0.905D-10      0.112D-10      -337.91596241    702.698761    0.00000    0.00000    0.00000    7
   20      0.241D-10      0.167D-11      -337.91596241    702.698761    0.00000    0.00000    0.00000    0

 Final occupancy:  10   2  10   2

 !RHF STATE 1.1 Energy               -337.915962414589
 Nuclear energy                       230.54552205
 One-electron energy                 -919.81086496
 Two-electron energy                  351.34938050
 Virial quotient                       -1.00142675
 !RHF STATE 1.1 Dipole moment           0.00000000     0.00000000     0.00000000
 Dipole moment /Debye                   0.00000000     0.00000000     0.00000000

 Orbital energies:

         1.1          2.1          3.1          4.1          5.1          6.1          7.1          8.1          9.1         10.1
    -20.525108   -15.577681   -11.358705    -1.378104    -1.202570    -0.851983    -0.740332    -0.634087    -0.609899    -0.443466

        11.1         12.1
      0.185746     0.232052

         1.2          2.2          3.2          4.2
     -0.565297    -0.401109     0.194906     0.673551

         1.3          2.3          3.3          4.3          5.3          6.3          7.3          8.3          9.3         10.3
    -20.525108   -15.577679   -11.358705    -1.373349    -1.208725    -0.826893    -0.731533    -0.695380    -0.583440    -0.418410

        11.3         12.3
      0.187658     0.242183

         1.4          2.4          3.4          4.4
     -0.557848    -0.410640     0.201770     0.689553


 **********************************************************************************************************************************
 DATASETS  * FILE   NREC   LENGTH (MB)   RECORD NAMES
              1      19       50.04       500      610      700      900      950      970     1000      129      960     1100   
                                          VAR    BASINP    GEOM    SYMINP    ZMAT    AOBASIS   BASIS     P2S    ABASIS      S 
                                         1400     1410     1200     1210     1080     1600     1650     1300     1700   
                                           T        V       H0       H01     AOSYM     SMH    MOLCAS    ERIS     OPER   

              2       3        0.54       700     1000     2100   
                                         GEOM     BASIS     RHF  

 PROGRAMS   *        TOTAL       RHF       INT
 CPU TIMES  *         1.67      0.33      1.30
 REAL TIME  *         2.04 SEC
 DISK USED  *       178.56 MB      
 GA USED    *         0.00 MB       (max)       0.00 MB       (current)
 **********************************************************************************************************************************


1PROGRAM * CCSD (Closed-shell coupled cluster)     Authors: C. Hampel, H.-J. Werner, 1991, M. Deegan, P.J. Knowles, 1992


 Convergence thresholds:  THRVAR = 1.00D-08  THRDEN = 1.00D-12

 CCSD(T)     terms to be evaluated (factor= 1.000)


 Number of core orbitals:           6 (   3   0   3   0 )
 Number of closed-shell orbitals:  18 (   7   2   7   2 )
 Number of external orbitals:      90 (  32  13  32  13 )

 Molecular orbitals read from record     2100.2  Type=RHF/CANONICAL (state 1.1)

 Number of N-1 electron functions:              18
 Number of N-2 electron functions:             171
 Number of singly external CSFs:               500
 Number of doubly external CSFs:            346910
 Total number of CSFs:                      347411

 Length of J-op  integral file:               0.00 MB
 Length of K-op  integral file:               0.31 MB
 Length of 3-ext integral record:             0.00 MB

 Memory could be reduced to 5.11 Mwords without degradation in triples

 Integral transformation finished. Total CPU:   0.14 sec, npass=  1  Memory used:   2.18 MW

 Reference energy:                   -337.91596241

 MP2 singlet pair energy:              -0.58954964
 MP2 triplet pair energy:              -0.38312433
 MP2 correlation energy:               -0.97267397
 MP2 total energy:                   -338.88863638

 SCS-MP2 correlation energy:           -0.94584804   (PS=  1.200000  PT=  0.333333)
 SCS-MP2 total energy:               -338.86181045

 ITER.      SQ.NORM     CORR.ENERGY   TOTAL ENERGY   ENERGY CHANGE        DEN1      VAR(S)    VAR(P)  DIIS     TIME
   1      1.29757799    -1.00463161  -338.92059403    -0.03195765    -0.00232383  0.96D-02  0.55D-02  1  1     0.50
   2      1.32246356    -1.00727651  -338.92323892    -0.00264490    -0.02513960  0.22D-03  0.11D-02  2  2     0.87
   3      1.33511042    -1.00825107  -338.92421348    -0.00097456    -0.00560345  0.22D-03  0.47D-04  3  3     1.25
   4      1.34047237    -1.00802239  -338.92398481     0.00022867    -0.00169631  0.20D-04  0.81D-05  4  4     1.63
   5      1.34258396    -1.00795864  -338.92392106     0.00006375    -0.00043537  0.19D-05  0.10D-05  5  5     2.00
   6      1.34305234    -1.00792784  -338.92389026     0.00003080    -0.00004160  0.15D-06  0.13D-06  6  6     2.37
   7      1.34315778    -1.00791812  -338.92388053     0.00000973    -0.00000528  0.15D-07  0.15D-07  6  2     2.75
   8      1.34317582    -1.00791820  -338.92388061    -0.00000008    -0.00000000  0.18D-08  0.17D-08  6  1     3.14
   9      1.34317732    -1.00791788  -338.92388029     0.00000032     0.00000149  0.27D-09  0.22D-09  6  4     3.51
  10      1.34318031    -1.00791784  -338.92388025     0.00000004    -0.00000040  0.76D-10  0.19D-10  6  3     3.89
  11      1.34318021    -1.00791791  -338.92388032    -0.00000007     0.00000017  0.14D-10  0.46D-11  6  5     4.27
  12      1.34318001    -1.00791792  -338.92388034    -0.00000002     0.00000008  0.28D-11  0.12D-11  6  6     4.64
  13      1.34317977    -1.00791795  -338.92388037    -0.00000003     0.00000009  0.39D-12  0.16D-12  6  2     5.01
  14      1.34317968    -1.00791796  -338.92388037    -0.00000001     0.00000003  0.64D-13  0.28D-13  6  1     5.39
  15      1.34317966    -1.00791796  -338.92388038    -0.00000000     0.00000000  0.11D-13  0.62D-14  6  4     5.76
  16      1.34317965    -1.00791796  -338.92388038    -0.00000000    -0.00000000  0.28D-14  0.11D-14  6  3     6.14
  17      1.34317965    -1.00791796  -338.92388038    -0.00000000    -0.00000000  0.76D-15  0.16D-15  6  5     6.51
  18      1.34317965    -1.00791796  -338.92388038    -0.00000000     0.00000000  0.63D-16  0.50D-16  6  6     6.88
  19      1.34317965    -1.00791796  -338.92388038    -0.00000000     0.00000000  0.16D-16  0.67D-17  6  2     7.25
  20      1.34317964    -1.00791796  -338.92388038    -0.00000000     0.00000000  0.22D-17  0.11D-17  6  1     7.62
  21      1.34317964    -1.00791796  -338.92388038    -0.00000000     0.00000000  0.28D-18  0.22D-18  6  4     7.99
  22      1.34317964    -1.00791796  -338.92388038     0.00000000     0.00000000  0.75D-19  0.37D-19  6  3     8.36
  23      1.34317964    -1.00791796  -338.92388038    -0.00000000     0.00000000  0.15D-19  0.50D-20  6  5     8.74
  24      1.34317964    -1.00791796  -338.92388038     0.00000000    -0.00000000  0.24D-20  0.13D-20  6  6     9.12
  25      1.34317964    -1.00791796  -338.92388038     0.00000000    -0.00000000  0.56D-21  0.24D-21  6  2     9.49

 Norm of t1 vector:      0.14902522      S-energy:     0.00000000      T1 diagnostic:  0.01756279
                                                                       D1 diagnostic:  0.06221691

 Singles amplitudes (print threshold =  0.500E-01):

         I         SYM. A    A   T(IA)

         8         2         1      0.05768732
        17         4         1      0.05862686


 Total CPU time for triples:      5.86 sec


 RESULTS
 =======

  Reference energy                   -337.915962414589
  CCSD singlet pair energy             -0.667801670795
  CCSD triplet pair energy             -0.340116291571
  CCSD correlation energy              -1.007917962365

  Triples (T) contribution             -0.032228080967
  Total correlation energy             -1.040146043332

  CCSD total energy                  -338.923880376954
  CCSD[T] energy                     -338.959101492093
  CCSD-T energy                      -338.955131832030
 !CCSD(T) total energy               -338.956108457921

 Timing summary (sec):

 STEP                 CPU(USER)    SYS     CPU(TOT)    WALL
 Transformation          0.15      0.04      0.19      0.18
 CCSD iterations         9.34      0.48      9.82      9.87
 Triples                 5.86      0.17      6.03      6.04

 Program statistics:

 Available memory in ccsd:               999998604
 Min. memory needed in ccsd:                956954
 Max. memory used in ccsd:                 1266776
 Max. memory used in cckext:               1354904 (25 integral passes)



 **********************************************************************************************************************************
 DATASETS  * FILE   NREC   LENGTH (MB)   RECORD NAMES
              1      20       71.48       500      610      700      900      950      970     1000      129      960     1100   
                                          VAR    BASINP    GEOM    SYMINP    ZMAT    AOBASIS   BASIS     P2S    ABASIS      S 
                                         1400     1410     1200     1210     1080     1600     1650     1300     1700     1380   
                                           T        V       H0       H01     AOSYM     SMH    MOLCAS    ERIS     OPER     JKOP   

              2       3        0.54       700     1000     2100   
                                         GEOM     BASIS     RHF  

 PROGRAMS   *        TOTAL   CCSD(T)       RHF       INT
 CPU TIMES  *        17.03     15.36      0.33      1.30
 REAL TIME  *        18.17 SEC
 DISK USED  *       190.21 MB      
 GA USED    *         0.00 MB       (max)       0.00 MB       (current)
 **********************************************************************************************************************************

        CCSD(T)         RHF-SCF 
   -338.95610846   -337.91596241
 **********************************************************************************************************************************
 Variable memory released
