
 Primary working directories    : /tmp/985636.762.gen4.q
 Secondary working directories  : /tmp/985636.762.gen4.q
 Wavefunction directory         : /home/vulcan/jj04645/wfu/
 Main file repository           : /tmp/985636.762.gen4.q/

 ARCHNAME  : Linux/x86_64
 FC        : /opt/intel/compilers_and_libraries_2016.1.150/linux/bin/intel64/ifort
 FCVERSION : 16.0.1
 BLASLIB   : -mkl
 id        : ccgc

 Nodes     nprocs
 n056         1
 ga_uses_ma=false, calling ma_init with nominal heap.
 GA-space will be limited to   8.0 MW (determined by -G option)

 Using customized tuning parameters: mindgm=10; mindgv=16; mindgc=4; mindgr=1; noblas=0; mincuda=1000; minvec=7
 default implementation of scratch files=df  

 ***,Optimization of tetrahydrothiopyran
 memory,1000,m
 gthresh,energy=1.0d-12,orbital=1.0d-10,oneint=1.0d-16,twoint=1.0d-16,optgrad=1.0d-6,compress=1.0d-13
 geomtyp=xyz
 
 bohr
 geometry = {
  S    0.3526057172    2.6999214144   -0.0000000000
  C   -0.3316800903   -3.3649811852   -0.0000000000
  C   -0.6632848447    0.6694661025   -2.5812259442
  C   -0.6632848447    0.6694661025    2.5812259442
  C    0.4706777379   -1.9814861718   -2.4139026755
  C    0.4706777379   -1.9814861718    2.4139026755
  H   -2.7295609084    0.5718914617   -2.5850519445
  H   -2.7295609084    0.5718914617    2.5850519445
  H   -0.0738371499    1.6244414006   -4.3116043655
  H   -0.0738371499    1.6244414006    4.3116043655
  H    2.5377420333   -1.8365754488   -2.4809626347
  H    2.5377420333   -1.8365754488    2.4809626347
  H   -0.1309913817   -3.0768637612   -4.0695733499
  H   -0.1309913817   -3.0768637612    4.0695733499
  H    0.4660108310   -5.2784855098   -0.0000000000
  H   -2.3871624476   -3.5780233021   -0.0000000000
 }
 
 basis=VDZ
 {rhf;maxit,200}
 {ccsd(t);maxit,200}

 Variables initialized (661), CPU time= 0.01 sec
 Commands  initialized (458), CPU time= 0.00 sec, 486 directives.
 Default parameters read. Elapsed time= 0.05 sec

 Checking input...
 Passed
1


                                         ***  PROGRAM SYSTEM MOLPRO  ***
                         Copyright, University College Cardiff Consultants Limited, 2008

                                    Version 2010.1 linked May 16 2016 07:17:05


 **********************************************************************************************************************************
 LABEL *   Optimization of tetrahydrothiopyran                                           
 Linux-4.4.3/n056(x86_64) 64 bit mpp version                                             DATE: 26-Jan-24          TIME: 14:40:15  
 **********************************************************************************************************************************

 SHA1:             9e8077add272b0f3cad6f7df79ec5211205f459d
 **********************************************************************************************************************************

 THRESHOLDS:

 ZERO    =  1.00D-12  ONEINT  =  1.00D-16  TWOINT  =  1.00D-16  PREFAC  =  1.00D-14  LOCALI  =  1.00D-09  EORDER  =  1.00D-04
 ENERGY  =  1.00D-12  ETEST   =  0.00D+00  EDENS   =  0.00D+00  THRDEDEF=  1.00D-06  GRADIENT=  1.00D-02  STEP    =  1.00D-03
 ORBITAL =  1.00D-10  CIVEC   =  1.00D-05  COEFF   =  1.00D-04  PRINTCI =  5.00D-02  PUNCHCI =  9.90D+01  OPTGRAD =  1.00D-06
 OPTENERG=  1.00D-06  OPTSTEP =  3.00D-04  THRGRAD =  1.00D-10  COMPRESS=  1.00D-13  VARMIN  =  1.00D-07  VARMAX  =  1.00D-03
 THRDOUB =  0.00D+00  THRDIV  =  1.00D-05  THRRED  =  1.00D-07  THRPSP  =  1.00D+00  THRDC   =  1.00D-10  THRCS   =  1.00D-10
 THRNRM  =  1.00D-08  THREQ   =  0.00D+00  THRDE   =  1.00D+00  THRREF  =  1.00D-05  SPARFAC =  1.00D+00  THRDLP  =  1.00D-07
 THRDIA  =  1.00D-10  THRDLS  =  1.00D-07  THRGPS  =  0.00D+00  THRKEX  =  0.00D+00  THRDIS  =  2.00D-01  THRVAR  =  1.00D-10
 THRLOC  =  1.00D-06  THRGAP  =  1.00D-06  THRLOCT = -1.00D+00  THRGAPT = -1.00D+00  THRORB  =  1.00D-06  THRMLTP =  0.00D+00
 THRCPQCI=  1.00D-10  KEXTA   =  0.00D+00  THRCOARS=  0.00D+00  SYMTOL  =  1.00D-06  GRADTOL =  1.00D-06  THROVL  =  1.00D-08
 THRORTH =  1.00D-08  GRID    =  1.00D-06  GRIDMAX =  1.00D-03  DTMAX   =  0.00D+00

 SETTING GEOMTYP        =    XYZ
 ZUNIT=BOHR
 

 Variable memory set to 1000000000 words,  buffer space   230000 words

 SETTING BASIS          =    VDZ


 Recomputing integrals since basis changed


 Using spherical harmonics

 Library entry S      S cc-pVDZ              selected for orbital group  1
 Library entry S      P cc-pVDZ              selected for orbital group  1
 Library entry S      D cc-pVDZ              selected for orbital group  1
 Library entry C      S cc-pVDZ              selected for orbital group  2
 Library entry C      P cc-pVDZ              selected for orbital group  2
 Library entry C      D cc-pVDZ              selected for orbital group  2
 Library entry H      S cc-pVDZ              selected for orbital group  3
 Library entry H      P cc-pVDZ              selected for orbital group  3

1PROGRAM * SEWARD (Integral evaluation for generally contracted gaussian basis sets)     Author: Roland Lindh, 1990

 Geometry written to block  1 of record 700


 Point group  Cs  



 ATOMIC COORDINATES

 NR  ATOM    CHARGE       X              Y              Z

   1  S      16.00    0.352605717    2.699921414    0.000000000
   2  C       6.00   -0.331680090   -3.364981185    0.000000000
   3  C       6.00   -0.663284845    0.669466103   -2.581225944
   4  C       6.00   -0.663284845    0.669466103    2.581225944
   5  C       6.00    0.470677738   -1.981486172   -2.413902676
   6  C       6.00    0.470677738   -1.981486172    2.413902676
   7  H       1.00   -2.729560908    0.571891462   -2.585051944
   8  H       1.00   -2.729560908    0.571891462    2.585051944
   9  H       1.00   -0.073837150    1.624441401   -4.311604366
  10  H       1.00   -0.073837150    1.624441401    4.311604366
  11  H       1.00    2.537742033   -1.836575449   -2.480962635
  12  H       1.00    2.537742033   -1.836575449    2.480962635
  13  H       1.00   -0.130991382   -3.076863761   -4.069573350
  14  H       1.00   -0.130991382   -3.076863761    4.069573350
  15  H       1.00    0.466010831   -5.278485510    0.000000000
  16  H       1.00   -2.387162448   -3.578023302    0.000000000

 Bond lengths in Bohr (Angstrom)

  1- 3  3.437660510   1- 4  3.437660510   2- 5  2.895645466   2- 6  2.895645466   2-15  2.073115917
       ( 1.819131594)       ( 1.819131594)       ( 1.532309586)       ( 1.532309586)       ( 1.097045695)

  2-16  2.066493326   3- 5  2.888150996   3- 7  2.068582176   3- 9  2.062434456   4- 6  2.888150996
       ( 1.093541170)       ( 1.528343683)       ( 1.094646543)       ( 1.091393309)       ( 1.528343683)

  4- 8  2.068582176   4-10  2.062434456   5-11  2.073222361   5-13  2.074392242   6-12  2.073222361
       ( 1.094646543)       ( 1.091393309)       ( 1.097102022)       ( 1.097721097)       ( 1.097102022)

  6-14  2.074392242
       ( 1.097721097)

 Bond angles

  1-3-5  112.49558561   1-3-7  108.93154214   1-3-9  105.78484499   1-4-6  112.49558561

  1- 4- 8  108.93154214   1- 4-10  105.78484499   2- 5- 3  112.21281598   2- 5-11  109.67156750

  2- 5-13  109.43267524   2- 6- 4  112.21281598   2- 6-12  109.67156750   2- 6-14  109.43267524

  3- 1- 4   97.33107758   3- 5-11  108.99161296   3- 5-13  108.93892964   4- 6-12  108.99161296

  4- 6-14  108.93892964   5- 2- 6  112.94731724   5- 2-15  109.53488185   5- 2-16  108.95777566

  5- 3- 7  110.42612597   5- 3- 9  111.18611354   6- 2-15  109.53488185   6- 2-16  108.95777566

  6- 4- 8  110.42612597   6- 4-10  111.18611354   7- 3- 9  107.80465603   8- 4-10  107.80465603

 11- 5-13  107.47420348  12- 6-14  107.47420348  15- 2-16  106.71266613

 NUCLEAR CHARGE:                   56
 NUMBER OF PRIMITIVE AOS:         247
 NUMBER OF SYMMETRY AOS:          241
 NUMBER OF CONTRACTIONS:          138   (  79A'  +  59A"  )
 NUMBER OF CORE ORBITALS:          10   (   7A'  +   3A"  )
 NUMBER OF VALENCE ORBITALS:       34   (  20A'  +  14A"  )


 NUCLEAR REPULSION ENERGY  312.07425867


 Eigenvalues of metric

         1 0.305E-02 0.426E-02 0.634E-02 0.157E-01 0.197E-01 0.238E-01 0.284E-01 0.344E-01
         2 0.286E-02 0.704E-02 0.152E-01 0.196E-01 0.220E-01 0.344E-01 0.352E-01 0.360E-01


 Contracted 2-electron integrals neglected if value below      1.0D-16
 AO integral compression algorithm  1   Integral accuracy      1.0D-16

     207.094 MB (compressed) written to integral file ( 97.6%)

     Node minimum: 207.094 MB, node maximum: 207.094 MB


 NUMBER OF SORTED TWO-ELECTRON INTEGRALS:   23341315.     BUFFER LENGTH:  32768
 NUMBER OF SEGMENTS:   2  SEGMENT LENGTH:   15994315      RECORD LENGTH: 524288

 Memory used in sort:      16.55 MW

 SORT1 READ    26508670. AND WROTE    23261985. INTEGRALS IN     68 RECORDS. CPU TIME:     0.33 SEC, REAL TIME:     0.58 SEC
 SORT2 READ    23261985. AND WROTE    23341315. INTEGRALS IN    790 RECORDS. CPU TIME:     0.24 SEC, REAL TIME:     0.34 SEC

 FILE SIZES:   FILE 1:   187.9 MBYTE,  FILE 4:   285.2 MBYTE,   TOTAL:    473.2 MBYTE

 OPERATOR DM      FOR CENTER  0  COORDINATES:    0.000000    0.000000    0.000000


 **********************************************************************************************************************************
 DATASETS  * FILE   NREC   LENGTH (MB)   RECORD NAMES
              1      19      188.02       500      610      700      900      950      970     1000      129      960     1100   
                                          VAR    BASINP    GEOM    SYMINP    ZMAT    AOBASIS   BASIS     P2S    ABASIS      S 
                                         1400     1410     1200     1210     1080     1600     1650     1300     1700   
                                           T        V       H0       H01     AOSYM     SMH    MOLCAS    ERIS     OPER   

 PROGRAMS   *        TOTAL       INT
 CPU TIMES  *         3.61      3.57
 REAL TIME  *         4.27 SEC
 DISK USED  *       681.25 MB      
 GA USED    *         0.00 MB       (max)       0.00 MB       (current)
 **********************************************************************************************************************************

1PROGRAM * RHF-SCF (CLOSED SHELL)       Authors: W. Meyer, H.-J. Werner


 NUMBER OF ELECTRONS:      28+   28-
 CONVERGENCE THRESHOLDS:    1.00E-10 (Density)    1.00E-13 (Energy)
 MAX. NUMBER OF ITERATIONS:      200
 INTERPOLATION TYPE:            DIIS
 INTERPOLATION STEPS:              2 (START)      1 (STEP)
 LEVEL SHIFTS:                  0.00 (CLOSED)  0.00 (OPEN) 



 Orbital guess generated from atomic densities. Full valence occupancy:   27  17

 Molecular orbital dump at record        2100.2

 Initial alpha occupancy:  18  10
 Initial beta  occupancy:  18  10
 Wave function symmetry:    1

 ITERATION    DDIFF          GRAD             ENERGY        2-EL.EN.            DIPOLE MOMENTS         DIIS
    1      0.000D+00      0.000D+00      -592.64389280   1056.721998   -0.40563   -0.80725    0.00000    0
    2      0.000D+00      0.552D-02      -592.70488027   1054.131442   -0.21159   -0.73705    0.00000    1
    3      0.109D-01      0.184D-02      -592.71081169   1055.572188   -0.28273   -0.67472    0.00000    2
    4      0.375D-02      0.753D-03      -592.71182159   1054.949917   -0.25645   -0.70734    0.00000    3
    5      0.130D-02      0.108D-03      -592.71184740   1055.013188   -0.25254   -0.69879    0.00000    4
    6      0.253D-03      0.373D-04      -592.71184993   1054.982352   -0.25429   -0.69905    0.00000    5
    7      0.705D-04      0.866D-05      -592.71185014   1054.985484   -0.25363   -0.69893    0.00000    6
    8      0.230D-04      0.242D-05      -592.71185016   1054.984624   -0.25362   -0.69879    0.00000    7
    9      0.755D-05      0.628D-06      -592.71185016   1054.984507   -0.25360   -0.69875    0.00000    7
   10      0.177D-05      0.224D-06      -592.71185016   1054.984546   -0.25359   -0.69875    0.00000    7
   11      0.664D-06      0.479D-07      -592.71185016   1054.984531   -0.25359   -0.69875    0.00000    7
   12      0.159D-06      0.956D-08      -592.71185016   1054.984537   -0.25359   -0.69874    0.00000    7
   13      0.254D-07      0.399D-08      -592.71185016   1054.984534   -0.25359   -0.69874    0.00000    7
   14      0.881D-08      0.118D-08      -592.71185016   1054.984535   -0.25359   -0.69874    0.00000    7
   15      0.315D-08      0.380D-09      -592.71185016   1054.984534   -0.25359   -0.69874    0.00000    7
   16      0.917D-09      0.118D-09      -592.71185016   1054.984535   -0.25359   -0.69874    0.00000    8
   17      0.283D-09      0.254D-10      -592.71185016   1054.984535   -0.25359   -0.69874    0.00000    7
   18      0.673D-10      0.746D-11      -592.71185016   1054.984535   -0.25359   -0.69874    0.00000    7
   19      0.234D-10      0.247D-11      -592.71185016   1054.984535   -0.25359   -0.69874    0.00000    8
   20      0.683D-11      0.724D-12      -592.71185016   1054.984535   -0.25359   -0.69874    0.00000    7
   21      0.214D-11      0.242D-12      -592.71185016   1054.984535   -0.25359   -0.69874    0.00000    7
   22      0.832D-12      0.823D-13      -592.71185016   1054.984535   -0.25359   -0.69874    0.00000    8
   23      0.281D-12      0.427D-13      -592.71185016   1054.984535   -0.25359   -0.69874    0.00000    8
   24      0.177D-12      0.303D-13      -592.71185016   1054.984535   -0.25359   -0.69874    0.00000    8
   25      0.101D-12      0.257D-13      -592.71185016   1054.984535   -0.25359   -0.69874    0.00000    9
   26      0.659D-13      0.260D-13      -592.71185016   1054.984535   -0.25359   -0.69874    0.00000    9
   27      0.538D-13      0.296D-13      -592.71185016   1054.984535   -0.25359   -0.69874    0.00000    9
   28      0.414D-13      0.174D-13      -592.71185016   1054.984535   -0.25359   -0.69874    0.00000    0

 Final occupancy:  18  10

 !RHF STATE 1.1 Energy               -592.711850160247
 Nuclear energy                       312.07425867
 One-electron energy                -1432.27837611
 Two-electron energy                  527.49226728
 Virial quotient                       -1.00022089
 !RHF STATE 1.1 Dipole moment          -0.25359171    -0.69874421     0.00000000
 Dipole moment /Debye                  -0.64452362    -1.77591432     0.00000000

 Orbital energies:

         1.1          2.1          3.1          4.1          5.1          6.1          7.1          8.1          9.1         10.1
    -91.929847   -11.255072   -11.231642   -11.229241    -8.933735    -6.614197    -6.611995    -1.119513    -1.006465    -0.835708

        11.1         12.1         13.1         14.1         15.1         16.1         17.1         18.1         19.1         20.1
     -0.755550    -0.646340    -0.609235    -0.578748    -0.495256    -0.473060    -0.411686    -0.328756     0.176713     0.201016

         1.2          2.2          3.2          4.2          5.2          6.2          7.2          8.2          9.2         10.2
    -11.255085   -11.231581    -6.615630    -1.019763    -0.842015    -0.614207    -0.546824    -0.523661    -0.497558    -0.434550

        11.2         12.2
      0.190233     0.222813


 **********************************************************************************************************************************
 DATASETS  * FILE   NREC   LENGTH (MB)   RECORD NAMES
              1      19      188.02       500      610      700      900      950      970     1000      129      960     1100   
                                          VAR    BASINP    GEOM    SYMINP    ZMAT    AOBASIS   BASIS     P2S    ABASIS      S 
                                         1400     1410     1200     1210     1080     1600     1650     1300     1700   
                                           T        V       H0       H01     AOSYM     SMH    MOLCAS    ERIS     OPER   

              2       3        0.73       700     1000     2100   
                                         GEOM     BASIS     RHF  

 PROGRAMS   *        TOTAL       RHF       INT
 CPU TIMES  *         6.78      3.17      3.57
 REAL TIME  *         8.03 SEC
 DISK USED  *       681.25 MB      
 GA USED    *         0.00 MB       (max)       0.00 MB       (current)
 **********************************************************************************************************************************


1PROGRAM * CCSD (Closed-shell coupled cluster)     Authors: C. Hampel, H.-J. Werner, 1991, M. Deegan, P.J. Knowles, 1992


 Convergence thresholds:  THRVAR = 1.00D-08  THRDEN = 1.00D-12

 CCSD(T)     terms to be evaluated (factor= 1.000)


 Number of core orbitals:          10 (   7   3 )
 Number of closed-shell orbitals:  18 (  11   7 )
 Number of external orbitals:     110 (  61  49 )

 Molecular orbitals read from record     2100.2  Type=RHF/CANONICAL (state 1.1)

 Number of N-1 electron functions:              18
 Number of N-2 electron functions:             171
 Number of singly external CSFs:              1014
 Number of doubly external CSFs:            981666
 Total number of CSFs:                      982681

 Length of J-op  integral file:               0.00 MB
 Length of K-op  integral file:               0.70 MB
 Length of 3-ext integral record:             0.00 MB

 Memory could be reduced to 16.31 Mwords without degradation in triples

 Integral transformation finished. Total CPU:   0.92 sec, npass=  1  Memory used:  10.63 MW

 Reference energy:                   -592.71185016

 MP2 singlet pair energy:              -0.53959568
 MP2 triplet pair energy:              -0.30438658
 MP2 correlation energy:               -0.84398226
 MP2 total energy:                   -593.55583242

 SCS-MP2 correlation energy:           -0.83691091   (PS=  1.200000  PT=  0.333333)
 SCS-MP2 total energy:               -593.54876107

 ITER.      SQ.NORM     CORR.ENERGY   TOTAL ENERGY   ENERGY CHANGE        DEN1      VAR(S)    VAR(P)  DIIS     TIME
   1      1.33991319    -0.91097080  -593.62282096    -0.06698854    -0.04300662  0.26D-02  0.55D-02  1  1     2.76
   2      1.36695223    -0.91632735  -593.62817751    -0.00535655    -0.02580143  0.69D-04  0.46D-03  2  2     4.69
   3      1.37230124    -0.91645631  -593.62830647    -0.00012896    -0.00304546  0.16D-04  0.28D-04  3  3     6.62
   4      1.37379816    -0.91651460  -593.62836476    -0.00005829    -0.00059539  0.76D-06  0.20D-05  4  4     8.54
   5      1.37403933    -0.91652125  -593.62837141    -0.00000664    -0.00007103  0.17D-06  0.17D-06  5  5    10.47
   6      1.37408505    -0.91651680  -593.62836696     0.00000445    -0.00001396  0.30D-07  0.14D-07  6  6    12.40
   7      1.37409261    -0.91651668  -593.62836684     0.00000011     0.00000064  0.53D-08  0.23D-08  6  2    14.33
   8      1.37409869    -0.91651637  -593.62836653     0.00000031    -0.00000125  0.73D-09  0.27D-09  6  1    16.25
   9      1.37409952    -0.91651631  -593.62836647     0.00000006     0.00000051  0.66D-10  0.44D-10  6  4    18.18
  10      1.37410040    -0.91651627  -593.62836643     0.00000003    -0.00000011  0.48D-11  0.35D-11  6  3    20.11
  11      1.37410041    -0.91651627  -593.62836643    -0.00000000     0.00000004  0.12D-11  0.54D-12  6  5    22.04
  12      1.37410038    -0.91651628  -593.62836644    -0.00000000     0.00000002  0.17D-12  0.77D-13  6  6    23.97
  13      1.37410033    -0.91651628  -593.62836644    -0.00000000     0.00000002  0.24D-13  0.11D-13  6  1    25.91
  14      1.37410032    -0.91651628  -593.62836644    -0.00000000     0.00000000  0.31D-14  0.12D-14  6  2    27.85
  15      1.37410032    -0.91651628  -593.62836644     0.00000000    -0.00000000  0.67D-15  0.31D-15  6  4    29.77
  16      1.37410032    -0.91651628  -593.62836644     0.00000000    -0.00000000  0.32D-16  0.23D-16  6  5    31.71
  17      1.37410032    -0.91651628  -593.62836644     0.00000000    -0.00000000  0.57D-17  0.24D-17  6  3    33.63
  18      1.37410032    -0.91651628  -593.62836644     0.00000000    -0.00000000  0.14D-17  0.41D-18  6  5    35.57
  19      1.37410032    -0.91651628  -593.62836644     0.00000000    -0.00000000  0.18D-18  0.64D-19  6  6    37.51
  20      1.37410032    -0.91651628  -593.62836644    -0.00000000     0.00000000  0.15D-19  0.66D-20  6  1    39.44
  21      1.37410032    -0.91651628  -593.62836644    -0.00000000     0.00000000  0.23D-20  0.98D-21  6  2    41.38

 Norm of t1 vector:      0.07017227      S-energy:    -0.00000000      T1 diagnostic:  0.00826988
                                                                       D1 diagnostic:  0.02108039


 Total CPU time for triples:     38.06 sec


 RESULTS
 =======

  Reference energy                   -592.711850160246
  CCSD singlet pair energy             -0.634411761851
  CCSD triplet pair energy             -0.282104516872
  CCSD correlation energy              -0.916516278723

  Triples (T) contribution             -0.029889924879
  Total correlation energy             -0.946406203603

  CCSD total energy                  -593.628366438970
  CCSD[T] energy                     -593.658876849406
  CCSD-T energy                      -593.657944686638
 !CCSD(T) total energy               -593.658256363849

 Timing summary (sec):

 STEP                 CPU(USER)    SYS     CPU(TOT)    WALL
 Transformation          0.95      0.11      1.06      1.08
 CCSD iterations        40.43      1.49     41.92     41.98
 Triples                38.06      1.13     39.19     39.20

 Program statistics:

 Available memory in ccsd:               999998604
 Min. memory needed in ccsd:               2548392
 Max. memory used in ccsd:                 3412984
 Max. memory used in cckext:               3730705 (21 integral passes)



 **********************************************************************************************************************************
 DATASETS  * FILE   NREC   LENGTH (MB)   RECORD NAMES
              1      20      256.19       500      610      700      900      950      970     1000      129      960     1100   
                                          VAR    BASINP    GEOM    SYMINP    ZMAT    AOBASIS   BASIS     P2S    ABASIS      S 
                                         1400     1410     1200     1210     1080     1600     1650     1300     1700     1380   
                                           T        V       H0       H01     AOSYM     SMH    MOLCAS    ERIS     OPER     JKOP   

              2       3        0.73       700     1000     2100   
                                         GEOM     BASIS     RHF  

 PROGRAMS   *        TOTAL   CCSD(T)       RHF       INT
 CPU TIMES  *        86.24     79.46      3.17      3.57
 REAL TIME  *        90.34 SEC
 DISK USED  *       681.25 MB      
 GA USED    *         0.00 MB       (max)       0.00 MB       (current)
 **********************************************************************************************************************************

        CCSD(T)         RHF-SCF 
   -593.65825636   -592.71185016
 **********************************************************************************************************************************
 Variable memory released
