
 Primary working directories    : /tmp/943420.276.gen6.q
 Secondary working directories  : /tmp/943420.276.gen6.q
 Wavefunction directory         : /home/vulcan/mel64643/wfu/
 Main file repository           : /tmp/943420.276.gen6.q/

 ARCHNAME  : Linux/x86_64
 FC        : /opt/intel/compilers_and_libraries_2016.1.150/linux/bin/intel64/ifort
 FCVERSION : 16.0.1
 BLASLIB   : -mkl
 id        : ccgc

 Nodes     nprocs
 n079         1
 ga_uses_ma=false, calling ma_init with nominal heap.
 GA-space will be limited to   8.0 MW (determined by -G option)

 Using customized tuning parameters: mindgm=10; mindgv=16; mindgc=4; mindgr=1; noblas=0; mincuda=1000; minvec=7
 default implementation of scratch files=df  

 ***,Optimization of nh3_nitrosmethane
 memory,1000,m
 gthresh,energy=1.0d-12,orbital=1.0d-10,oneint=1.0d-16,twoint=1.0d-16,optgrad=1.0d-6,compress=1.0d-13
 geomtyp=xyz
 
 bohr
 geometry = {
  N   -5.2242315980   -0.1854742579    0.0015168560
  H   -6.2996252964    0.2278004818   -1.5325198306
  H   -3.7605523939    1.0583895611   -0.0003261322
  H   -6.2979342481    0.2303571768    1.5360470804
  H   -0.9312732968   -2.3980117753   -0.0001531704
  H    1.8917543111   -3.4332403657   -1.6630566301
  H    1.8717289577   -3.4322028463    1.6636694580
  C    1.1373514720   -2.4698921583   -0.0044747523
  N    2.2696931754    0.0970964313    0.0015407862
  O    0.7072074071    1.7822347615   -0.0022436648
 }
 
 basis=aug-cc-pvdz, H=cc-pvdz
 {rhf;maxit,200}
 {ccsd(t);maxit,200}

 Variables initialized (661), CPU time= 0.01 sec
 Commands  initialized (458), CPU time= 0.00 sec, 486 directives.
 Default parameters read. Elapsed time= 0.04 sec

 Checking input...
 Passed
1


                                         ***  PROGRAM SYSTEM MOLPRO  ***
                         Copyright, University College Cardiff Consultants Limited, 2008

                                    Version 2010.1 linked May 16 2016 07:17:05


 **********************************************************************************************************************************
 LABEL *   Optimization of nh3_nitrosmethane                                             
 Linux-4.4.3/n079(x86_64) 64 bit mpp version                                             DATE: 26-Oct-23          TIME: 07:48:03  
 **********************************************************************************************************************************

 SHA1:             9e8077add272b0f3cad6f7df79ec5211205f459d
 **********************************************************************************************************************************

 THRESHOLDS:

 ZERO    =  1.00D-12  ONEINT  =  1.00D-16  TWOINT  =  1.00D-16  PREFAC  =  1.00D-14  LOCALI  =  1.00D-09  EORDER  =  1.00D-04
 ENERGY  =  1.00D-12  ETEST   =  0.00D+00  EDENS   =  0.00D+00  THRDEDEF=  1.00D-06  GRADIENT=  1.00D-02  STEP    =  1.00D-03
 ORBITAL =  1.00D-10  CIVEC   =  1.00D-05  COEFF   =  1.00D-04  PRINTCI =  5.00D-02  PUNCHCI =  9.90D+01  OPTGRAD =  1.00D-06
 OPTENERG=  1.00D-06  OPTSTEP =  3.00D-04  THRGRAD =  1.00D-10  COMPRESS=  1.00D-13  VARMIN  =  1.00D-07  VARMAX  =  1.00D-03
 THRDOUB =  0.00D+00  THRDIV  =  1.00D-05  THRRED  =  1.00D-07  THRPSP  =  1.00D+00  THRDC   =  1.00D-10  THRCS   =  1.00D-10
 THRNRM  =  1.00D-08  THREQ   =  0.00D+00  THRDE   =  1.00D+00  THRREF  =  1.00D-05  SPARFAC =  1.00D+00  THRDLP  =  1.00D-07
 THRDIA  =  1.00D-10  THRDLS  =  1.00D-07  THRGPS  =  0.00D+00  THRKEX  =  0.00D+00  THRDIS  =  2.00D-01  THRVAR  =  1.00D-10
 THRLOC  =  1.00D-06  THRGAP  =  1.00D-06  THRLOCT = -1.00D+00  THRGAPT = -1.00D+00  THRORB  =  1.00D-06  THRMLTP =  0.00D+00
 THRCPQCI=  1.00D-10  KEXTA   =  0.00D+00  THRCOARS=  0.00D+00  SYMTOL  =  1.00D-06  GRADTOL =  1.00D-06  THROVL  =  1.00D-08
 THRORTH =  1.00D-08  GRID    =  1.00D-06  GRIDMAX =  1.00D-03  DTMAX   =  0.00D+00

 SETTING GEOMTYP        =    XYZ
 ZUNIT=BOHR
 

 Variable memory set to 1000000000 words,  buffer space   230000 words

 SETTING BASIS          =    AUG-CC-PVDZ,H=CC-PVDZ


 Recomputing integrals since basis changed


 Using spherical harmonics

 Library entry N      S aug-cc-pVDZ          selected for orbital group  1
 Library entry N      P aug-cc-pVDZ          selected for orbital group  1
 Library entry N      D aug-cc-pVDZ          selected for orbital group  1
 Library entry H      S cc-pVDZ              selected for orbital group  2
 Library entry H      P cc-pVDZ              selected for orbital group  2
 Library entry C      S aug-cc-pVDZ          selected for orbital group  3
 Library entry C      P aug-cc-pVDZ          selected for orbital group  3
 Library entry C      D aug-cc-pVDZ          selected for orbital group  3
 Library entry O      S aug-cc-pVDZ          selected for orbital group  5
 Library entry O      P aug-cc-pVDZ          selected for orbital group  5
 Library entry O      D aug-cc-pVDZ          selected for orbital group  5

1PROGRAM * SEWARD (Integral evaluation for generally contracted gaussian basis sets)     Author: Roland Lindh, 1990

 Geometry written to block  1 of record 700


 Point group  C1  



 ATOMIC COORDINATES

 NR  ATOM    CHARGE       X              Y              Z

   1  N       7.00   -5.224231598   -0.185474258    0.001516856
   2  H       1.00   -6.299625296    0.227800482   -1.532519831
   3  H       1.00   -3.760552394    1.058389561   -0.000326132
   4  H       1.00   -6.297934248    0.230357177    1.536047080
   5  H       1.00   -0.931273297   -2.398011775   -0.000153170
   6  H       1.00    1.891754311   -3.433240366   -1.663056630
   7  H       1.00    1.871728958   -3.432202846    1.663669458
   8  C       6.00    1.137351472   -2.469892158   -0.004474752
   9  N       7.00    2.269693175    0.097096431    0.001540786
  10  O       8.00    0.707207407    1.782234762   -0.002243665

 Bond lengths in Bohr (Angstrom)

 1-2  1.918472354  1-3  1.920822066  1-4  1.918472354  5-8  2.069877750  6-8  2.061081575
     ( 1.015211846)     ( 1.016455260)     ( 1.015211846)     ( 1.095332131)     ( 1.090677395)

  7- 8  2.061081575   8- 9  2.805648649   9-10  2.298057286
       ( 1.090677395)       ( 1.484685321)       ( 1.216079541)

 Bond angles

  2-1-3  106.67095378   2-1-4  106.21107417   3-1-4  106.67095379   5-8-6  112.56384405

  5-8-7  111.75356307   5-8-9  111.81259322   6-8-7  107.61715628   6-8-9  106.35819141

  7- 8- 9  106.35819341   8- 9-10  113.35946296

 NUCLEAR CHARGE:                   34
 NUMBER OF PRIMITIVE AOS:         190
 NUMBER OF SYMMETRY AOS:          182
 NUMBER OF CONTRACTIONS:          122   ( 122A   )
 NUMBER OF CORE ORBITALS:           4   (   4A   )
 NUMBER OF VALENCE ORBITALS:       22   (  22A   )


 NUCLEAR REPULSION ENERGY  117.37382651


 Eigenvalues of metric

         1 0.465E-03 0.142E-02 0.195E-02 0.432E-02 0.529E-02 0.749E-02 0.796E-02 0.852E-02


 Contracted 2-electron integrals neglected if value below      1.0D-16
 AO integral compression algorithm  1   Integral accuracy      1.0D-16

     235.143 MB (compressed) written to integral file ( 87.5%)

     Node minimum: 235.143 MB, node maximum: 235.143 MB


 NUMBER OF SORTED TWO-ELECTRON INTEGRALS:   28151256.     BUFFER LENGTH:  32768
 NUMBER OF SEGMENTS:   2  SEGMENT LENGTH:   15997996      RECORD LENGTH: 524288

 Memory used in sort:      16.56 MW

 SORT1 READ    33603451. AND WROTE    27850851. INTEGRALS IN     81 RECORDS. CPU TIME:     0.29 SEC, REAL TIME:     0.46 SEC
 SORT2 READ    27850851. AND WROTE    28151256. INTEGRALS IN    897 RECORDS. CPU TIME:     0.22 SEC, REAL TIME:     0.36 SEC

 FILE SIZES:   FILE 1:   202.3 MBYTE,  FILE 4:   339.8 MBYTE,   TOTAL:    542.1 MBYTE

 OPERATOR DM      FOR CENTER  0  COORDINATES:    0.000000    0.000000    0.000000


 **********************************************************************************************************************************
 DATASETS  * FILE   NREC   LENGTH (MB)   RECORD NAMES
              1      19      202.49       500      610      700      900      950      970     1000      129      960     1100   
                                          VAR    BASINP    GEOM    SYMINP    ZMAT    AOBASIS   BASIS     P2S    ABASIS      S 
                                         1400     1410     1200     1210     1080     1600     1650     1300     1700   
                                           T        V       H0       H01     AOSYM     SMH    MOLCAS    ERIS     OPER   

 PROGRAMS   *        TOTAL       INT
 CPU TIMES  *         1.77      1.73
 REAL TIME  *         2.36 SEC
 DISK USED  *       778.01 MB      
 GA USED    *         0.00 MB       (max)       0.00 MB       (current)
 **********************************************************************************************************************************

1PROGRAM * RHF-SCF (CLOSED SHELL)       Authors: W. Meyer, H.-J. Werner


 NUMBER OF ELECTRONS:      17+   17-    SPACE SYMMETRY=1    SPIN SYMMETRY: Singlet 
 CONVERGENCE THRESHOLDS:    1.00E-10 (Density)    1.00E-13 (Energy)
 MAX. NUMBER OF ITERATIONS:      200
 INTERPOLATION TYPE:            DIIS
 INTERPOLATION STEPS:              2 (START)      1 (STEP)
 LEVEL SHIFTS:                  0.00 (CLOSED)  0.00 (OPEN) 



 Orbital guess generated from atomic densities. Full valence occupancy:   26

 Molecular orbital dump at record        2100.2

 ITERATION    DDIFF          GRAD             ENERGY        2-EL.EN.            DIPOLE MOMENTS         DIIS
    1      0.000D+00      0.000D+00      -224.96500723    393.050808    0.06654   -0.57202    0.00199    0
    2      0.000D+00      0.710D-02      -225.02575690    392.689899   -0.58430   -0.37392   -0.00095    1
    3      0.132D-01      0.496D-02      -225.05962866    393.231995   -0.23832   -0.55357    0.00004    2
    4      0.572D-02      0.994D-03      -225.06189576    393.066861   -0.31603   -0.45639   -0.00018    3
    5      0.146D-02      0.393D-03      -225.06231968    393.078974   -0.31359   -0.48594   -0.00023    4
    6      0.638D-03      0.952D-04      -225.06236194    393.106137   -0.31890   -0.48316   -0.00026    5
    7      0.217D-03      0.363D-04      -225.06236799    393.090094   -0.32052   -0.48327   -0.00026    6
    8      0.864D-04      0.148D-04      -225.06236899    393.096568   -0.32153   -0.48318   -0.00027    7
    9      0.332D-04      0.633D-05      -225.06236920    393.095401   -0.32181   -0.48288   -0.00027    8
   10      0.184D-04      0.193D-05      -225.06236923    393.095115   -0.32189   -0.48270   -0.00027    8
   11      0.562D-05      0.650D-06      -225.06236923    393.095221   -0.32190   -0.48261   -0.00027    8
   12      0.184D-05      0.199D-06      -225.06236923    393.095185   -0.32190   -0.48258   -0.00027    8
   13      0.688D-06      0.646D-07      -225.06236923    393.095179   -0.32191   -0.48258   -0.00027    8
   14      0.170D-06      0.353D-07      -225.06236923    393.095182   -0.32191   -0.48258   -0.00027    9
   15      0.898D-07      0.131D-07      -225.06236923    393.095182   -0.32191   -0.48258   -0.00027    8
   16      0.401D-07      0.974D-08      -225.06236923    393.095182   -0.32191   -0.48258   -0.00027    8
   17      0.793D-07      0.392D-08      -225.06236923    393.095182   -0.32191   -0.48258   -0.00027    8
   18      0.346D-07      0.133D-08      -225.06236923    393.095182   -0.32191   -0.48258   -0.00027    9
   19      0.777D-08      0.295D-09      -225.06236923    393.095182   -0.32191   -0.48258   -0.00027    9
   20      0.953D-09      0.104D-09      -225.06236923    393.095182   -0.32191   -0.48258   -0.00027    9
   21      0.268D-09      0.332D-10      -225.06236923    393.095182   -0.32191   -0.48258   -0.00027    9
   22      0.859D-10      0.120D-10      -225.06236923    393.095182   -0.32191   -0.48258   -0.00027    0

 Final occupancy:  17

 !RHF STATE 1.1 Energy               -225.062369227815
 Nuclear energy                       117.37382651
 One-electron energy                 -538.98378668
 Two-electron energy                  196.54759095
 Virial quotient                       -1.00219686
 !RHF STATE 1.1 Dipole moment          -0.32190610    -0.48258044    -0.00027352
 Dipole moment /Debye                  -0.81815010    -1.22651680    -0.00069516

 Orbital energies:

         1.1          2.1          3.1          4.1          5.1          6.1          7.1          8.1          9.1         10.1
    -20.640371   -15.714738   -15.548952   -11.271146    -1.515118    -1.140105    -1.076237    -0.862340    -0.691516    -0.675608

        11.1         12.1         13.1         14.1         15.1         16.1         17.1         18.1         19.1
     -0.636601    -0.623945    -0.623350    -0.555097    -0.534803    -0.428203    -0.406169     0.077514     0.084501


 **********************************************************************************************************************************
 DATASETS  * FILE   NREC   LENGTH (MB)   RECORD NAMES
              1      19      202.49       500      610      700      900      950      970     1000      129      960     1100   
                                          VAR    BASINP    GEOM    SYMINP    ZMAT    AOBASIS   BASIS     P2S    ABASIS      S 
                                         1400     1410     1200     1210     1080     1600     1650     1300     1700   
                                           T        V       H0       H01     AOSYM     SMH    MOLCAS    ERIS     OPER   

              2       3        0.72       700     1000     2100   
                                         GEOM     BASIS     RHF  

 PROGRAMS   *        TOTAL       RHF       INT
 CPU TIMES  *         5.86      4.09      1.73
 REAL TIME  *         6.91 SEC
 DISK USED  *       778.01 MB      
 GA USED    *         0.00 MB       (max)       0.00 MB       (current)
 **********************************************************************************************************************************


1PROGRAM * CCSD (Closed-shell coupled cluster)     Authors: C. Hampel, H.-J. Werner, 1991, M. Deegan, P.J. Knowles, 1992


 Convergence thresholds:  THRVAR = 1.00D-08  THRDEN = 1.00D-12

 CCSD(T)     terms to be evaluated (factor= 1.000)


 Number of core orbitals:           4 (   4 )
 Number of closed-shell orbitals:  13 (  13 )
 Number of external orbitals:     105 ( 105 )

 Molecular orbitals read from record     2100.2  Type=RHF/CANONICAL (state 1.1)

 Number of N-1 electron functions:              13
 Number of N-2 electron functions:              91
 Number of singly external CSFs:              1365
 Number of doubly external CSFs:            932295
 Total number of CSFs:                      933661

 Length of J-op  integral file:               0.00 MB
 Length of K-op  integral file:               1.06 MB
 Length of 3-ext integral record:             0.00 MB

 Memory could be reduced to 20.68 Mwords without degradation in triples

 Integral transformation finished. Total CPU:   0.98 sec, npass=  1  Memory used:  15.40 MW

 Reference energy:                   -225.06236923

 MP2 singlet pair energy:              -0.44860525
 MP2 triplet pair energy:              -0.26464687
 MP2 correlation energy:               -0.71325212
 MP2 total energy:                   -225.77562135

 SCS-MP2 correlation energy:           -0.70299546   (PS=  1.200000  PT=  0.333333)
 SCS-MP2 total energy:               -225.76536469

 ITER.      SQ.NORM     CORR.ENERGY   TOTAL ENERGY   ENERGY CHANGE        DEN1      VAR(S)    VAR(P)  DIIS     TIME
   1      1.24160242    -0.74723599  -225.80960522    -0.03398388    -0.01021884  0.52D-02  0.49D-02  1  1     3.19
   2      1.26338195    -0.75032304  -225.81269227    -0.00308705    -0.02110909  0.17D-03  0.87D-03  2  2     5.42
   3      1.27338578    -0.75102778  -225.81339701    -0.00070474    -0.00461114  0.12D-03  0.62D-04  3  3     7.65
   4      1.27753914    -0.75099323  -225.81336246     0.00003455    -0.00137288  0.11D-04  0.11D-04  4  4     9.88
   5      1.27919174    -0.75101123  -225.81338046    -0.00001800    -0.00036047  0.19D-05  0.17D-05  5  5    12.11
   6      1.27965132    -0.75098041  -225.81334963     0.00003083    -0.00005484  0.15D-06  0.33D-06  6  6    14.35
   7      1.27975173    -0.75097761  -225.81334684     0.00000279    -0.00000376  0.33D-07  0.86D-07  6  2    16.59
   8      1.27977543    -0.75097836  -225.81334759    -0.00000075    -0.00000032  0.43D-08  0.20D-07  6  1    18.82
   9      1.27977571    -0.75097774  -225.81334697     0.00000061     0.00000434  0.26D-08  0.32D-08  6  4    21.07
  10      1.27977803    -0.75097854  -225.81334776    -0.00000079    -0.00000121  0.52D-09  0.44D-09  6  3    23.31
  11      1.27977595    -0.75097874  -225.81334797    -0.00000021     0.00000043  0.17D-09  0.78D-10  6  5    25.55
  12      1.27977445    -0.75097882  -225.81334804    -0.00000007     0.00000032  0.39D-10  0.17D-10  6  6    27.79
  13      1.27977283    -0.75097894  -225.81334817    -0.00000012     0.00000040  0.56D-11  0.40D-11  6  1    30.05
  14      1.27977215    -0.75097895  -225.81334818    -0.00000001     0.00000018  0.13D-11  0.57D-12  6  2    32.29
  15      1.27977190    -0.75097896  -225.81334818    -0.00000001     0.00000005  0.26D-12  0.91D-13  6  4    34.53
  16      1.27977183    -0.75097896  -225.81334819    -0.00000000     0.00000001  0.10D-12  0.27D-13  6  3    36.77
  17      1.27977181    -0.75097896  -225.81334819     0.00000000    -0.00000000  0.43D-13  0.79D-14  6  6    39.01
  18      1.27977181    -0.75097896  -225.81334819    -0.00000000    -0.00000000  0.24D-13  0.31D-14  6  5    41.25
  19      1.27977181    -0.75097896  -225.81334819     0.00000000    -0.00000000  0.14D-13  0.16D-14  6  1    43.49
  20      1.27977181    -0.75097896  -225.81334819     0.00000000     0.00000000  0.70D-14  0.10D-14  6  2    45.73
  21      1.27977181    -0.75097896  -225.81334819     0.00000000     0.00000000  0.18D-14  0.50D-15  6  3    47.97
  22      1.27977181    -0.75097896  -225.81334819     0.00000000    -0.00000000  0.24D-15  0.12D-15  6  4    50.21
  23      1.27977181    -0.75097896  -225.81334819    -0.00000000    -0.00000000  0.40D-16  0.34D-16  6  5    52.45
  24      1.27977181    -0.75097896  -225.81334819    -0.00000000    -0.00000000  0.95D-17  0.82D-17  6  1    54.68
  25      1.27977181    -0.75097896  -225.81334819     0.00000000    -0.00000000  0.92D-18  0.11D-17  6  6    56.92

 Norm of t1 vector:      0.11114484      S-energy:    -0.00000000      T1 diagnostic:  0.01541302
                                                                       D1 diagnostic:  0.04945074

 Doubles amplitudes (print threshold =  0.500E-01):

         I         J         SYM. A    SYM. B    A         B      T(IJ, AB)

        11        11         1         1         2         2     -0.05778414


 Total CPU time for triples:     32.28 sec


 RESULTS
 =======

  Reference energy                   -225.062369227815
  CCSD singlet pair energy             -0.516902448518
  CCSD triplet pair energy             -0.234076511960
  CCSD correlation energy              -0.750978960480

  Triples (T) contribution             -0.026302130823
  Total correlation energy             -0.777281091303

  CCSD total energy                  -225.813348188294
  CCSD[T] energy                     -225.841258284055
  CCSD-T energy                      -225.839158403764
 !CCSD(T) total energy               -225.839650319117

 Timing summary (sec):

 STEP                 CPU(USER)    SYS     CPU(TOT)    WALL
 Transformation          1.02      0.11      1.13      1.14
 CCSD iterations        55.90      1.60     57.50     57.54
 Triples                32.28      0.77     33.05     33.07

 Program statistics:

 Available memory in ccsd:               999999224
 Min. memory needed in ccsd:               2510565
 Max. memory used in ccsd:                 3320127
 Max. memory used in cckext:               2903072 (25 integral passes)



 **********************************************************************************************************************************
 DATASETS  * FILE   NREC   LENGTH (MB)   RECORD NAMES
              1      20      279.89       500      610      700      900      950      970     1000      129      960     1100   
                                          VAR    BASINP    GEOM    SYMINP    ZMAT    AOBASIS   BASIS     P2S    ABASIS      S 
                                         1400     1410     1200     1210     1080     1600     1650     1300     1700     1380   
                                           T        V       H0       H01     AOSYM     SMH    MOLCAS    ERIS     OPER     JKOP   

              2       3        0.72       700     1000     2100   
                                         GEOM     BASIS     RHF  

 PROGRAMS   *        TOTAL   CCSD(T)       RHF       INT
 CPU TIMES  *        95.07     89.21      4.09      1.73
 REAL TIME  *        98.69 SEC
 DISK USED  *       778.01 MB      
 GA USED    *         0.00 MB       (max)       0.00 MB       (current)
 **********************************************************************************************************************************

        CCSD(T)         RHF-SCF 
   -225.83965032   -225.06236923
 **********************************************************************************************************************************
 Variable memory released
