
 Primary working directories    : /tmp/1049102.303.gen6.q
 Secondary working directories  : /tmp/1049102.303.gen6.q
 Wavefunction directory         : /home/vulcan/mel64643/wfu/
 Main file repository           : /tmp/1049102.303.gen6.q/

 ARCHNAME  : Linux/x86_64
 FC        : /opt/intel/compilers_and_libraries_2016.1.150/linux/bin/intel64/ifort
 FCVERSION : 16.0.1
 BLASLIB   : -mkl
 id        : ccgc

 Nodes     nprocs
 n087         1
 ga_uses_ma=false, calling ma_init with nominal heap.
 GA-space will be limited to   8.0 MW (determined by -G option)

 Using customized tuning parameters: mindgm=10; mindgv=16; mindgc=4; mindgr=1; noblas=0; mincuda=1000; minvec=7
 default implementation of scratch files=df  

 ***,Optimization of h2o_3
 memory,1000,m
 gthresh,energy=1.0d-12,orbital=1.0d-10,oneint=1.0d-16,twoint=1.0d-16,optgrad=1.0d-6,compress=1.0d-13
 geomtyp=xyz
 
 
 
 bohr
 geometry = {
  C    0.9160711686    1.4082971253   -2.2736254344
  C    0.7377473621    2.7065471168    0.0208139943
  C    0.9998515792    1.4037265988    2.2989719404
  C    1.4297116231   -1.1989326161    2.2943932830
  C    1.6105114034   -2.5065549616    0.0057426740
  C    1.3482245361   -1.2035178852   -2.2837576060
  H    0.7104238391    2.4211407396   -4.0418107269
  H    0.3814387479    4.7231376377    0.0301363908
  H    0.8628569730    2.4144575985    4.0752300511
  H    1.6227330168   -2.2070921418    4.0670888234
  H    1.9494487308   -4.5266371230    0.0031430721
  H    1.4781156252   -2.2148615757   -4.0604867747
  N   -5.4427897063   -0.3563334830   -0.0708646797
  H   -5.5918725917   -1.5676776208   -1.5513084102
  H   -6.0695280905   -1.3143037103    1.4688211865
  H   -3.5620123497   -0.0731852973    0.1975898934
 }
 
 basis=aug-cc-pvdz, H=cc-pvdz
 {rhf;maxit,200}
 {ccsd(t)}

 Variables initialized (661), CPU time= 0.00 sec
 Commands  initialized (458), CPU time= 0.01 sec, 486 directives.
 Default parameters read. Elapsed time= 0.04 sec

 Checking input...
 Passed
1


                                         ***  PROGRAM SYSTEM MOLPRO  ***
                         Copyright, University College Cardiff Consultants Limited, 2008

                                    Version 2010.1 linked May 16 2016 07:17:05


 **********************************************************************************************************************************
 LABEL *   Optimization of h2o_3                                                         
 Linux-4.4.3/n087(x86_64) 64 bit mpp version                                             DATE: 19-Mar-24          TIME: 00:00:22  
 **********************************************************************************************************************************

 SHA1:             9e8077add272b0f3cad6f7df79ec5211205f459d
 **********************************************************************************************************************************

 THRESHOLDS:

 ZERO    =  1.00D-12  ONEINT  =  1.00D-16  TWOINT  =  1.00D-16  PREFAC  =  1.00D-14  LOCALI  =  1.00D-09  EORDER  =  1.00D-04
 ENERGY  =  1.00D-12  ETEST   =  0.00D+00  EDENS   =  0.00D+00  THRDEDEF=  1.00D-06  GRADIENT=  1.00D-02  STEP    =  1.00D-03
 ORBITAL =  1.00D-10  CIVEC   =  1.00D-05  COEFF   =  1.00D-04  PRINTCI =  5.00D-02  PUNCHCI =  9.90D+01  OPTGRAD =  1.00D-06
 OPTENERG=  1.00D-06  OPTSTEP =  3.00D-04  THRGRAD =  1.00D-10  COMPRESS=  1.00D-13  VARMIN  =  1.00D-07  VARMAX  =  1.00D-03
 THRDOUB =  0.00D+00  THRDIV  =  1.00D-05  THRRED  =  1.00D-07  THRPSP  =  1.00D+00  THRDC   =  1.00D-10  THRCS   =  1.00D-10
 THRNRM  =  1.00D-08  THREQ   =  0.00D+00  THRDE   =  1.00D+00  THRREF  =  1.00D-05  SPARFAC =  1.00D+00  THRDLP  =  1.00D-07
 THRDIA  =  1.00D-10  THRDLS  =  1.00D-07  THRGPS  =  0.00D+00  THRKEX  =  0.00D+00  THRDIS  =  2.00D-01  THRVAR  =  1.00D-10
 THRLOC  =  1.00D-06  THRGAP  =  1.00D-06  THRLOCT = -1.00D+00  THRGAPT = -1.00D+00  THRORB  =  1.00D-06  THRMLTP =  0.00D+00
 THRCPQCI=  1.00D-10  KEXTA   =  0.00D+00  THRCOARS=  0.00D+00  SYMTOL  =  1.00D-06  GRADTOL =  1.00D-06  THROVL  =  1.00D-08
 THRORTH =  1.00D-08  GRID    =  1.00D-06  GRIDMAX =  1.00D-03  DTMAX   =  0.00D+00

 SETTING GEOMTYP        =    XYZ
 ZUNIT=BOHR
 

 Variable memory set to 1000000000 words,  buffer space   230000 words

 SETTING BASIS          =    AUG-CC-PVDZ,H=CC-PVDZ


 Recomputing integrals since basis changed


 Using spherical harmonics

 Library entry C      S aug-cc-pVDZ          selected for orbital group  1
 Library entry C      P aug-cc-pVDZ          selected for orbital group  1
 Library entry C      D aug-cc-pVDZ          selected for orbital group  1
 Library entry H      S cc-pVDZ              selected for orbital group  2
 Library entry H      P cc-pVDZ              selected for orbital group  2
 Library entry N      S aug-cc-pVDZ          selected for orbital group  3
 Library entry N      P aug-cc-pVDZ          selected for orbital group  3
 Library entry N      D aug-cc-pVDZ          selected for orbital group  3

1PROGRAM * SEWARD (Integral evaluation for generally contracted gaussian basis sets)     Author: Roland Lindh, 1990

 Geometry written to block  1 of record 700


 Point group  C1  



 ATOMIC COORDINATES

 NR  ATOM    CHARGE       X              Y              Z

   1  C       6.00    0.916071169    1.408297125   -2.273625434
   2  C       6.00    0.737747362    2.706547117    0.020813994
   3  C       6.00    0.999851579    1.403726599    2.298971940
   4  C       6.00    1.429711623   -1.198932616    2.294393283
   5  C       6.00    1.610511403   -2.506554962    0.005742674
   6  C       6.00    1.348224536   -1.203517885   -2.283757606
   7  H       1.00    0.710423839    2.421140740   -4.041810727
   8  H       1.00    0.381438748    4.723137638    0.030136391
   9  H       1.00    0.862856973    2.414457598    4.075230051
  10  H       1.00    1.622733017   -2.207092142    4.067088823
  11  H       1.00    1.949448731   -4.526637123    0.003143072
  12  H       1.00    1.478115625   -2.214861576   -4.060486775
  13  N       7.00   -5.442789706   -0.356333483   -0.070864680
  14  H       1.00   -5.591872592   -1.567677621   -1.551308410
  15  H       1.00   -6.069528091   -1.314303710    1.468821187
  16  H       1.00   -3.562012350   -0.073185297    0.197589893

 Bond lengths in Bohr (Angstrom)

 1-2  2.642291565  1-6  2.647345244  1-7  2.048077694  2-3  2.637431241  2-8  2.047847666
     ( 1.398240476)     ( 1.400914768)     ( 1.083796038)     ( 1.395668503)     ( 1.083674313)

  3- 4  2.637922594   3- 9  2.048276727   4- 5  2.642061008   4-10  2.048436566   5- 6  2.647359355
       ( 1.395928516)       ( 1.083901362)       ( 1.398118470)       ( 1.083985945)       ( 1.400922235)

  5-11  2.048320582   6-12  2.048524907  13-14  1.918669843  13-15  1.918629856  13-16  1.920823838
       ( 1.083924569)       ( 1.084032693)       ( 1.015316352)       ( 1.015295192)       ( 1.016456198)

 Bond angles

  1- 2- 3  120.04309226   1- 2- 8  119.96896464   1- 6- 5  119.89815048   1- 6-12  120.04882558

  2-1-6  119.93921008   2-1-7  119.99497323   2-3-4  120.13669852   2-3-9  119.91178961

  3- 2- 8  119.98626820   3- 4- 5  120.06377957   3- 4-10  119.96257544   4- 3- 9  119.95118098

  4- 5- 6  119.91794983   4- 5-11  120.03472499   5- 4-10  119.97364028   5- 6-12  120.05300936

  6- 1- 7  120.06507585   6- 5-11  120.04721104  14-13-15  106.17607583  14-13-16  106.08043224

 15-13-16  106.33745550

 NUCLEAR CHARGE:                   52
 NUMBER OF PRIMITIVE AOS:         322
 NUMBER OF SYMMETRY AOS:          308
 NUMBER OF CONTRACTIONS:          206   ( 206A   )
 NUMBER OF CORE ORBITALS:           7   (   7A   )
 NUMBER OF VALENCE ORBITALS:       37   (  37A   )


 NUCLEAR REPULSION ENERGY  273.71145727


 Eigenvalues of metric

         1 0.863E-05 0.184E-04 0.228E-04 0.532E-04 0.643E-04 0.644E-04 0.107E-03 0.107E-03


 Contracted 2-electron integrals neglected if value below      1.0D-16
 AO integral compression algorithm  1   Integral accuracy      1.0D-16

     1893.204 MB (compressed) written to integral file ( 94.6%)

     Node minimum: 1893.204 MB, node maximum: 1893.204 MB


 NUMBER OF SORTED TWO-ELECTRON INTEGRALS:  227303181.     BUFFER LENGTH:  32768
 NUMBER OF SEGMENTS:  15  SEGMENT LENGTH:   15999503      RECORD LENGTH: 524288

 Memory used in sort:      16.56 MW

 SORT1 READ   250230346. AND WROTE   226408969. INTEGRALS IN    654 RECORDS. CPU TIME:     2.15 SEC, REAL TIME:     3.40 SEC
 SORT2 READ   226408969. AND WROTE   227303181. INTEGRALS IN   7222 RECORDS. CPU TIME:     1.33 SEC, REAL TIME:     2.18 SEC

 FILE SIZES:   FILE 1:  1743.8 MBYTE,  FILE 4:  2743.1 MBYTE,   TOTAL:   4486.9 MBYTE

 OPERATOR DM      FOR CENTER  0  COORDINATES:    0.000000    0.000000    0.000000


 **********************************************************************************************************************************
 DATASETS  * FILE   NREC   LENGTH (MB)   RECORD NAMES
              1      19     1744.29       500      610      700      900      950      970     1000      129      960     1100   
                                          VAR    BASINP    GEOM    SYMINP    ZMAT    AOBASIS   BASIS     P2S    ABASIS      S 
                                         1400     1410     1200     1210     1080     1600     1650     1300     1700   
                                           T        V       H0       H01     AOSYM     SMH    MOLCAS    ERIS     OPER   

 PROGRAMS   *        TOTAL       INT
 CPU TIMES  *        12.26     12.22
 REAL TIME  *        15.36 SEC
 DISK USED  *         6.38 GB      
 GA USED    *         0.01 MB       (max)       0.00 MB       (current)
 **********************************************************************************************************************************

1PROGRAM * RHF-SCF (CLOSED SHELL)       Authors: W. Meyer, H.-J. Werner


 NUMBER OF ELECTRONS:      26+   26-    SPACE SYMMETRY=1    SPIN SYMMETRY: Singlet 
 CONVERGENCE THRESHOLDS:    1.00E-10 (Density)    1.00E-13 (Energy)
 MAX. NUMBER OF ITERATIONS:      200
 INTERPOLATION TYPE:            DIIS
 INTERPOLATION STEPS:              2 (START)      1 (STEP)
 LEVEL SHIFTS:                  0.00 (CLOSED)  0.00 (OPEN) 



 Orbital guess generated from atomic densities. Full valence occupancy:   44

 Molecular orbital dump at record        2100.2

 ITERATION    DDIFF          GRAD             ENERGY        2-EL.EN.            DIPOLE MOMENTS         DIIS
    1      0.000D+00      0.000D+00      -286.85321110    740.885366    0.51979   -0.77226    0.12880    0
    2      0.000D+00      0.322D-02      -286.92076757    735.094521    0.43449   -0.38045    0.06936    1
    3      0.827D-02      0.133D-02      -286.93009952    737.726497    0.45171   -0.52450    0.08955    2
    4      0.218D-02      0.381D-03      -286.93131823    737.206961    0.44997   -0.49525    0.08627    3
    5      0.784D-03      0.530D-04      -286.93134221    737.195499    0.45595   -0.50664    0.08787    4
    6      0.135D-03      0.181D-04      -286.93134473    737.210340    0.45475   -0.50056    0.08702    5
    7      0.513D-04      0.558D-05      -286.93134501    737.207419    0.45541   -0.50290    0.08737    6
    8      0.152D-04      0.130D-05      -286.93134503    737.206373    0.45556   -0.50253    0.08731    7
    9      0.417D-05      0.540D-06      -286.93134503    737.206835    0.45559   -0.50262    0.08732    7
   10      0.148D-05      0.142D-06      -286.93134503    737.206784    0.45560   -0.50263    0.08732    7
   11      0.511D-06      0.403D-07      -286.93134503    737.206770    0.45561   -0.50262    0.08732    7
   12      0.138D-06      0.169D-07      -286.93134503    737.206784    0.45560   -0.50263    0.08732    8
   13      0.582D-07      0.725D-08      -286.93134503    737.206779    0.45560   -0.50263    0.08732    8
   14      0.311D-07      0.348D-08      -286.93134503    737.206781    0.45560   -0.50263    0.08732    8
   15      0.189D-07      0.135D-08      -286.93134503    737.206780    0.45560   -0.50263    0.08732    8
   16      0.700D-08      0.455D-09      -286.93134503    737.206780    0.45560   -0.50263    0.08732    9
   17      0.213D-08      0.127D-09      -286.93134503    737.206780    0.45560   -0.50263    0.08732    9
   18      0.405D-09      0.384D-10      -286.93134503    737.206780    0.45560   -0.50263    0.08732    9
   19      0.226D-09      0.157D-10      -286.93134503    737.206780    0.45560   -0.50263    0.08732    9
   20      0.164D-09      0.837D-11      -286.93134503    737.206780    0.45560   -0.50263    0.08732    9
   21      0.117D-09      0.416D-11      -286.93134503    737.206780    0.45560   -0.50263    0.08732    9
   22      0.198D-09      0.122D-11      -286.93134503    737.206780    0.45560   -0.50263    0.08732    9
   23      0.119D-09      0.681D-12      -286.93134503    737.206780    0.45560   -0.50263    0.08732    9
   24      0.901D-10      0.537D-12      -286.93134503    737.206780    0.45560   -0.50263    0.08732    9
   25      0.506D-10      0.544D-12      -286.93134503    737.206780    0.45560   -0.50263    0.08732    9
   26      0.470D-10      0.478D-12      -286.93134503    737.206780    0.45560   -0.50263    0.08732    9
   27      0.287D-10      0.494D-12      -286.93134503    737.206780    0.45560   -0.50263    0.08732    9
   28      0.222D-10      0.480D-12      -286.93134503    737.206780    0.45560   -0.50263    0.08732    9
   29      0.164D-10      0.371D-12      -286.93134503    737.206780    0.45560   -0.50263    0.08732    9
   30      0.127D-10      0.478D-12      -286.93134503    737.206780    0.45560   -0.50263    0.08732    9
   31      0.102D-10      0.473D-12      -286.93134503    737.206780    0.45560   -0.50263    0.08732    9
   32      0.102D-10      0.544D-12      -286.93134503    737.206780    0.45560   -0.50263    0.08732    9
   33      0.109D-10      0.395D-12      -286.93134503    737.206780    0.45560   -0.50263    0.08732    9
   34      0.772D-11      0.416D-12      -286.93134503    737.206780    0.45560   -0.50263    0.08732    9
   35      0.187D-10      0.472D-12      -286.93134503    737.206780    0.45560   -0.50263    0.08732    9
   36      0.178D-10      0.426D-12      -286.93134503    737.206780    0.45560   -0.50263    0.08732    9
   37      0.142D-10      0.393D-12      -286.93134503    737.206780    0.45560   -0.50263    0.08732    9
   38      0.111D-10      0.423D-12      -286.93134503    737.206780    0.45560   -0.50263    0.08732    9
   39      0.178D-10      0.399D-12      -286.93134503    737.206780    0.45560   -0.50263    0.08732    9
   40      0.142D-10      0.520D-12      -286.93134503    737.206780    0.45560   -0.50263    0.08732    9
   41      0.145D-10      0.574D-12      -286.93134503    737.206780    0.45560   -0.50263    0.08732    9
   42      0.127D-10      0.455D-12      -286.93134503    737.206780    0.45560   -0.50263    0.08732    9
   43      0.835D-11      0.528D-12      -286.93134503    737.206780    0.45560   -0.50263    0.08732    9
   44      0.147D-10      0.471D-12      -286.93134503    737.206780    0.45560   -0.50263    0.08732    9
   45      0.174D-10      0.425D-12      -286.93134503    737.206780    0.45560   -0.50263    0.08732    9
   46      0.215D-10      0.444D-12      -286.93134503    737.206780    0.45560   -0.50263    0.08732    9
   47      0.205D-10      0.467D-12      -286.93134503    737.206780    0.45560   -0.50263    0.08732    9
   48      0.155D-10      0.456D-12      -286.93134503    737.206780    0.45560   -0.50263    0.08732    9
   49      0.245D-10      0.450D-12      -286.93134503    737.206780    0.45560   -0.50263    0.08732    9
   50      0.166D-10      0.484D-12      -286.93134503    737.206780    0.45560   -0.50263    0.08732    9
   51      0.212D-10      0.467D-12      -286.93134503    737.206780    0.45560   -0.50263    0.08732    9
   52      0.103D-10      0.472D-12      -286.93134503    737.206780    0.45560   -0.50263    0.08732    9
   53      0.147D-10      0.464D-12      -286.93134503    737.206780    0.45560   -0.50263    0.08732    9
   54      0.196D-10      0.395D-12      -286.93134503    737.206780    0.45560   -0.50263    0.08732    9
   55      0.168D-10      0.445D-12      -286.93134503    737.206780    0.45560   -0.50263    0.08732    9
   56      0.138D-10      0.465D-12      -286.93134503    737.206780    0.45560   -0.50263    0.08732    9
   57      0.173D-10      0.468D-12      -286.93134503    737.206780    0.45560   -0.50263    0.08732    9
   58      0.178D-10      0.410D-12      -286.93134503    737.206780    0.45560   -0.50263    0.08732    9
   59      0.233D-10      0.405D-12      -286.93134503    737.206780    0.45560   -0.50263    0.08732    9
   60      0.183D-10      0.517D-12      -286.93134503    737.206780    0.45560   -0.50263    0.08732    9
   61      0.186D-10      0.464D-12      -286.93134503    737.206780    0.45560   -0.50263    0.08732    9
   62      0.151D-10      0.499D-12      -286.93134503    737.206780    0.45560   -0.50263    0.08732    0

 Final occupancy:  26

 !RHF STATE 1.1 Energy               -286.931345029837
 Nuclear energy                       273.71145727
 One-electron energy                 -929.24619227
 Two-electron energy                  368.60338997
 Virial quotient                       -1.00146482
 !RHF STATE 1.1 Dipole moment           0.45560438    -0.50262548     0.08732202
 Dipole moment /Debye                   1.15795497    -1.27746286     0.22193590

 Orbital energies:

         1.1          2.1          3.1          4.1          5.1          6.1          7.1          8.1          9.1         10.1
    -15.535008   -11.250923   -11.250109   -11.249568   -11.248968   -11.248493   -11.247554    -1.157511    -1.125562    -1.022049

        11.1         12.1         13.1         14.1         15.1         16.1         17.1         18.1         19.1         20.1
     -1.021951    -0.830635    -0.830541    -0.714503    -0.650455    -0.623919    -0.611687    -0.609822    -0.593578    -0.593454

        21.1         22.1         23.1         24.1         25.1         26.1         27.1         28.1
     -0.504900    -0.500099    -0.500020    -0.413440    -0.342969    -0.341987     0.063896     0.066422


 **********************************************************************************************************************************
 DATASETS  * FILE   NREC   LENGTH (MB)   RECORD NAMES
              1      19     1744.29       500      610      700      900      950      970     1000      129      960     1100   
                                          VAR    BASINP    GEOM    SYMINP    ZMAT    AOBASIS   BASIS     P2S    ABASIS      S 
                                         1400     1410     1200     1210     1080     1600     1650     1300     1700   
                                           T        V       H0       H01     AOSYM     SMH    MOLCAS    ERIS     OPER   

              2       3        1.40       700     1000     2100   
                                         GEOM     BASIS     RHF  

 PROGRAMS   *        TOTAL       RHF       INT
 CPU TIMES  *        92.43     80.17     12.22
 REAL TIME  *       105.07 SEC
 DISK USED  *         6.38 GB      
 GA USED    *         0.01 MB       (max)       0.00 MB       (current)
 **********************************************************************************************************************************


1PROGRAM * CCSD (Closed-shell coupled cluster)     Authors: C. Hampel, H.-J. Werner, 1991, M. Deegan, P.J. Knowles, 1992


 Convergence thresholds:  THRVAR = 1.00D-08  THRDEN = 1.00D-12

 CCSD(T)     terms to be evaluated (factor= 1.000)


 Number of core orbitals:           7 (   7 )
 Number of closed-shell orbitals:  19 (  19 )
 Number of external orbitals:     180 ( 180 )

 Molecular orbitals read from record     2100.2  Type=RHF/CANONICAL (state 1.1)

 Number of N-1 electron functions:              19
 Number of N-2 electron functions:             190
 Number of singly external CSFs:              3420
 Number of doubly external CSFs:           5849910
 Total number of CSFs:                     5853331

 Length of J-op  integral file:               0.00 MB
 Length of K-op  integral file:               2.96 MB
 Length of 3-ext integral record:             0.00 MB

 Memory could be reduced to 140.12 Mwords without degradation in triples

 Integral transformation finished. Total CPU:  10.29 sec, npass=  1  Memory used: 101.90 MW

 Reference energy:                   -286.93134503

 MP2 singlet pair energy:              -0.62063298
 MP2 triplet pair energy:              -0.38983488
 MP2 correlation energy:               -1.01046785
 MP2 total energy:                   -287.94181288

 SCS-MP2 correlation energy:           -0.98732350   (PS=  1.200000  PT=  0.333333)
 SCS-MP2 total energy:               -287.91866852

 ITER.      SQ.NORM     CORR.ENERGY   TOTAL ENERGY   ENERGY CHANGE        DEN1      VAR(S)    VAR(P)  DIIS     TIME
   1      1.38488329    -1.05475974  -287.98610477    -0.04429188    -0.01721304  0.36D-02  0.80D-02  1  1    42.57
   2      1.41439639    -1.06062238  -287.99196741    -0.00586264    -0.02705304  0.63D-04  0.10D-02  2  2    75.07
   3      1.42352774    -1.06071813  -287.99206316    -0.00009575    -0.00464355  0.27D-04  0.84D-04  3  3   107.64
   4      1.42746524    -1.06088688  -287.99223191    -0.00016875    -0.00121418  0.22D-05  0.11D-04  4  4   140.20
   5      1.42867895    -1.06091784  -287.99226287    -0.00003095    -0.00027322  0.27D-06  0.13D-05  5  5   172.76
   6      1.42898156    -1.06090760  -287.99225263     0.00001024    -0.00004349  0.23D-07  0.79D-07  6  6   205.36
   7      1.42902231    -1.06090923  -287.99225426    -0.00000163    -0.00000103  0.35D-08  0.82D-08  6  2   237.92
   8      1.42903150    -1.06090909  -287.99225412     0.00000014    -0.00000117  0.76D-09  0.76D-09  6  1   270.52
   9      1.42903133    -1.06090922  -287.99225425    -0.00000014     0.00000123  0.21D-09  0.92D-10  6  4   303.08
  10      1.42903253    -1.06090924  -287.99225426    -0.00000001    -0.00000018  0.57D-10  0.15D-10  6  3   335.66
  11      1.42903247    -1.06090925  -287.99225428    -0.00000002     0.00000013  0.14D-10  0.37D-11  6  5   368.25
  12      1.42903243    -1.06090925  -287.99225428    -0.00000000     0.00000003  0.15D-11  0.10D-11  6  6   400.82
  13      1.42903225    -1.06090926  -287.99225429    -0.00000000     0.00000006  0.69D-13  0.20D-12  6  2   433.39
  14      1.42903215    -1.06090926  -287.99225429    -0.00000000     0.00000003  0.81D-14  0.40D-13  6  1   466.00
  15      1.42903209    -1.06090926  -287.99225429    -0.00000000     0.00000001  0.89D-15  0.54D-14  6  3   498.58
  16      1.42903207    -1.06090926  -287.99225429    -0.00000000     0.00000000  0.12D-15  0.37D-15  6  4   531.19
  17      1.42903207    -1.06090926  -287.99225429    -0.00000000     0.00000000  0.31D-16  0.44D-16  6  5   563.77
  18      1.42903207    -1.06090926  -287.99225429    -0.00000000     0.00000000  0.83D-17  0.71D-17  6  6   596.37
  19      1.42903207    -1.06090926  -287.99225429    -0.00000000     0.00000000  0.24D-17  0.78D-18  6  2   628.92
  20      1.42903207    -1.06090926  -287.99225429    -0.00000000     0.00000000  0.78D-18  0.19D-18  6  1   661.53
  21      1.42903207    -1.06090926  -287.99225429    -0.00000000     0.00000000  0.30D-18  0.78D-19  6  3   694.10
  22      1.42903207    -1.06090926  -287.99225429    -0.00000000     0.00000000  0.12D-18  0.38D-19  6  4   726.74
  23      1.42903207    -1.06090926  -287.99225429    -0.00000000     0.00000000  0.50D-19  0.20D-19  6  6   759.33

 Norm of t1 vector:      0.08385827      S-energy:    -0.00000000      T1 diagnostic:  0.00961920
                                                                       D1 diagnostic:  0.02620059

 Doubles amplitudes (print threshold =  0.500E-01):

         I         J         SYM. A    SYM. B    A         B      T(IJ, AB)

        18        18         1         1         6         6     -0.05097495
        19        19         1         1         7         7     -0.05438282


 Total CPU time for triples:    638.80 sec


 RESULTS
 =======

  Reference energy                   -286.931345029837
  CCSD singlet pair energy             -0.711157301084
  CCSD triplet pair energy             -0.349751958065
  CCSD correlation energy              -1.060909259150

  Triples (T) contribution             -0.045603141228
  Total correlation energy             -1.106512400378

  CCSD total energy                  -287.992254288987
  CCSD[T] energy                     -288.038727668406
  CCSD-T energy                      -288.037468876973
 !CCSD(T) total energy               -288.037857430216

 Timing summary (sec):

 STEP                 CPU(USER)    SYS     CPU(TOT)    WALL
 Transformation         10.63      0.76     11.39     11.40
 CCSD iterations       748.72     11.69    760.41    760.71
 Triples               638.80     10.38    649.18    649.29

 Program statistics:

 Available memory in ccsd:               999998456
 Min. memory needed in ccsd:              14392275
 Max. memory used in ccsd:                19775697
 Max. memory used in cckext:              16737545 (23 integral passes)



 **********************************************************************************************************************************
 DATASETS  * FILE   NREC   LENGTH (MB)   RECORD NAMES
              1      20     2287.89       500      610      700      900      950      970     1000      129      960     1100   
                                          VAR    BASINP    GEOM    SYMINP    ZMAT    AOBASIS   BASIS     P2S    ABASIS      S 
                                         1400     1410     1200     1210     1080     1600     1650     1300     1700     1380   
                                           T        V       H0       H01     AOSYM     SMH    MOLCAS    ERIS     OPER     JKOP   

              2       3        1.40       700     1000     2100   
                                         GEOM     BASIS     RHF  

 PROGRAMS   *        TOTAL   CCSD(T)       RHF       INT
 CPU TIMES  *      1490.60   1398.17     80.17     12.22
 REAL TIME  *      1526.57 SEC
 DISK USED  *         6.38 GB      
 GA USED    *         0.01 MB       (max)       0.00 MB       (current)
 **********************************************************************************************************************************

        CCSD(T)         RHF-SCF 
   -288.03785743   -286.93134503
 **********************************************************************************************************************************
 Variable memory released
