
 Primary working directories    : /tmp/1059987.1308.gen4.q
 Secondary working directories  : /tmp/1059987.1308.gen4.q
 Wavefunction directory         : /home/vulcan/jj04645/wfu/
 Main file repository           : /tmp/1059987.1308.gen4.q/

 ARCHNAME  : Linux/x86_64
 FC        : /opt/intel/compilers_and_libraries_2016.1.150/linux/bin/intel64/ifort
 FCVERSION : 16.0.1
 BLASLIB   : -mkl
 id        : ccgc

 Nodes     nprocs
 n065         1
 ga_uses_ma=false, calling ma_init with nominal heap.
 GA-space will be limited to   8.0 MW (determined by -G option)

 Using customized tuning parameters: mindgm=10; mindgv=16; mindgc=4; mindgr=1; noblas=0; mincuda=1000; minvec=7
 default implementation of scratch files=df  

 ***,Optimization of 1_4_cyclohexadiene
 memory,1000,m
 gthresh,energy=1.0d-12,orbital=1.0d-10,oneint=1.0d-16,twoint=1.0d-16,optgrad=1.0d-6,compress=1.0d-13
 geomtyp=xyz
 
 bohr
 geometry = {
  H    4.1020524095    0.0048575856   -1.6462925829
  C    2.8410747471   -0.0000000000   -0.0000000000
  C   -1.2651147779    2.3673534774    0.0009009577
  C   -1.2651147779   -2.3673534774   -0.0009009577
  C   -2.8410888479   -0.0000000000    0.0000000000
  C    1.2651006967   -2.3673433660   -0.0069851334
  C    1.2651006967    2.3673433660    0.0069851334
  H   -2.2683794481    4.1560782631   -0.0139487132
  H    2.2684146765    4.1561021085    0.0072843882
  H   -4.1020665062    0.0006265420   -1.6462996333
  H    2.2684146765   -4.1561021085   -0.0072843882
  H   -2.2683794481   -4.1560782631    0.0139487132
  H    4.1020524095   -0.0048575856    1.6462925829
  H   -4.1020665062   -0.0006265420    1.6462996333
 }
 
 basis=VDZ
 {rhf;maxit,200}
 {ccsd(t);maxit,200}

 Variables initialized (661), CPU time= 0.01 sec
 Commands  initialized (458), CPU time= 0.00 sec, 486 directives.
 Default parameters read. Elapsed time= 0.05 sec

 Checking input...
 Passed
1


                                         ***  PROGRAM SYSTEM MOLPRO  ***
                         Copyright, University College Cardiff Consultants Limited, 2008

                                    Version 2010.1 linked May 16 2016 07:17:05


 **********************************************************************************************************************************
 LABEL *   Optimization of 1_4_cyclohexadiene                                            
 Linux-4.4.3/n065(x86_64) 64 bit mpp version                                             DATE: 06-May-24          TIME: 17:04:07  
 **********************************************************************************************************************************

 SHA1:             9e8077add272b0f3cad6f7df79ec5211205f459d
 **********************************************************************************************************************************

 THRESHOLDS:

 ZERO    =  1.00D-12  ONEINT  =  1.00D-16  TWOINT  =  1.00D-16  PREFAC  =  1.00D-14  LOCALI  =  1.00D-09  EORDER  =  1.00D-04
 ENERGY  =  1.00D-12  ETEST   =  0.00D+00  EDENS   =  0.00D+00  THRDEDEF=  1.00D-06  GRADIENT=  1.00D-02  STEP    =  1.00D-03
 ORBITAL =  1.00D-10  CIVEC   =  1.00D-05  COEFF   =  1.00D-04  PRINTCI =  5.00D-02  PUNCHCI =  9.90D+01  OPTGRAD =  1.00D-06
 OPTENERG=  1.00D-06  OPTSTEP =  3.00D-04  THRGRAD =  1.00D-10  COMPRESS=  1.00D-13  VARMIN  =  1.00D-07  VARMAX  =  1.00D-03
 THRDOUB =  0.00D+00  THRDIV  =  1.00D-05  THRRED  =  1.00D-07  THRPSP  =  1.00D+00  THRDC   =  1.00D-10  THRCS   =  1.00D-10
 THRNRM  =  1.00D-08  THREQ   =  0.00D+00  THRDE   =  1.00D+00  THRREF  =  1.00D-05  SPARFAC =  1.00D+00  THRDLP  =  1.00D-07
 THRDIA  =  1.00D-10  THRDLS  =  1.00D-07  THRGPS  =  0.00D+00  THRKEX  =  0.00D+00  THRDIS  =  2.00D-01  THRVAR  =  1.00D-10
 THRLOC  =  1.00D-06  THRGAP  =  1.00D-06  THRLOCT = -1.00D+00  THRGAPT = -1.00D+00  THRORB  =  1.00D-06  THRMLTP =  0.00D+00
 THRCPQCI=  1.00D-10  KEXTA   =  0.00D+00  THRCOARS=  0.00D+00  SYMTOL  =  1.00D-06  GRADTOL =  1.00D-06  THROVL  =  1.00D-08
 THRORTH =  1.00D-08  GRID    =  1.00D-06  GRIDMAX =  1.00D-03  DTMAX   =  0.00D+00

 SETTING GEOMTYP        =    XYZ
 ZUNIT=BOHR
 

 Variable memory set to 1000000000 words,  buffer space   230000 words

 SETTING BASIS          =    VDZ


 Recomputing integrals since basis changed


 Using spherical harmonics

 Library entry H      S cc-pVDZ              selected for orbital group  1
 Library entry H      P cc-pVDZ              selected for orbital group  1
 Library entry C      S cc-pVDZ              selected for orbital group  2
 Library entry C      P cc-pVDZ              selected for orbital group  2
 Library entry C      D cc-pVDZ              selected for orbital group  2

1PROGRAM * SEWARD (Integral evaluation for generally contracted gaussian basis sets)     Author: Roland Lindh, 1990

 Geometry written to block  1 of record 700


 Point group  C2  



 ATOMIC COORDINATES

 NR  ATOM    CHARGE       X              Y              Z

   1  H       1.00    4.102052409    0.004857586   -1.646292583
   2  H       1.00    4.102052409   -0.004857586    1.646292583
   3  C       6.00    2.841074747    0.000000000    0.000000000
   4  C       6.00   -1.265114778    2.367353477    0.000900958
   5  C       6.00   -1.265114778   -2.367353477   -0.000900958
   6  C       6.00   -2.841088848    0.000000000    0.000000000
   7  C       6.00    1.265100697   -2.367343366   -0.006985133
   8  C       6.00    1.265100697    2.367343366    0.006985133
   9  H       1.00   -2.268379448    4.156078263   -0.013948713
  10  H       1.00   -2.268379448   -4.156078263    0.013948713
  11  H       1.00    2.268414676    4.156102108    0.007284388
  12  H       1.00    2.268414676   -4.156102108   -0.007284388
  13  H       1.00   -4.102066506    0.000626542   -1.646299633
  14  H       1.00   -4.102066506   -0.000626542    1.646299633

 Bond lengths in Bohr (Angstrom)

 1-3  2.073732753  2-3  2.073732753  3-7  2.843951057  3-8  2.843951057  4-6  2.843951049
     ( 1.097372110)     ( 1.097372110)     ( 1.504954083)     ( 1.504954083)     ( 1.504954079)

  4- 8  2.530222790   4- 9  2.050925857   5- 6  2.843951049   5- 7  2.530222790   5-10  2.050925857
       ( 1.338936234)       ( 1.085303221)       ( 1.504954079)       ( 1.338936234)       ( 1.085303221)

  6-13  2.073732753   6-14  2.073732753   7-12  2.050925857   8-11  2.050925857
       ( 1.097372110)       ( 1.097372110)       ( 1.085303221)       ( 1.085303221)

 Bond angles

  1-3-2  105.09962836   1-3-7  109.69191982   1-3-8  109.69191983   2-3-7  109.69191983

  2- 3- 8  109.69191982   3- 7- 5  123.65186646   3- 7-12  117.05961769   3- 8- 4  123.65186646

  3- 8-11  117.05961769   4- 6- 5  112.69569028   4- 6-13  109.69192007   4- 6-14  109.69192007

  4- 8-11  119.28774827   5- 6-13  109.69192007   5- 6-14  109.69192007   5- 7-12  119.28774827

  6- 4- 8  123.65186805   6- 4- 9  117.05961690   6- 5- 7  123.65186805   6- 5-10  117.05961690

  7- 3- 8  112.69569144   7- 5-10  119.28774747   8- 4- 9  119.28774747  13- 6-14  105.09962864

 NUCLEAR CHARGE:                   44
 NUMBER OF PRIMITIVE AOS:         218
 NUMBER OF SYMMETRY AOS:          212
 NUMBER OF CONTRACTIONS:          124   (  64A   +  60B   )
 NUMBER OF CORE ORBITALS:           6   (   4A   +   2B   )
 NUMBER OF VALENCE ORBITALS:       32   (  16A   +  16B   )


 NUCLEAR REPULSION ENERGY  217.75805131


 Eigenvalues of metric

         1 0.670E-03 0.315E-02 0.345E-02 0.163E-01 0.182E-01 0.259E-01 0.273E-01 0.320E-01
         2 0.169E-02 0.432E-02 0.562E-02 0.143E-01 0.227E-01 0.257E-01 0.312E-01 0.356E-01


 Contracted 2-electron integrals neglected if value below      1.0D-16
 AO integral compression algorithm  1   Integral accuracy      1.0D-16

     130.286 MB (compressed) written to integral file ( 91.5%)

     Node minimum: 130.286 MB, node maximum: 130.286 MB


 NUMBER OF SORTED TWO-ELECTRON INTEGRALS:   15258805.     BUFFER LENGTH:  32768
 NUMBER OF SEGMENTS:   1  SEGMENT LENGTH:   15258805      RECORD LENGTH: 524288

 Memory used in sort:      15.82 MW

 SORT1 READ    17792745. AND WROTE    15164453. INTEGRALS IN     44 RECORDS. CPU TIME:     0.21 SEC, REAL TIME:     0.28 SEC
 SORT2 READ    15164453. AND WROTE    15258805. INTEGRALS IN    497 RECORDS. CPU TIME:     0.19 SEC, REAL TIME:     0.26 SEC

 FILE SIZES:   FILE 1:   116.9 MBYTE,  FILE 4:   184.6 MBYTE,   TOTAL:    301.5 MBYTE

 OPERATOR DM      FOR CENTER  0  COORDINATES:    0.000000    0.000000    0.000000


 **********************************************************************************************************************************
 DATASETS  * FILE   NREC   LENGTH (MB)   RECORD NAMES
              1      19      117.03       500      610      700      900      950      970     1000      129      960     1100   
                                          VAR    BASINP    GEOM    SYMINP    ZMAT    AOBASIS   BASIS     P2S    ABASIS      S 
                                         1400     1410     1200     1210     1080     1600     1650     1300     1700   
                                           T        V       H0       H01     AOSYM     SMH    MOLCAS    ERIS     OPER   

 PROGRAMS   *        TOTAL       INT
 CPU TIMES  *         2.63      2.59
 REAL TIME  *         3.02 SEC
 DISK USED  *       432.74 MB      
 GA USED    *         0.00 MB       (max)       0.00 MB       (current)
 **********************************************************************************************************************************

1PROGRAM * RHF-SCF (CLOSED SHELL)       Authors: W. Meyer, H.-J. Werner


 NUMBER OF ELECTRONS:      22+   22-
 CONVERGENCE THRESHOLDS:    1.00E-10 (Density)    1.00E-13 (Energy)
 MAX. NUMBER OF ITERATIONS:      200
 INTERPOLATION TYPE:            DIIS
 INTERPOLATION STEPS:              2 (START)      1 (STEP)
 LEVEL SHIFTS:                  0.00 (CLOSED)  0.00 (OPEN) 



 Orbital guess generated from atomic densities. Full valence occupancy:   20  18

 Molecular orbital dump at record        2100.2

 Initial alpha occupancy:  12  10
 Initial beta  occupancy:  12  10
 Wave function symmetry:    1

 ITERATION    DDIFF          GRAD             ENERGY        2-EL.EN.            DIPOLE MOMENTS         DIIS
    1      0.000D+00      0.000D+00      -231.78151275    590.482241    0.00002    0.00000    0.00000    0
    2      0.000D+00      0.638D-02      -231.84386472    585.626230    0.00001    0.00000    0.00000    1
    3      0.127D-01      0.251D-02      -231.85141864    587.950931    0.00002    0.00000    0.00000    2
    4      0.475D-02      0.853D-03      -231.85266162    587.340481    0.00002    0.00000    0.00000    3
    5      0.174D-02      0.869D-04      -231.85267996    587.345589    0.00002    0.00000    0.00000    4
    6      0.325D-03      0.186D-04      -231.85268056    587.342483    0.00002    0.00000    0.00000    5
    7      0.453D-04      0.618D-05      -231.85268062    587.343527    0.00002    0.00000    0.00000    6
    8      0.176D-04      0.121D-05      -231.85268062    587.343411    0.00002    0.00000    0.00000    7
    9      0.416D-05      0.247D-06      -231.85268062    587.343449    0.00002    0.00000    0.00000    6
   10      0.924D-06      0.512D-07      -231.85268062    587.343442    0.00002    0.00000    0.00000    6
   11      0.196D-06      0.753D-08      -231.85268062    587.343445    0.00002    0.00000    0.00000    6
   12      0.218D-07      0.198D-08      -231.85268062    587.343444    0.00002    0.00000    0.00000    6
   13      0.588D-08      0.757D-09      -231.85268062    587.343444    0.00002    0.00000    0.00000    6
   14      0.165D-08      0.231D-09      -231.85268062    587.343444    0.00002    0.00000    0.00000    6
   15      0.591D-09      0.860D-10      -231.85268062    587.343444    0.00002    0.00000    0.00000    7
   16      0.160D-09      0.322D-10      -231.85268062    587.343444    0.00002    0.00000    0.00000    7
   17      0.838D-10      0.919D-11      -231.85268062    587.343444    0.00002    0.00000    0.00000    7
   18      0.275D-10      0.229D-11      -231.85268062    587.343444    0.00002    0.00000    0.00000    0

 Final occupancy:  12  10

 !RHF STATE 1.1 Energy               -231.852680622594
 Nuclear energy                       217.75805131
 One-electron energy                 -743.28245400
 Two-electron energy                  293.67172206
 Virial quotient                       -1.00115584
 !RHF STATE 1.1 Dipole moment           0.00001903     0.00000000     0.00000000
 Dipole moment /Debye                   0.00004838     0.00000000     0.00000000

 Orbital energies:

         1.1          2.1          3.1          4.1          5.1          6.1          7.1          8.1          9.1         10.1
    -11.233780   -11.233778   -11.229228   -11.227626    -1.122177    -1.004919    -0.861947    -0.678371    -0.654608    -0.531809

        11.1         12.1         13.1         14.1
     -0.490813    -0.358784     0.174469     0.180787

         1.2          2.2          3.2          4.2          5.2          6.2          7.2          8.2          9.2         10.2
    -11.229289   -11.227660    -1.008408    -0.784627    -0.597629    -0.595245    -0.561739    -0.561499    -0.445804    -0.329766

        11.2         12.2
      0.193447     0.223623


 **********************************************************************************************************************************
 DATASETS  * FILE   NREC   LENGTH (MB)   RECORD NAMES
              1      19      117.03       500      610      700      900      950      970     1000      129      960     1100   
                                          VAR    BASINP    GEOM    SYMINP    ZMAT    AOBASIS   BASIS     P2S    ABASIS      S 
                                         1400     1410     1200     1210     1080     1600     1650     1300     1700   
                                           T        V       H0       H01     AOSYM     SMH    MOLCAS    ERIS     OPER   

              2       3        0.65       700     1000     2100   
                                         GEOM     BASIS     RHF  

 PROGRAMS   *        TOTAL       RHF       INT
 CPU TIMES  *         4.14      1.50      2.59
 REAL TIME  *         4.76 SEC
 DISK USED  *       432.74 MB      
 GA USED    *         0.00 MB       (max)       0.00 MB       (current)
 **********************************************************************************************************************************


1PROGRAM * CCSD (Closed-shell coupled cluster)     Authors: C. Hampel, H.-J. Werner, 1991, M. Deegan, P.J. Knowles, 1992


 Convergence thresholds:  THRVAR = 1.00D-08  THRDEN = 1.00D-12

 CCSD(T)     terms to be evaluated (factor= 1.000)


 Number of core orbitals:           6 (   4   2 )
 Number of closed-shell orbitals:  16 (   8   8 )
 Number of external orbitals:     102 (  52  50 )

 Molecular orbitals read from record     2100.2  Type=RHF/CANONICAL (state 1.1)

 Number of N-1 electron functions:              16
 Number of N-2 electron functions:             136
 Number of singly external CSFs:               816
 Number of doubly external CSFs:            666672
 Total number of CSFs:                      667489

 Length of J-op  integral file:               0.00 MB
 Length of K-op  integral file:               0.57 MB
 Length of 3-ext integral record:             0.00 MB

 Memory could be reduced to 11.84 Mwords without degradation in triples

 Integral transformation finished. Total CPU:   0.67 sec, npass=  1  Memory used:   7.36 MW

 Reference energy:                   -231.85268062

 MP2 singlet pair energy:              -0.50639769
 MP2 triplet pair energy:              -0.29378154
 MP2 correlation energy:               -0.80017923
 MP2 total energy:                   -232.65285985

 SCS-MP2 correlation energy:           -0.79047463   (PS=  1.200000  PT=  0.333333)
 SCS-MP2 total energy:               -232.64315525

 ITER.      SQ.NORM     CORR.ENERGY   TOTAL ENERGY   ENERGY CHANGE        DEN1      VAR(S)    VAR(P)  DIIS     TIME
   1      1.31822401    -0.85463302  -232.70731364    -0.05445379    -0.03136148  0.31D-02  0.54D-02  1  1     1.67
   2      1.34642554    -0.86045981  -232.71314043    -0.00582679    -0.02420942  0.68D-04  0.70D-03  2  2     2.74
   3      1.35481359    -0.86077209  -232.71345271    -0.00031228    -0.00386673  0.20D-04  0.69D-04  3  3     3.83
   4      1.35835918    -0.86089303  -232.71357365    -0.00012094    -0.00107859  0.10D-05  0.68D-05  4  4     4.90
   5      1.35919390    -0.86090490  -232.71358552    -0.00001187    -0.00017778  0.50D-07  0.65D-06  5  5     5.98
   6      1.35935107    -0.86089724  -232.71357787     0.00000765    -0.00002571  0.49D-08  0.36D-07  6  6     7.07
   7      1.35936646    -0.86089791  -232.71357853    -0.00000067     0.00000110  0.17D-08  0.32D-08  6  2     8.16
   8      1.35937112    -0.86089777  -232.71357839     0.00000014    -0.00000094  0.56D-10  0.35D-09  6  1     9.24
   9      1.35937117    -0.86089784  -232.71357847    -0.00000007     0.00000044  0.18D-10  0.52D-10  6  3    10.33
  10      1.35937110    -0.86089788  -232.71357850    -0.00000004     0.00000016  0.80D-12  0.82D-11  6  4    11.42
  11      1.35937054    -0.86089791  -232.71357853    -0.00000003     0.00000022  0.85D-13  0.11D-11  6  6    12.51
  12      1.35937043    -0.86089792  -232.71357854    -0.00000001     0.00000005  0.20D-13  0.98D-13  6  5    13.59
  13      1.35937043    -0.86089792  -232.71357854     0.00000000    -0.00000000  0.76D-14  0.15D-13  6  2    14.68
  14      1.35937045    -0.86089792  -232.71357854     0.00000000    -0.00000001  0.55D-15  0.13D-14  6  1    15.76
  15      1.35937046    -0.86089792  -232.71357854     0.00000000    -0.00000000  0.17D-15  0.15D-15  6  3    16.85
  16      1.35937046    -0.86089792  -232.71357854     0.00000000    -0.00000000  0.19D-16  0.24D-16  6  4    17.93
  17      1.35937046    -0.86089792  -232.71357854    -0.00000000     0.00000000  0.35D-17  0.38D-17  6  6    19.02
  18      1.35937046    -0.86089792  -232.71357854    -0.00000000     0.00000000  0.23D-18  0.65D-18  6  5    20.09
  19      1.35937046    -0.86089792  -232.71357854     0.00000000     0.00000000  0.29D-19  0.15D-18  6  2    21.18
  20      1.35937046    -0.86089792  -232.71357854     0.00000000    -0.00000000  0.66D-21  0.26D-19  6  1    22.27
  21      1.35937046    -0.86089792  -232.71357854     0.00000000    -0.00000000  0.14D-21  0.18D-20  6  4    23.35
  22      1.35937046    -0.86089792  -232.71357854     0.00000000    -0.00000000  0.16D-22  0.85D-22  6  3    24.44

 Norm of t1 vector:      0.07885057      S-energy:     0.00000000      T1 diagnostic:  0.00985632
                                                                       D1 diagnostic:  0.02884859

 Doubles amplitudes (print threshold =  0.500E-01):

         I         J         SYM. A    SYM. B    A         B      T(IJ, AB)

         8         8         1         1         1         1     -0.07458250
        16        16         2         2         1         1     -0.05814002
        16         8         2         1         1         1     -0.06102189


 Total CPU time for triples:     18.94 sec


 RESULTS
 =======

  Reference energy                   -231.852680622595
  CCSD singlet pair energy             -0.593574693915
  CCSD triplet pair energy             -0.267323222618
  CCSD correlation energy              -0.860897916533

  Triples (T) contribution             -0.032225535331
  Total correlation energy             -0.893123451863

  CCSD total energy                  -232.713578539128
  CCSD[T] energy                     -232.746537387619
  CCSD-T energy                      -232.745485285020
 !CCSD(T) total energy               -232.745804074459

 Timing summary (sec):

 STEP                 CPU(USER)    SYS     CPU(TOT)    WALL
 Transformation          0.68      0.08      0.76      0.77
 CCSD iterations        23.76      1.01     24.77     24.82
 Triples                18.94      0.67     19.61     19.62

 Program statistics:

 Available memory in ccsd:               999998876
 Min. memory needed in ccsd:               1784523
 Max. memory used in ccsd:                 2381707
 Max. memory used in cckext:               2454998 (22 integral passes)



 **********************************************************************************************************************************
 DATASETS  * FILE   NREC   LENGTH (MB)   RECORD NAMES
              1      20      164.55       500      610      700      900      950      970     1000      129      960     1100   
                                          VAR    BASINP    GEOM    SYMINP    ZMAT    AOBASIS   BASIS     P2S    ABASIS      S 
                                         1400     1410     1200     1210     1080     1600     1650     1300     1700     1380   
                                           T        V       H0       H01     AOSYM     SMH    MOLCAS    ERIS     OPER     JKOP   

              2       3        0.65       700     1000     2100   
                                         GEOM     BASIS     RHF  

 PROGRAMS   *        TOTAL   CCSD(T)       RHF       INT
 CPU TIMES  *        47.53     43.40      1.50      2.59
 REAL TIME  *        50.00 SEC
 DISK USED  *       432.74 MB      
 GA USED    *         0.00 MB       (max)       0.00 MB       (current)
 **********************************************************************************************************************************

        CCSD(T)         RHF-SCF 
   -232.74580407   -231.85268062
 **********************************************************************************************************************************
 Variable memory released
