
    -----------------------------------------------------------------------
          Psi4: An Open-Source Ab Initio Electronic Structure Package
                               Psi4 1.4a2.dev629 

                         Git: Rev {master} 2938fc2 dirty


    D. G. A. Smith, L. A. Burns, A. C. Simmonett, R. M. Parrish,
    M. C. Schieber, R. Galvelis, P. Kraus, H. Kruse, R. Di Remigio,
    A. Alenaizan, A. M. James, S. Lehtola, J. P. Misiewicz, M. Scheurer,
    R. A. Shaw, J. B. Schriber, Y. Xie, Z. L. Glick, D. A. Sirianni,
    J. S. O'Brien, J. M. Waldrop, A. Kumar, E. G. Hohenstein,
    B. P. Pritchard, B. R. Brooks, H. F. Schaefer III, A. Yu. Sokolov,
    K. Patkowski, A. E. DePrince III, U. Bozkaya, R. A. King,
    F. A. Evangelista, J. M. Turney, T. D. Crawford, C. D. Sherrill,
    J. Chem. Phys. 152(18) 184108 (2020). https://doi.org/10.1063/5.0006002

                            Additional Code Authors
    E. T. Seidl, C. L. Janssen, E. F. Valeev, M. L. Leininger,
    J. F. Gonthier, R. M. Richard, H. R. McAlexander, M. Saitow, X. Wang,
    P. Verma, and M. H. Lechner

             Previous Authors, Complete List of Code Contributors,
                       and Citations for Specific Modules
    https://github.com/psi4/psi4/blob/master/codemeta.json
    https://github.com/psi4/psi4/graphs/contributors
    http://psicode.org/psi4manual/master/introduction.html#citing-psifour

    -----------------------------------------------------------------------


    Psi4 started on: Thursday, 06 January 2022 09:53AM

    Process ID: 10095
    Host:       n058
    PSIDATADIR: /opt/psi/4/master/share/psi4
    Memory:     500.0 MiB
    Threads:    4
    
  ==> Input File <==

--------------------------------------------------------------------------
import os
memory 28 GB 
 
molecule {
 C    0.0000000000   -0.0000000000   -0.0040320533
 Cl   -0.0000000000   -2.7409191350    1.9391287464
 Cl    0.0000000000    2.7409191350    1.9391287464
 Cl    2.7409008626    0.0000000000   -1.9371127001
 Cl   -2.7409008626    0.0000000000   -1.9371127001
units bohr
}

basis {

assign 6-31g_2dfp_

[ 6-31g_2dfp_ ]

spherical

!----------------------------------------------------------------------
! Basis Set Exchange
! Version v0.8.13
! https://www.basissetexchange.org
!----------------------------------------------------------------------
!   Basis set: 6-31G(2df,p)
! Description: 6-31G(2df,p)
!        Role: orbital
!     Version: 0  (Data from the original Basis Set Exchange)
!----------------------------------------------------------------------


****
H     0
S    3   1.00
     18.7311370              0.03349460
      2.8253937              0.23472695
      0.6401217              0.81375733
S    1   1.00
      0.1612778              1.00000000
P    1   1.00
      1.5000000              1.0000000
P    1   1.00
      0.3750000              1.0000000
****
B     0
S    6   1.00
   2068.8823000              0.0018663
    310.6495700              0.0142515
     70.6830330              0.0695516
     19.8610800              0.2325729
      6.2993048              0.4670787
      2.1270270              0.3634314
SP   3   1.00
      4.7279710             -0.1303938              0.0745976
      1.1903377             -0.1307889              0.3078467
      0.3594117              1.1309444              0.7434568
SP   1   1.00
      0.1267512              1.0000000              1.0000000
D    1   1.00
      0.8020000              1.0000000
D    1   1.00
      0.2005000              1.0000000
F    1   1.00
      0.5000000              1.0000000
****
C     0
S    6   1.00
   3047.5249000              0.0018347
    457.3695100              0.0140373
    103.9486900              0.0688426
     29.2101550              0.2321844
      9.2866630              0.4679413
      3.1639270              0.3623120
SP   3   1.00
      7.8682724             -0.1193324              0.0689991
      1.8812885             -0.1608542              0.3164240
      0.5442493              1.1434564              0.7443083
SP   1   1.00
      0.1687144              1.0000000              1.0000000
D    1   1.00
      1.2520000              1.0000000
D    1   1.00
      0.3130000              1.0000000
F    1   1.00
      0.8000000              1.0000000
****
N     0
S    6   1.00
   4173.5110000              0.0018348
    627.4579000              0.0139950
    142.9021000              0.0685870
     40.2343300              0.2322410
     12.8202100              0.4690700
      4.3904370              0.3604550
SP   3   1.00
     11.6263580             -0.1149610              0.0675800
      2.7162800             -0.1691180              0.3239070
      0.7722180              1.1458520              0.7408950
SP   1   1.00
      0.2120313              1.0000000              1.0000000
D    1   1.00
      1.8260000              1.0000000
D    1   1.00
      0.4565000              1.0000000
F    1   1.00
      1.0000000              1.0000000
****
O     0
S    6   1.00
   5484.6717000              0.0018311
    825.2349500              0.0139501
    188.0469600              0.0684451
     52.9645000              0.2327143
     16.8975700              0.4701930
      5.7996353              0.3585209
SP   3   1.00
     15.5396160             -0.1107775              0.0708743
      3.5999336             -0.1480263              0.3397528
      1.0137618              1.1307670              0.7271586
SP   1   1.00
      0.2700058              1.0000000              1.0000000
D    1   1.00
      2.5840000              1.0000000
D    1   1.00
      0.6460000              1.0000000
F    1   1.00
      1.4000000              1.0000000
****
F     0
S    6   1.00
   7001.7130900              0.0018196169
   1051.3660900              0.0139160796
    239.2856900              0.0684053245
     67.3974453              0.233185760
     21.5199573              0.471267439
      7.40310130             0.356618546
SP   3   1.00
     20.8479528             -0.108506975            0.0716287243
      4.80830834            -0.146451658            0.3459121030
      1.34406986             1.128688580            0.7224699570
SP   1   1.00
      0.358151393            1.0000000              1.0000000
D    1   1.00
      3.5000000              1.0000000
D    1   1.00
      0.8750000              1.0000000
F    1   1.00
      1.8500000              1.0000000
****
Al     0
S    6   1.00
  13983.1000000              0.00194267
   2098.7500000              0.0148599
    477.7050000              0.0728494
    134.3600000              0.2468300
     42.8709000              0.4872580
     14.5189000              0.3234960
SP   6   1.00
    239.6680000             -0.00292619             0.00460285
     57.4419000             -0.0374080              0.0331990
     18.2859000             -0.1144870              0.1362820
      6.5991400              0.1156350              0.3304760
      2.4904900              0.6125950              0.4491460
      0.9445400              0.3937990              0.2657040
SP   3   1.00
      1.2779000             -0.2276060             -0.0175130
      0.3975900              0.00144583             0.2445330
      0.1600950              1.0927900              0.8049340
SP   1   1.00
      0.0556577              1.0000000              1.0000000
D    1   1.00
      0.6500000              1.0000000
D    1   1.00
      0.1625000              1.0000000
F    1   1.00
      0.2500000              1.0000000
****
Si     0
S    6   1.00
  16115.9000000              0.00195948
   2425.5800000              0.01492880
    553.8670000              0.07284780
    156.3400000              0.24613000
     50.0683000              0.48591400
     17.0178000              0.32500200
SP   6   1.00
    292.7180000             -0.00278094             0.00443826
     69.8731000             -0.03571460             0.03266790
     22.3363000             -0.11498500             0.13472100
      8.1503900              0.09356340             0.32867800
      3.1345800              0.60301700             0.44964000
      1.2254300              0.41895900             0.26137200
SP   3   1.00
      1.7273800             -0.24463000            -0.01779510
      0.5729220              0.00431572             0.25353900
      0.2221920              1.09818000             0.80066900
SP   1   1.00
      0.0778369              1.00000000             1.00000000
D    1   1.00
      0.9000000              1.0000000
D    1   1.00
      0.2250000              1.0000000
F    1   1.00
      0.3200000              1.0000000
****
P     0
S    6   1.00
  19413.3000000              0.0018516
   2909.4200000              0.0142062
    661.3640000              0.0699995
    185.7590000              0.2400790
     59.1943000              0.4847620
     20.0310000              0.3352000
SP   6   1.00
    339.4780000             -0.00278217             0.00456462
     81.0101000             -0.0360499              0.03369360
     25.8780000             -0.1166310              0.13975500
      9.4522100              0.0968328              0.33936200
      3.6656600              0.6144180              0.45092100
      1.4674600              0.4037980              0.23858600
SP   3   1.00
      2.1562300             -0.2529230             -0.01776530
      0.7489970              0.0328517              0.27405800
      0.2831450              1.0812500              0.78542100
SP   1   1.00
      0.0998317              1.0000000              1.00000000
D    1   1.00
      1.1000000              1.0000000
D    1   1.00
      0.2750000              1.0000000
F    1   1.00
      0.4500000              1.0000000
****
S     0
S    6   1.00
  21917.1000000              0.0018690
   3301.4900000              0.0142300
    754.1460000              0.0696960
    212.7110000              0.2384870
     67.9896000              0.4833070
     23.0515000              0.3380740
SP   6   1.00
    423.7350000             -0.0023767              0.0040610
    100.7100000             -0.0316930              0.0306810
     32.1599000             -0.1133170              0.1304520
     11.8079000              0.0560900              0.3272050
      4.6311000              0.5922550              0.4528510
      1.8702500              0.4550060              0.2560420
SP   3   1.00
      2.6158400             -0.2503740             -0.0145110
      0.9221670              0.0669570              0.3102630
      0.3412870              1.0545100              0.7544830
SP   1   1.00
      0.1171670              1.0000000              1.0000000
D    1   1.00
      1.3000000              1.0000000
D    1   1.00
      0.3250000              1.0000000
F    1   1.00
      0.5500000              1.0000000
****
Cl     0
S    6   1.00
  25180.1000000              0.0018330
   3780.3500000              0.0140340
    860.4740000              0.0690970
    242.1450000              0.2374520
     77.3349000              0.4830340
     26.2470000              0.3398560
SP   6   1.00
    491.7650000             -0.0022974              0.0039894
    116.9840000             -0.0307140              0.0303180
     37.4153000             -0.1125280              0.1298800
     13.7834000              0.0450160              0.3279510
      5.4521500              0.5893530              0.4535270
      2.2258800              0.4652060              0.2521540
SP   3   1.00
      3.1864900             -0.2518300             -0.0142990
      1.1442700              0.0615890              0.3235720
      0.4203770              1.0601800              0.7435070
SP   1   1.00
      0.1426570              1.0000000              1.0000000
D    1   1.00
      1.5000000              1.0000000
D    1   1.00
      0.3750000              1.0000000
F    1   1.00
      0.7000000              1.0000000
****
}


set {
reference rhf                          
freeze_core true
e_convergence 10                       
d_convergence 10                      
dft_spherical_points 1202
dft_radial_points 99
}

e = energy('b3lyp')

print_out('Grab this energy {0}'.format(e))
--------------------------------------------------------------------------

  Memory set to  26.077 GiB by Python driver.

Scratch directory: /tmp/

*** tstart() called on n058
*** at Thu Jan  6 09:53:47 2022

   => Loading Basis Set <=

    Name: ANONYMOUSDA420621
    Role: ORBITAL
    Keyword: BASIS
    atoms 1   entry C          line    48 inputblock 6-31g_2dfp_ 
    atoms 2-5 entry CL         line   244 inputblock 6-31g_2dfp_ 


         ---------------------------------------------------------
                                   SCF
               by Justin Turney, Rob Parrish, Andy Simmonett
                          and Daniel G. A. Smith
                              RKS Reference
                        4 Threads,  26702 MiB Core
         ---------------------------------------------------------

  ==> Geometry <==

    Molecular point group: c2v
    Full point group: C2v

    Geometry (in Bohr), charge = 0, multiplicity = 1:

       Center              X                  Y                   Z               Mass       
    ------------   -----------------  -----------------  -----------------  -----------------
         C            0.000000000000     0.000000000000    -0.004641849264    12.000000000000
         CL           0.000000000000    -2.740919135000     1.938518950436    34.968852682000
         CL          -0.000000000000     2.740919135000     1.938518950436    34.968852682000
         CL           2.740900862600     0.000000000000    -1.937722496064    34.968852682000
         CL          -2.740900862600    -0.000000000000    -1.937722496064    34.968852682000

  Running in c2v symmetry.

  Rotational constants: A =      0.05729  B =      0.05729  C =      0.05729 [cm^-1]
  Rotational constants: A =   1717.45075  B =   1717.44963  C =   1717.43930 [MHz]
  Nuclear repulsion =  437.858099028627748

  Charge       = 0
  Multiplicity = 1
  Electrons    = 74
  Nalpha       = 37
  Nbeta        = 37

  ==> Algorithm <==

  SCF Algorithm Type is DF.
  DIIS enabled.
  MOM disabled.
  Fractional occupation disabled.
  Guess Type is SAD.
  Energy threshold   = 1.00e-10
  Density threshold  = 1.00e-10
  Integral threshold = 0.00e+00

  ==> Primary Basis <==

  Basis Set: ANONYMOUSDA420621
    Blend: 6-31G_2DFP_
    Number of shells: 48
    Number of basis function: 146
    Number of Cartesian functions: 171
    Spherical Harmonics?: true
    Max angular momentum: 3

  ==> DFT Potential <==

   => Composite Functional: B3LYP <= 

    B3LYP Hyb-GGA Exchange-Correlation Functional

    P. J. Stephens, F. J. Devlin, C. F. Chabalowski, and M. J. Frisch, J. Phys. Chem. 98, 11623 (1994)

    Deriv               =              1
    GGA                 =           TRUE
    Meta                =          FALSE

    Exchange Hybrid     =           TRUE
    MP2 Hybrid          =          FALSE

   => Exchange Functionals <=

    0.0800   Slater exchange
    0.7200         Becke 88

   => Exact (HF) Exchange <=

    0.2000               HF 

   => Correlation Functionals <=

    0.1900   Vosko, Wilk & Nusair (VWN5_RPA)
    0.8100   Lee, Yang & Parr

   => Molecular Quadrature <=

    Radial Scheme          =       TREUTLER
    Pruning Scheme         =           NONE
    Nuclear Scheme         =       TREUTLER

    BS radius alpha        =              1
    Pruning alpha          =              1
    Radial Points          =             99
    Spherical Points       =           1202
    Total Points           =         534300
    Total Blocks           =           3904
    Max Points             =            256
    Max Functions          =            142
    Weights Tolerance      =       1.00E-15

   => Loading Basis Set <=

    Name: (ANONYMOUSDA420621 AUX)
    Role: JKFIT
    Keyword: DF_BASIS_SCF
    atoms 1   entry C          line   198 file /opt/psi/4/master/share/psi4/basis/def2-universal-jkfit.gbs 
    atoms 2-5 entry CL         line   986 file /opt/psi/4/master/share/psi4/basis/def2-universal-jkfit.gbs 

  ==> Integral Setup <==

  DFHelper Memory: AOs need 0.099 GiB; user supplied 17.860 GiB. Using in-core AOs.

  ==> MemDFJK: Density-Fitted J/K Matrices <==

    J tasked:                   Yes
    K tasked:                   Yes
    wK tasked:                   No
    OpenMP threads:               4
    Memory [MiB]:             18288
    Algorithm:                 Core
    Schwarz Cutoff:           1E-12
    Mask sparsity (%):       2.1205
    Fitting Condition:        1E-10

   => Auxiliary Basis Set <=

  Basis Set: (ANONYMOUSDA420621 AUX)
    Blend: DEF2-UNIVERSAL-JKFIT
    Number of shells: 177
    Number of basis function: 587
    Number of Cartesian functions: 709
    Spherical Harmonics?: true
    Max angular momentum: 4

  Cached 100.0% of DFT collocation blocks in 1.698 [GiB].

  Minimum eigenvalue in the overlap matrix is 6.3983061573E-03.
  Reciprocal condition number of the overlap matrix is 1.5569993455E-03.
    Using symmetric orthogonalization.

  ==> Pre-Iterations <==

  SCF Guess: Superposition of Atomic Densities via on-the-fly atomic UHF (no occupation information).

   -------------------------
    Irrep   Nso     Nmo    
   -------------------------
     A1        51      51 
     A2        23      23 
     B1        36      36 
     B2        36      36 
   -------------------------
    Total     146     146
   -------------------------

  ==> Iterations <==

                           Total Energy        Delta E     RMS |[F,P]|

   @DF-RKS iter SAD: -1878.94352578791677   -1.87894e+03   0.00000e+00 
   @DF-RKS iter   1: -1878.82809310125094    1.15433e-01   3.38189e-03 DIIS
   @DF-RKS iter   2: -1878.81750356726366    1.05895e-02   4.12039e-03 DIIS
   @DF-RKS iter   3: -1878.85669808364719   -3.91945e-02   1.46766e-03 DIIS
   @DF-RKS iter   4: -1878.86287073995982   -6.17266e-03   1.46473e-04 DIIS
   @DF-RKS iter   5: -1878.86293016026707   -5.94203e-05   2.69923e-05 DIIS
   @DF-RKS iter   6: -1878.86293214386728   -1.98360e-06   1.54024e-06 DIIS
   @DF-RKS iter   7: -1878.86293214942975   -5.56247e-09   9.46866e-07 DIIS
   @DF-RKS iter   8: -1878.86293215260207   -3.17232e-09   1.17251e-07 DIIS
   @DF-RKS iter   9: -1878.86293215265482   -5.27507e-11   8.60051e-09 DIIS
   @DF-RKS iter  10: -1878.86293215265391    9.09495e-13   2.93262e-09 DIIS
   @DF-RKS iter  11: -1878.86293215265482   -9.09495e-13   3.26672e-10 DIIS
   @DF-RKS iter  12: -1878.86293215265368    1.13687e-12   1.28866e-10 DIIS
   @DF-RKS iter  13: -1878.86293215265414   -4.54747e-13   8.07846e-12 DIIS
  Energy and wave function converged.


  ==> Post-Iterations <==

    Orbital Energies [Eh]
    ---------------------

    Doubly Occupied:                                                      

       1B1  -101.567233     1A1  -101.567216     1B2  -101.566709  
       2A1  -101.566691     3A1   -10.425594     2B1    -9.496409  
       4A1    -9.496364     2B2    -9.495873     5A1    -9.495819  
       3B1    -7.259994     6A1    -7.259987     3B2    -7.259462  
       7A1    -7.259455     1A2    -7.249817     8A1    -7.249811  
       4B1    -7.249797     4B2    -7.249794     2A2    -7.249279  
       9A1    -7.249275     5B2    -7.249262     5B1    -7.249256  
      10A1    -0.980550     6B1    -0.856271    11A1    -0.855805  
       6B2    -0.855345    12A1    -0.632241     7B1    -0.503477  
      13A1    -0.503260     7B2    -0.503045     3A2    -0.378991  
      14A1    -0.378990     8B1    -0.353429    15A1    -0.353277  
       8B2    -0.353128     9B1    -0.320394     4A2    -0.320267  
       9B2    -0.320140  

    Virtual:                                                              

      16A1    -0.065816    10B2    -0.011445    17A1    -0.010851  
      10B1    -0.010258    18A1     0.251477    11B1     0.290688  
      19A1     0.290983    11B2     0.291275    20A1     0.293685  
       5A2     0.293686    12B1     0.335277    21A1     0.335332  
      12B2     0.335388    13B2     0.361153    22A1     0.361325  
      13B1     0.361495     6A2     0.376639    23A1     0.376641  
      14B1     0.398978    24A1     0.399091    14B2     0.399201  
      25A1     0.414377    15B1     0.418754     7A2     0.418889  
      15B2     0.419024    16B1     0.453814     8A2     0.453910  
      16B2     0.454007    26A1     0.514724     9A2     0.514725  
      17B2     0.586487    27A1     0.586603    17B1     0.586718  
      18B1     0.677148    10A2     0.677265    18B2     0.677383  
      28A1     0.759366    19B1     0.848451    29A1     0.848486  
      19B2     0.848525    20B2     1.008424    30A1     1.008872  
      20B1     1.009330    31A1     1.098687    11A2     1.098689  
      32A1     1.278460    21B2     1.316586    33A1     1.316915  
      21B1     1.317223    22B2     1.915160    12A2     1.915239  
      22B1     1.915294    23B2     1.922344    34A1     1.922657  
      23B1     1.923016    35A1     2.016766    13A2     2.016770  
      36A1     2.031568    24B2     2.035510    14A2     2.035652  
      24B1     2.035797    25B1     2.045863    37A1     2.046110  
      25B2     2.046351    15A2     2.050299    26B1     2.053219  
      16A2     2.053366    26B2     2.053505    27B2     2.100499  
      38A1     2.100704    27B1     2.100915    39A1     2.213395  
      17A2     2.213400    28B2     2.224733    40A1     2.224892  
      28B1     2.225040    41A1     2.253992    29B1     2.338859  
      18A2     2.338894    29B2     2.338955    30B1     2.342726  
      42A1     2.342977    30B2     2.343238    43A1     2.348525  
      19A2     2.348534    31B1     2.541716    20A2     2.541773  
      31B2     2.541832    32B1     2.641156    44A1     2.641413  
      32B2     2.641714    33B2     2.709340    45A1     2.709882  
      33B1     2.710487    46A1     2.727338    21A2     2.828208  
      47A1     2.828214    34B1     3.374505    48A1     3.376049  
      34B2     3.377609    49A1     3.456911    22A2     3.548315  
      50A1     3.548341    35B2     3.557627    23A2     3.559540  
      35B1     3.561457    36B2     3.831024    51A1     3.833134  
      36B1     3.835198  

    Final Occupation by Irrep:
             A1    A2    B1    B2 
    DOCC [    15,    4,    9,    9 ]

  @DF-RKS Final Energy: -1878.86293215265414

   => Energetics <=

    Nuclear Repulsion Energy =            437.8580990286277483
    One-Electron Energy =               -3465.2646735398780038
    Two-Electron Energy =                1243.9446678261558645
    DFT Exchange-Correlation Energy =     -95.4010254675598333
    Empirical Dispersion Energy =           0.0000000000000000
    VV10 Nonlocal Energy =                  0.0000000000000000
    Total Energy =                      -1878.8629321526541389

Computation Completed


Properties will be evaluated at   0.000000,   0.000000,   0.000000 [a0]

Properties computed using the SCF density matrix

  Nuclear Dipole Moment: [e a0]
     X:     0.0000      Y:     0.0000      Z:    -0.0008

  Electronic Dipole Moment: [e a0]
     X:     0.0000      Y:     0.0000      Z:    -0.0061

  Dipole Moment: [e a0]
     X:     0.0000      Y:     0.0000      Z:    -0.0069     Total:     0.0069

  Dipole Moment: [D]
     X:     0.0000      Y:     0.0000      Z:    -0.0174     Total:     0.0174


*** tstop() called on n058 at Thu Jan  6 09:53:57 2022
Module time:
	user time   =      36.25 seconds =       0.60 minutes
	system time =       0.60 seconds =       0.01 minutes
	total time  =         10 seconds =       0.17 minutes
Total time:
	user time   =      36.25 seconds =       0.60 minutes
	system time =       0.60 seconds =       0.01 minutes
	total time  =         10 seconds =       0.17 minutes
Grab this energy -1878.8629321526541
    Psi4 stopped on: Thursday, 06 January 2022 09:53AM
    Psi4 wall time for execution: 0:00:09.55

*** Psi4 exiting successfully. Buy a developer a beer!
