
    -----------------------------------------------------------------------
          Psi4: An Open-Source Ab Initio Electronic Structure Package
                               Psi4 1.4a2.dev629 

                         Git: Rev {master} 2938fc2 dirty


    D. G. A. Smith, L. A. Burns, A. C. Simmonett, R. M. Parrish,
    M. C. Schieber, R. Galvelis, P. Kraus, H. Kruse, R. Di Remigio,
    A. Alenaizan, A. M. James, S. Lehtola, J. P. Misiewicz, M. Scheurer,
    R. A. Shaw, J. B. Schriber, Y. Xie, Z. L. Glick, D. A. Sirianni,
    J. S. O'Brien, J. M. Waldrop, A. Kumar, E. G. Hohenstein,
    B. P. Pritchard, B. R. Brooks, H. F. Schaefer III, A. Yu. Sokolov,
    K. Patkowski, A. E. DePrince III, U. Bozkaya, R. A. King,
    F. A. Evangelista, J. M. Turney, T. D. Crawford, C. D. Sherrill,
    J. Chem. Phys. 152(18) 184108 (2020). https://doi.org/10.1063/5.0006002

                            Additional Code Authors
    E. T. Seidl, C. L. Janssen, E. F. Valeev, M. L. Leininger,
    J. F. Gonthier, R. M. Richard, H. R. McAlexander, M. Saitow, X. Wang,
    P. Verma, and M. H. Lechner

             Previous Authors, Complete List of Code Contributors,
                       and Citations for Specific Modules
    https://github.com/psi4/psi4/blob/master/codemeta.json
    https://github.com/psi4/psi4/graphs/contributors
    http://psicode.org/psi4manual/master/introduction.html#citing-psifour

    -----------------------------------------------------------------------


    Psi4 started on: Thursday, 06 January 2022 09:55AM

    Process ID: 25731
    Host:       n044
    PSIDATADIR: /opt/psi/4/master/share/psi4
    Memory:     500.0 MiB
    Threads:    4
    
  ==> Input File <==

--------------------------------------------------------------------------
import os
memory 28 GB 
 
molecule {
 C    0.0000096918   -0.0000503368   -0.0000003442
 Cl   -0.0073181401   -2.7403610666    1.9402435782
 Cl    0.0073108302    2.7332900414    1.9302080452
 Cl    2.7368234004    0.0108751664   -1.9352273622
 Cl   -2.7368257824   -0.0037538044   -1.9352238777
units bohr
}

basis {

assign 6-31g_2dfp_

[ 6-31g_2dfp_ ]

spherical

!----------------------------------------------------------------------
! Basis Set Exchange
! Version v0.8.13
! https://www.basissetexchange.org
!----------------------------------------------------------------------
!   Basis set: 6-31G(2df,p)
! Description: 6-31G(2df,p)
!        Role: orbital
!     Version: 0  (Data from the original Basis Set Exchange)
!----------------------------------------------------------------------


****
H     0
S    3   1.00
     18.7311370              0.03349460
      2.8253937              0.23472695
      0.6401217              0.81375733
S    1   1.00
      0.1612778              1.00000000
P    1   1.00
      1.5000000              1.0000000
P    1   1.00
      0.3750000              1.0000000
****
B     0
S    6   1.00
   2068.8823000              0.0018663
    310.6495700              0.0142515
     70.6830330              0.0695516
     19.8610800              0.2325729
      6.2993048              0.4670787
      2.1270270              0.3634314
SP   3   1.00
      4.7279710             -0.1303938              0.0745976
      1.1903377             -0.1307889              0.3078467
      0.3594117              1.1309444              0.7434568
SP   1   1.00
      0.1267512              1.0000000              1.0000000
D    1   1.00
      0.8020000              1.0000000
D    1   1.00
      0.2005000              1.0000000
F    1   1.00
      0.5000000              1.0000000
****
C     0
S    6   1.00
   3047.5249000              0.0018347
    457.3695100              0.0140373
    103.9486900              0.0688426
     29.2101550              0.2321844
      9.2866630              0.4679413
      3.1639270              0.3623120
SP   3   1.00
      7.8682724             -0.1193324              0.0689991
      1.8812885             -0.1608542              0.3164240
      0.5442493              1.1434564              0.7443083
SP   1   1.00
      0.1687144              1.0000000              1.0000000
D    1   1.00
      1.2520000              1.0000000
D    1   1.00
      0.3130000              1.0000000
F    1   1.00
      0.8000000              1.0000000
****
N     0
S    6   1.00
   4173.5110000              0.0018348
    627.4579000              0.0139950
    142.9021000              0.0685870
     40.2343300              0.2322410
     12.8202100              0.4690700
      4.3904370              0.3604550
SP   3   1.00
     11.6263580             -0.1149610              0.0675800
      2.7162800             -0.1691180              0.3239070
      0.7722180              1.1458520              0.7408950
SP   1   1.00
      0.2120313              1.0000000              1.0000000
D    1   1.00
      1.8260000              1.0000000
D    1   1.00
      0.4565000              1.0000000
F    1   1.00
      1.0000000              1.0000000
****
O     0
S    6   1.00
   5484.6717000              0.0018311
    825.2349500              0.0139501
    188.0469600              0.0684451
     52.9645000              0.2327143
     16.8975700              0.4701930
      5.7996353              0.3585209
SP   3   1.00
     15.5396160             -0.1107775              0.0708743
      3.5999336             -0.1480263              0.3397528
      1.0137618              1.1307670              0.7271586
SP   1   1.00
      0.2700058              1.0000000              1.0000000
D    1   1.00
      2.5840000              1.0000000
D    1   1.00
      0.6460000              1.0000000
F    1   1.00
      1.4000000              1.0000000
****
F     0
S    6   1.00
   7001.7130900              0.0018196169
   1051.3660900              0.0139160796
    239.2856900              0.0684053245
     67.3974453              0.233185760
     21.5199573              0.471267439
      7.40310130             0.356618546
SP   3   1.00
     20.8479528             -0.108506975            0.0716287243
      4.80830834            -0.146451658            0.3459121030
      1.34406986             1.128688580            0.7224699570
SP   1   1.00
      0.358151393            1.0000000              1.0000000
D    1   1.00
      3.5000000              1.0000000
D    1   1.00
      0.8750000              1.0000000
F    1   1.00
      1.8500000              1.0000000
****
Al     0
S    6   1.00
  13983.1000000              0.00194267
   2098.7500000              0.0148599
    477.7050000              0.0728494
    134.3600000              0.2468300
     42.8709000              0.4872580
     14.5189000              0.3234960
SP   6   1.00
    239.6680000             -0.00292619             0.00460285
     57.4419000             -0.0374080              0.0331990
     18.2859000             -0.1144870              0.1362820
      6.5991400              0.1156350              0.3304760
      2.4904900              0.6125950              0.4491460
      0.9445400              0.3937990              0.2657040
SP   3   1.00
      1.2779000             -0.2276060             -0.0175130
      0.3975900              0.00144583             0.2445330
      0.1600950              1.0927900              0.8049340
SP   1   1.00
      0.0556577              1.0000000              1.0000000
D    1   1.00
      0.6500000              1.0000000
D    1   1.00
      0.1625000              1.0000000
F    1   1.00
      0.2500000              1.0000000
****
Si     0
S    6   1.00
  16115.9000000              0.00195948
   2425.5800000              0.01492880
    553.8670000              0.07284780
    156.3400000              0.24613000
     50.0683000              0.48591400
     17.0178000              0.32500200
SP   6   1.00
    292.7180000             -0.00278094             0.00443826
     69.8731000             -0.03571460             0.03266790
     22.3363000             -0.11498500             0.13472100
      8.1503900              0.09356340             0.32867800
      3.1345800              0.60301700             0.44964000
      1.2254300              0.41895900             0.26137200
SP   3   1.00
      1.7273800             -0.24463000            -0.01779510
      0.5729220              0.00431572             0.25353900
      0.2221920              1.09818000             0.80066900
SP   1   1.00
      0.0778369              1.00000000             1.00000000
D    1   1.00
      0.9000000              1.0000000
D    1   1.00
      0.2250000              1.0000000
F    1   1.00
      0.3200000              1.0000000
****
P     0
S    6   1.00
  19413.3000000              0.0018516
   2909.4200000              0.0142062
    661.3640000              0.0699995
    185.7590000              0.2400790
     59.1943000              0.4847620
     20.0310000              0.3352000
SP   6   1.00
    339.4780000             -0.00278217             0.00456462
     81.0101000             -0.0360499              0.03369360
     25.8780000             -0.1166310              0.13975500
      9.4522100              0.0968328              0.33936200
      3.6656600              0.6144180              0.45092100
      1.4674600              0.4037980              0.23858600
SP   3   1.00
      2.1562300             -0.2529230             -0.01776530
      0.7489970              0.0328517              0.27405800
      0.2831450              1.0812500              0.78542100
SP   1   1.00
      0.0998317              1.0000000              1.00000000
D    1   1.00
      1.1000000              1.0000000
D    1   1.00
      0.2750000              1.0000000
F    1   1.00
      0.4500000              1.0000000
****
S     0
S    6   1.00
  21917.1000000              0.0018690
   3301.4900000              0.0142300
    754.1460000              0.0696960
    212.7110000              0.2384870
     67.9896000              0.4833070
     23.0515000              0.3380740
SP   6   1.00
    423.7350000             -0.0023767              0.0040610
    100.7100000             -0.0316930              0.0306810
     32.1599000             -0.1133170              0.1304520
     11.8079000              0.0560900              0.3272050
      4.6311000              0.5922550              0.4528510
      1.8702500              0.4550060              0.2560420
SP   3   1.00
      2.6158400             -0.2503740             -0.0145110
      0.9221670              0.0669570              0.3102630
      0.3412870              1.0545100              0.7544830
SP   1   1.00
      0.1171670              1.0000000              1.0000000
D    1   1.00
      1.3000000              1.0000000
D    1   1.00
      0.3250000              1.0000000
F    1   1.00
      0.5500000              1.0000000
****
Cl     0
S    6   1.00
  25180.1000000              0.0018330
   3780.3500000              0.0140340
    860.4740000              0.0690970
    242.1450000              0.2374520
     77.3349000              0.4830340
     26.2470000              0.3398560
SP   6   1.00
    491.7650000             -0.0022974              0.0039894
    116.9840000             -0.0307140              0.0303180
     37.4153000             -0.1125280              0.1298800
     13.7834000              0.0450160              0.3279510
      5.4521500              0.5893530              0.4535270
      2.2258800              0.4652060              0.2521540
SP   3   1.00
      3.1864900             -0.2518300             -0.0142990
      1.1442700              0.0615890              0.3235720
      0.4203770              1.0601800              0.7435070
SP   1   1.00
      0.1426570              1.0000000              1.0000000
D    1   1.00
      1.5000000              1.0000000
D    1   1.00
      0.3750000              1.0000000
F    1   1.00
      0.7000000              1.0000000
****
}


set {
reference rhf                          
freeze_core true
e_convergence 10                       
d_convergence 10                      
dft_spherical_points 1202
dft_radial_points 99
}

e = energy('b3lyp')

print_out('Grab this energy {0}'.format(e))
--------------------------------------------------------------------------

  Memory set to  26.077 GiB by Python driver.

Scratch directory: /tmp/

*** tstart() called on n044
*** at Thu Jan  6 09:55:33 2022

   => Loading Basis Set <=

    Name: ANONYMOUS9651C607
    Role: ORBITAL
    Keyword: BASIS
    atoms 1   entry C          line    48 inputblock 6-31g_2dfp_ 
    atoms 2-5 entry CL         line   244 inputblock 6-31g_2dfp_ 


         ---------------------------------------------------------
                                   SCF
               by Justin Turney, Rob Parrish, Andy Simmonett
                          and Daniel G. A. Smith
                              RKS Reference
                        4 Threads,  26702 MiB Core
         ---------------------------------------------------------

  ==> Geometry <==

    Molecular point group: c1
    Full point group: C1

    Geometry (in Bohr), charge = 0, multiplicity = 1:

       Center              X                  Y                   Z               Mass       
    ------------   -----------------  -----------------  -----------------  -----------------
         C            0.000011157561    -0.000057949478    -0.000000405304    12.000000000000
         CL          -0.007316674339    -2.740368679278     1.940243517096    34.968852682000
         CL           0.007312295961     2.733282428722     1.930207984096    34.968852682000
         CL           2.736824866161     0.010867553722    -1.935227423304    34.968852682000
         CL          -2.736824316639    -0.003761417078    -1.935223938804    34.968852682000

  Running in c1 symmetry.

  Rotational constants: A =      0.05765  B =      0.05746  C =      0.05727 [cm^-1]
  Rotational constants: A =   1728.17427  B =   1722.56163  C =   1717.00834 [MHz]
  Nuclear repulsion =  438.511959114386741

  Charge       = 0
  Multiplicity = 1
  Electrons    = 74
  Nalpha       = 37
  Nbeta        = 37

  ==> Algorithm <==

  SCF Algorithm Type is DF.
  DIIS enabled.
  MOM disabled.
  Fractional occupation disabled.
  Guess Type is SAD.
  Energy threshold   = 1.00e-10
  Density threshold  = 1.00e-10
  Integral threshold = 0.00e+00

  ==> Primary Basis <==

  Basis Set: ANONYMOUS9651C607
    Blend: 6-31G_2DFP_
    Number of shells: 48
    Number of basis function: 146
    Number of Cartesian functions: 171
    Spherical Harmonics?: true
    Max angular momentum: 3

  ==> DFT Potential <==

   => Composite Functional: B3LYP <= 

    B3LYP Hyb-GGA Exchange-Correlation Functional

    P. J. Stephens, F. J. Devlin, C. F. Chabalowski, and M. J. Frisch, J. Phys. Chem. 98, 11623 (1994)

    Deriv               =              1
    GGA                 =           TRUE
    Meta                =          FALSE

    Exchange Hybrid     =           TRUE
    MP2 Hybrid          =          FALSE

   => Exchange Functionals <=

    0.0800   Slater exchange
    0.7200         Becke 88

   => Exact (HF) Exchange <=

    0.2000               HF 

   => Correlation Functionals <=

    0.1900   Vosko, Wilk & Nusair (VWN5_RPA)
    0.8100   Lee, Yang & Parr

   => Molecular Quadrature <=

    Radial Scheme          =       TREUTLER
    Pruning Scheme         =           NONE
    Nuclear Scheme         =       TREUTLER

    BS radius alpha        =              1
    Pruning alpha          =              1
    Radial Points          =             99
    Spherical Points       =           1202
    Total Points           =         534712
    Total Blocks           =           3857
    Max Points             =            256
    Max Functions          =            142
    Weights Tolerance      =       1.00E-15

   => Loading Basis Set <=

    Name: (ANONYMOUS9651C607 AUX)
    Role: JKFIT
    Keyword: DF_BASIS_SCF
    atoms 1   entry C          line   198 file /opt/psi/4/master/share/psi4/basis/def2-universal-jkfit.gbs 
    atoms 2-5 entry CL         line   986 file /opt/psi/4/master/share/psi4/basis/def2-universal-jkfit.gbs 

  ==> Integral Setup <==

  DFHelper Memory: AOs need 0.099 GiB; user supplied 17.863 GiB. Using in-core AOs.

  ==> MemDFJK: Density-Fitted J/K Matrices <==

    J tasked:                   Yes
    K tasked:                   Yes
    wK tasked:                   No
    OpenMP threads:               4
    Memory [MiB]:             18291
    Algorithm:                 Core
    Schwarz Cutoff:           1E-12
    Mask sparsity (%):       2.1205
    Fitting Condition:        1E-10

   => Auxiliary Basis Set <=

  Basis Set: (ANONYMOUS9651C607 AUX)
    Blend: DEF2-UNIVERSAL-JKFIT
    Number of shells: 177
    Number of basis function: 587
    Number of Cartesian functions: 709
    Spherical Harmonics?: true
    Max angular momentum: 4

  Cached 100.0% of DFT collocation blocks in 1.695 [GiB].

  Minimum eigenvalue in the overlap matrix is 6.5920322551E-03.
  Reciprocal condition number of the overlap matrix is 1.4656264435E-03.
    Using symmetric orthogonalization.

  ==> Pre-Iterations <==

  SCF Guess: Superposition of Atomic Densities via on-the-fly atomic UHF (no occupation information).

   -------------------------
    Irrep   Nso     Nmo    
   -------------------------
     A        146     146 
   -------------------------
    Total     146     146
   -------------------------

  ==> Iterations <==

                           Total Energy        Delta E     RMS |[F,P]|

   @DF-RKS iter SAD: -1878.95579887189706   -1.87896e+03   0.00000e+00 
   @DF-RKS iter   1: -1878.82829031744677    1.27509e-01   1.74328e-03 DIIS
   @DF-RKS iter   2: -1878.81925717283934    9.03314e-03   2.09039e-03 DIIS
   @DF-RKS iter   3: -1878.85669661303859   -3.74394e-02   7.55516e-04 DIIS
   @DF-RKS iter   4: -1878.86277617095357   -6.07956e-03   7.55991e-05 DIIS
   @DF-RKS iter   5: -1878.86283510940552   -5.89385e-05   1.38150e-05 DIIS
   @DF-RKS iter   6: -1878.86283704372431   -1.93432e-06   7.04909e-07 DIIS
   @DF-RKS iter   7: -1878.86283704923721   -5.51290e-09   3.23047e-07 DIIS
   @DF-RKS iter   8: -1878.86283705060328   -1.36606e-09   7.24726e-08 DIIS
   @DF-RKS iter   9: -1878.86283705067285   -6.95763e-11   1.11922e-08 DIIS
   @DF-RKS iter  10: -1878.86283705067558   -2.72848e-12   2.13058e-09 DIIS
   @DF-RKS iter  11: -1878.86283705067353    2.04636e-12   2.91893e-10 DIIS
   @DF-RKS iter  12: -1878.86283705067467   -1.13687e-12   5.73810e-11 DIIS
  Energy and wave function converged.


  ==> Post-Iterations <==

    Orbital Energies [Eh]
    ---------------------

    Doubly Occupied:                                                      

       1A   -101.566980     2A   -101.566805     3A   -101.566788  
       4A   -101.566611     5A    -10.425035     6A     -9.496223  
       7A     -9.496024     8A     -9.495978     9A     -9.495775  
      10A     -7.259807    11A     -7.259600    12A     -7.259594  
      13A     -7.259387    14A     -7.249642    15A     -7.249630  
      16A     -7.249435    17A     -7.249423    18A     -7.249416  
      19A     -7.249403    20A     -7.249209    21A     -7.249197  
      22A     -0.981736    23A     -0.856568    24A     -0.856122  
      25A     -0.855675    26A     -0.632136    27A     -0.504010  
      28A     -0.503787    29A     -0.503565    30A     -0.379507  
      31A     -0.378924    32A     -0.353479    33A     -0.353306  
      34A     -0.353129    35A     -0.320185    36A     -0.320064  
      37A     -0.319942  

    Virtual:                                                              

      38A     -0.064617    39A     -0.010749    40A     -0.010063  
      41A     -0.009364    42A      0.251680    43A      0.290818  
      44A      0.291064    45A      0.291315    46A      0.293239  
      47A      0.293759    48A      0.335135    49A      0.335222  
      50A      0.335307    51A      0.360636    52A      0.360927  
      53A      0.361229    54A      0.376506    55A      0.376572  
      56A      0.399032    57A      0.399181    58A      0.399328  
      59A      0.414913    60A      0.418905    61A      0.419037  
      62A      0.419171    63A      0.453640    64A      0.454106  
      65A      0.454569    66A      0.514940    67A      0.515640  
      68A      0.587216    69A      0.587762    70A      0.588298  
      71A      0.677363    72A      0.678166    73A      0.678984  
      74A      0.761306    75A      0.848588    76A      0.849134  
      77A      0.849672    78A      1.010177    79A      1.010448  
      80A      1.010696    81A      1.100057    82A      1.101250  
      83A      1.277525    84A      1.316364    85A      1.317333  
      86A      1.318315    87A      1.915513    88A      1.915851  
      89A      1.916249    90A      1.921168    91A      1.922398  
      92A      1.923668    93A      2.016394    94A      2.016975  
      95A      2.031267    96A      2.035180    97A      2.035534  
      98A      2.035880    99A      2.045976   100A      2.046151  
     101A      2.046327   102A      2.050465   103A      2.053605  
     104A      2.053829   105A      2.054055   106A      2.101761  
     107A      2.101925   108A      2.102069   109A      2.213853  
     110A      2.214212   111A      2.225898   112A      2.226292  
     113A      2.226678   114A      2.256862   115A      2.338793  
     116A      2.339413   117A      2.340053   118A      2.342800  
     119A      2.343816   120A      2.344683   121A      2.348625  
     122A      2.349742   123A      2.542519   124A      2.544884  
     125A      2.547306   126A      2.640738   127A      2.641531  
     128A      2.642322   129A      2.710862   130A      2.712234  
     131A      2.713516   132A      2.725575   133A      2.831175  
     134A      2.831444   135A      3.377503   136A      3.379478  
     137A      3.381460   138A      3.461178   139A      3.545525  
     140A      3.548281   141A      3.561854   142A      3.563375  
     143A      3.564882   144A      3.833304   145A      3.836991  
     146A      3.840706  

    Final Occupation by Irrep:
              A 
    DOCC [    37 ]

  @DF-RKS Final Energy: -1878.86283705067467

   => Energetics <=

    Nuclear Repulsion Energy =            438.5119591143867410
    One-Electron Energy =               -3466.5691514579957584
    Two-Electron Energy =                1244.5988130231926334
    DFT Exchange-Correlation Energy =     -95.4044577302581729
    Empirical Dispersion Energy =           0.0000000000000000
    VV10 Nonlocal Energy =                  0.0000000000000000
    Total Energy =                      -1878.8628370506746705

Computation Completed


Properties will be evaluated at   0.000000,   0.000000,   0.000000 [a0]

Properties computed using the SCF density matrix

  Nuclear Dipole Moment: [e a0]
     X:     0.0000      Y:    -0.0000      Z:    -0.0000

  Electronic Dipole Moment: [e a0]
     X:     0.0000      Y:     0.0062      Z:    -0.0000

  Dipole Moment: [e a0]
     X:     0.0000      Y:     0.0062      Z:    -0.0000     Total:     0.0062

  Dipole Moment: [D]
     X:     0.0000      Y:     0.0157      Z:    -0.0000     Total:     0.0157


*** tstop() called on n044 at Thu Jan  6 09:55:44 2022
Module time:
	user time   =      41.01 seconds =       0.68 minutes
	system time =       0.44 seconds =       0.01 minutes
	total time  =         11 seconds =       0.18 minutes
Total time:
	user time   =      41.01 seconds =       0.68 minutes
	system time =       0.44 seconds =       0.01 minutes
	total time  =         11 seconds =       0.18 minutes
Grab this energy -1878.8628370506747
    Psi4 stopped on: Thursday, 06 January 2022 09:55AM
    Psi4 wall time for execution: 0:00:10.72

*** Psi4 exiting successfully. Buy a developer a beer!
