
    -----------------------------------------------------------------------
          Psi4: An Open-Source Ab Initio Electronic Structure Package
                               Psi4 1.4a2.dev629 

                         Git: Rev {master} 2938fc2 dirty


    D. G. A. Smith, L. A. Burns, A. C. Simmonett, R. M. Parrish,
    M. C. Schieber, R. Galvelis, P. Kraus, H. Kruse, R. Di Remigio,
    A. Alenaizan, A. M. James, S. Lehtola, J. P. Misiewicz, M. Scheurer,
    R. A. Shaw, J. B. Schriber, Y. Xie, Z. L. Glick, D. A. Sirianni,
    J. S. O'Brien, J. M. Waldrop, A. Kumar, E. G. Hohenstein,
    B. P. Pritchard, B. R. Brooks, H. F. Schaefer III, A. Yu. Sokolov,
    K. Patkowski, A. E. DePrince III, U. Bozkaya, R. A. King,
    F. A. Evangelista, J. M. Turney, T. D. Crawford, C. D. Sherrill,
    J. Chem. Phys. 152(18) 184108 (2020). https://doi.org/10.1063/5.0006002

                            Additional Code Authors
    E. T. Seidl, C. L. Janssen, E. F. Valeev, M. L. Leininger,
    J. F. Gonthier, R. M. Richard, H. R. McAlexander, M. Saitow, X. Wang,
    P. Verma, and M. H. Lechner

             Previous Authors, Complete List of Code Contributors,
                       and Citations for Specific Modules
    https://github.com/psi4/psi4/blob/master/codemeta.json
    https://github.com/psi4/psi4/graphs/contributors
    http://psicode.org/psi4manual/master/introduction.html#citing-psifour

    -----------------------------------------------------------------------


    Psi4 started on: Thursday, 06 January 2022 09:53AM

    Process ID: 15764
    Host:       n040
    PSIDATADIR: /opt/psi/4/master/share/psi4
    Memory:     500.0 MiB
    Threads:    4
    
  ==> Input File <==

--------------------------------------------------------------------------
import os
memory 28 GB 
 
molecule {
 C    0.0000000000    0.0000000000    0.0040241762
 Cl   -0.0000000000   -2.7327289236    1.9313411901
 Cl    0.0000000000    2.7327289236    1.9313411901
 Cl    2.7327611554   -0.0000000000   -1.9333532586
 Cl   -2.7327611554   -0.0000000000   -1.9333532586
units bohr
}

basis {

assign 6-31g_2dfp_

[ 6-31g_2dfp_ ]

spherical

!----------------------------------------------------------------------
! Basis Set Exchange
! Version v0.8.13
! https://www.basissetexchange.org
!----------------------------------------------------------------------
!   Basis set: 6-31G(2df,p)
! Description: 6-31G(2df,p)
!        Role: orbital
!     Version: 0  (Data from the original Basis Set Exchange)
!----------------------------------------------------------------------


****
H     0
S    3   1.00
     18.7311370              0.03349460
      2.8253937              0.23472695
      0.6401217              0.81375733
S    1   1.00
      0.1612778              1.00000000
P    1   1.00
      1.5000000              1.0000000
P    1   1.00
      0.3750000              1.0000000
****
B     0
S    6   1.00
   2068.8823000              0.0018663
    310.6495700              0.0142515
     70.6830330              0.0695516
     19.8610800              0.2325729
      6.2993048              0.4670787
      2.1270270              0.3634314
SP   3   1.00
      4.7279710             -0.1303938              0.0745976
      1.1903377             -0.1307889              0.3078467
      0.3594117              1.1309444              0.7434568
SP   1   1.00
      0.1267512              1.0000000              1.0000000
D    1   1.00
      0.8020000              1.0000000
D    1   1.00
      0.2005000              1.0000000
F    1   1.00
      0.5000000              1.0000000
****
C     0
S    6   1.00
   3047.5249000              0.0018347
    457.3695100              0.0140373
    103.9486900              0.0688426
     29.2101550              0.2321844
      9.2866630              0.4679413
      3.1639270              0.3623120
SP   3   1.00
      7.8682724             -0.1193324              0.0689991
      1.8812885             -0.1608542              0.3164240
      0.5442493              1.1434564              0.7443083
SP   1   1.00
      0.1687144              1.0000000              1.0000000
D    1   1.00
      1.2520000              1.0000000
D    1   1.00
      0.3130000              1.0000000
F    1   1.00
      0.8000000              1.0000000
****
N     0
S    6   1.00
   4173.5110000              0.0018348
    627.4579000              0.0139950
    142.9021000              0.0685870
     40.2343300              0.2322410
     12.8202100              0.4690700
      4.3904370              0.3604550
SP   3   1.00
     11.6263580             -0.1149610              0.0675800
      2.7162800             -0.1691180              0.3239070
      0.7722180              1.1458520              0.7408950
SP   1   1.00
      0.2120313              1.0000000              1.0000000
D    1   1.00
      1.8260000              1.0000000
D    1   1.00
      0.4565000              1.0000000
F    1   1.00
      1.0000000              1.0000000
****
O     0
S    6   1.00
   5484.6717000              0.0018311
    825.2349500              0.0139501
    188.0469600              0.0684451
     52.9645000              0.2327143
     16.8975700              0.4701930
      5.7996353              0.3585209
SP   3   1.00
     15.5396160             -0.1107775              0.0708743
      3.5999336             -0.1480263              0.3397528
      1.0137618              1.1307670              0.7271586
SP   1   1.00
      0.2700058              1.0000000              1.0000000
D    1   1.00
      2.5840000              1.0000000
D    1   1.00
      0.6460000              1.0000000
F    1   1.00
      1.4000000              1.0000000
****
F     0
S    6   1.00
   7001.7130900              0.0018196169
   1051.3660900              0.0139160796
    239.2856900              0.0684053245
     67.3974453              0.233185760
     21.5199573              0.471267439
      7.40310130             0.356618546
SP   3   1.00
     20.8479528             -0.108506975            0.0716287243
      4.80830834            -0.146451658            0.3459121030
      1.34406986             1.128688580            0.7224699570
SP   1   1.00
      0.358151393            1.0000000              1.0000000
D    1   1.00
      3.5000000              1.0000000
D    1   1.00
      0.8750000              1.0000000
F    1   1.00
      1.8500000              1.0000000
****
Al     0
S    6   1.00
  13983.1000000              0.00194267
   2098.7500000              0.0148599
    477.7050000              0.0728494
    134.3600000              0.2468300
     42.8709000              0.4872580
     14.5189000              0.3234960
SP   6   1.00
    239.6680000             -0.00292619             0.00460285
     57.4419000             -0.0374080              0.0331990
     18.2859000             -0.1144870              0.1362820
      6.5991400              0.1156350              0.3304760
      2.4904900              0.6125950              0.4491460
      0.9445400              0.3937990              0.2657040
SP   3   1.00
      1.2779000             -0.2276060             -0.0175130
      0.3975900              0.00144583             0.2445330
      0.1600950              1.0927900              0.8049340
SP   1   1.00
      0.0556577              1.0000000              1.0000000
D    1   1.00
      0.6500000              1.0000000
D    1   1.00
      0.1625000              1.0000000
F    1   1.00
      0.2500000              1.0000000
****
Si     0
S    6   1.00
  16115.9000000              0.00195948
   2425.5800000              0.01492880
    553.8670000              0.07284780
    156.3400000              0.24613000
     50.0683000              0.48591400
     17.0178000              0.32500200
SP   6   1.00
    292.7180000             -0.00278094             0.00443826
     69.8731000             -0.03571460             0.03266790
     22.3363000             -0.11498500             0.13472100
      8.1503900              0.09356340             0.32867800
      3.1345800              0.60301700             0.44964000
      1.2254300              0.41895900             0.26137200
SP   3   1.00
      1.7273800             -0.24463000            -0.01779510
      0.5729220              0.00431572             0.25353900
      0.2221920              1.09818000             0.80066900
SP   1   1.00
      0.0778369              1.00000000             1.00000000
D    1   1.00
      0.9000000              1.0000000
D    1   1.00
      0.2250000              1.0000000
F    1   1.00
      0.3200000              1.0000000
****
P     0
S    6   1.00
  19413.3000000              0.0018516
   2909.4200000              0.0142062
    661.3640000              0.0699995
    185.7590000              0.2400790
     59.1943000              0.4847620
     20.0310000              0.3352000
SP   6   1.00
    339.4780000             -0.00278217             0.00456462
     81.0101000             -0.0360499              0.03369360
     25.8780000             -0.1166310              0.13975500
      9.4522100              0.0968328              0.33936200
      3.6656600              0.6144180              0.45092100
      1.4674600              0.4037980              0.23858600
SP   3   1.00
      2.1562300             -0.2529230             -0.01776530
      0.7489970              0.0328517              0.27405800
      0.2831450              1.0812500              0.78542100
SP   1   1.00
      0.0998317              1.0000000              1.00000000
D    1   1.00
      1.1000000              1.0000000
D    1   1.00
      0.2750000              1.0000000
F    1   1.00
      0.4500000              1.0000000
****
S     0
S    6   1.00
  21917.1000000              0.0018690
   3301.4900000              0.0142300
    754.1460000              0.0696960
    212.7110000              0.2384870
     67.9896000              0.4833070
     23.0515000              0.3380740
SP   6   1.00
    423.7350000             -0.0023767              0.0040610
    100.7100000             -0.0316930              0.0306810
     32.1599000             -0.1133170              0.1304520
     11.8079000              0.0560900              0.3272050
      4.6311000              0.5922550              0.4528510
      1.8702500              0.4550060              0.2560420
SP   3   1.00
      2.6158400             -0.2503740             -0.0145110
      0.9221670              0.0669570              0.3102630
      0.3412870              1.0545100              0.7544830
SP   1   1.00
      0.1171670              1.0000000              1.0000000
D    1   1.00
      1.3000000              1.0000000
D    1   1.00
      0.3250000              1.0000000
F    1   1.00
      0.5500000              1.0000000
****
Cl     0
S    6   1.00
  25180.1000000              0.0018330
   3780.3500000              0.0140340
    860.4740000              0.0690970
    242.1450000              0.2374520
     77.3349000              0.4830340
     26.2470000              0.3398560
SP   6   1.00
    491.7650000             -0.0022974              0.0039894
    116.9840000             -0.0307140              0.0303180
     37.4153000             -0.1125280              0.1298800
     13.7834000              0.0450160              0.3279510
      5.4521500              0.5893530              0.4535270
      2.2258800              0.4652060              0.2521540
SP   3   1.00
      3.1864900             -0.2518300             -0.0142990
      1.1442700              0.0615890              0.3235720
      0.4203770              1.0601800              0.7435070
SP   1   1.00
      0.1426570              1.0000000              1.0000000
D    1   1.00
      1.5000000              1.0000000
D    1   1.00
      0.3750000              1.0000000
F    1   1.00
      0.7000000              1.0000000
****
}


set {
reference rhf                          
freeze_core true
e_convergence 10                       
d_convergence 10                      
dft_spherical_points 1202
dft_radial_points 99
}

e = energy('b3lyp')

print_out('Grab this energy {0}'.format(e))
--------------------------------------------------------------------------

  Memory set to  26.077 GiB by Python driver.

Scratch directory: /tmp/

*** tstart() called on n040
*** at Thu Jan  6 09:53:48 2022

   => Loading Basis Set <=

    Name: ANONYMOUS3E6E9DCC
    Role: ORBITAL
    Keyword: BASIS
    atoms 1   entry C          line    48 inputblock 6-31g_2dfp_ 
    atoms 2-5 entry CL         line   244 inputblock 6-31g_2dfp_ 


         ---------------------------------------------------------
                                   SCF
               by Justin Turney, Rob Parrish, Andy Simmonett
                          and Daniel G. A. Smith
                              RKS Reference
                        4 Threads,  26702 MiB Core
         ---------------------------------------------------------

  ==> Geometry <==

    Molecular point group: c2v
    Full point group: C2v

    Geometry (in Bohr), charge = 0, multiplicity = 1:

       Center              X                  Y                   Z               Mass       
    ------------   -----------------  -----------------  -----------------  -----------------
         C            0.000000000000     0.000000000000     0.004632762798    12.000000000000
         CL           0.000000000000    -2.732728923600     1.931949776698    34.968852682000
         CL          -0.000000000000     2.732728923600     1.931949776698    34.968852682000
         CL           2.732761155400     0.000000000000    -1.932744672002    34.968852682000
         CL          -2.732761155400    -0.000000000000    -1.932744672002    34.968852682000

  Running in c2v symmetry.

  Rotational constants: A =      0.05763  B =      0.05763  C =      0.05763 [cm^-1]
  Rotational constants: A =   1727.73338  B =   1727.72783  C =   1727.71300 [MHz]
  Nuclear repulsion =  439.166341210125552

  Charge       = 0
  Multiplicity = 1
  Electrons    = 74
  Nalpha       = 37
  Nbeta        = 37

  ==> Algorithm <==

  SCF Algorithm Type is DF.
  DIIS enabled.
  MOM disabled.
  Fractional occupation disabled.
  Guess Type is SAD.
  Energy threshold   = 1.00e-10
  Density threshold  = 1.00e-10
  Integral threshold = 0.00e+00

  ==> Primary Basis <==

  Basis Set: ANONYMOUS3E6E9DCC
    Blend: 6-31G_2DFP_
    Number of shells: 48
    Number of basis function: 146
    Number of Cartesian functions: 171
    Spherical Harmonics?: true
    Max angular momentum: 3

  ==> DFT Potential <==

   => Composite Functional: B3LYP <= 

    B3LYP Hyb-GGA Exchange-Correlation Functional

    P. J. Stephens, F. J. Devlin, C. F. Chabalowski, and M. J. Frisch, J. Phys. Chem. 98, 11623 (1994)

    Deriv               =              1
    GGA                 =           TRUE
    Meta                =          FALSE

    Exchange Hybrid     =           TRUE
    MP2 Hybrid          =          FALSE

   => Exchange Functionals <=

    0.0800   Slater exchange
    0.7200         Becke 88

   => Exact (HF) Exchange <=

    0.2000               HF 

   => Correlation Functionals <=

    0.1900   Vosko, Wilk & Nusair (VWN5_RPA)
    0.8100   Lee, Yang & Parr

   => Molecular Quadrature <=

    Radial Scheme          =       TREUTLER
    Pruning Scheme         =           NONE
    Nuclear Scheme         =       TREUTLER

    BS radius alpha        =              1
    Pruning alpha          =              1
    Radial Points          =             99
    Spherical Points       =           1202
    Total Points           =         534240
    Total Blocks           =           3895
    Max Points             =            256
    Max Functions          =            142
    Weights Tolerance      =       1.00E-15

   => Loading Basis Set <=

    Name: (ANONYMOUS3E6E9DCC AUX)
    Role: JKFIT
    Keyword: DF_BASIS_SCF
    atoms 1   entry C          line   198 file /opt/psi/4/master/share/psi4/basis/def2-universal-jkfit.gbs 
    atoms 2-5 entry CL         line   986 file /opt/psi/4/master/share/psi4/basis/def2-universal-jkfit.gbs 

  ==> Integral Setup <==

  DFHelper Memory: AOs need 0.099 GiB; user supplied 17.860 GiB. Using in-core AOs.

  ==> MemDFJK: Density-Fitted J/K Matrices <==

    J tasked:                   Yes
    K tasked:                   Yes
    wK tasked:                   No
    OpenMP threads:               4
    Memory [MiB]:             18288
    Algorithm:                 Core
    Schwarz Cutoff:           1E-12
    Mask sparsity (%):       2.1205
    Fitting Condition:        1E-10

   => Auxiliary Basis Set <=

  Basis Set: (ANONYMOUS3E6E9DCC AUX)
    Blend: DEF2-UNIVERSAL-JKFIT
    Number of shells: 177
    Number of basis function: 587
    Number of Cartesian functions: 709
    Spherical Harmonics?: true
    Max angular momentum: 4

  Cached 100.0% of DFT collocation blocks in 1.698 [GiB].

  Minimum eigenvalue in the overlap matrix is 6.3207730646E-03.
  Reciprocal condition number of the overlap matrix is 1.5327729529E-03.
    Using symmetric orthogonalization.

  ==> Pre-Iterations <==

  SCF Guess: Superposition of Atomic Densities via on-the-fly atomic UHF (no occupation information).

   -------------------------
    Irrep   Nso     Nmo    
   -------------------------
     A1        51      51 
     A2        23      23 
     B1        36      36 
     B2        36      36 
   -------------------------
    Total     146     146
   -------------------------

  ==> Iterations <==

                           Total Energy        Delta E     RMS |[F,P]|

   @DF-RKS iter SAD: -1878.96810512071102   -1.87897e+03   0.00000e+00 
   @DF-RKS iter   1: -1878.82847939992052    1.39626e-01   3.34758e-03 DIIS
   @DF-RKS iter   2: -1878.82094899949971    7.53040e-03   3.94967e-03 DIIS
   @DF-RKS iter   3: -1878.85670062347072   -3.57516e-02   1.44752e-03 DIIS
   @DF-RKS iter   4: -1878.86267721262311   -5.97659e-03   1.45444e-04 DIIS
   @DF-RKS iter   5: -1878.86273573990366   -5.85273e-05   2.63803e-05 DIIS
   @DF-RKS iter   6: -1878.86273763055783   -1.89065e-06   1.51187e-06 DIIS
   @DF-RKS iter   7: -1878.86273763589202   -5.33419e-09   9.31996e-07 DIIS
   @DF-RKS iter   8: -1878.86273763895656   -3.06454e-09   1.12073e-07 DIIS
   @DF-RKS iter   9: -1878.86273763900317   -4.66116e-11   8.49518e-09 DIIS
   @DF-RKS iter  10: -1878.86273763900203    1.13687e-12   3.02465e-09 DIIS
   @DF-RKS iter  11: -1878.86273763900340   -1.36424e-12   3.60476e-10 DIIS
   @DF-RKS iter  12: -1878.86273763900363   -2.27374e-13   1.21889e-10 DIIS
   @DF-RKS iter  13: -1878.86273763900249    1.13687e-12   7.86210e-12 DIIS
  Energy and wave function converged.


  ==> Post-Iterations <==

    Orbital Energies [Eh]
    ---------------------

    Doubly Occupied:                                                      

       1B2  -101.566900     1A1  -101.566883     1B1  -101.566377  
       2A1  -101.566360     3A1   -10.424475     2B2    -9.496176  
       4A1    -9.496131     2B1    -9.495641     5A1    -9.495587  
       3B2    -7.259738     6A1    -7.259732     3B1    -7.259208  
       7A1    -7.259201     1A2    -7.249582     8A1    -7.249577  
       4B2    -7.249562     4B1    -7.249559     2A2    -7.249045  
       9A1    -7.249041     5B1    -7.249028     5B2    -7.249022  
      10A1    -0.982917     6B2    -0.856908    11A1    -0.856440  
       6B1    -0.855976    12A1    -0.632030     7B2    -0.504528  
      13A1    -0.504313     7B1    -0.504101     3A2    -0.379441  
      14A1    -0.379440     8B2    -0.353485    15A1    -0.353330  
       8B1    -0.353178     9B2    -0.319989     4A2    -0.319862  
       9B1    -0.319735  

    Virtual:                                                              

      16A1    -0.063399    10B1    -0.009868    17A1    -0.009272  
      10B2    -0.008676    18A1     0.251889    11B2     0.290862  
      19A1     0.291156    11B1     0.291447    20A1     0.293302  
       5A2     0.293302    12B2     0.335059    21A1     0.335113  
      12B1     0.335167    13B1     0.360365    22A1     0.360540  
      13B2     0.360712     6A2     0.376431    23A1     0.376433  
      14B2     0.399164    24A1     0.399278    14B1     0.399390  
      25A1     0.415437    15B2     0.419048     7A2     0.419183  
      15B1     0.419317    16B2     0.454203     8A2     0.454298  
      16B1     0.454395    26A1     0.515853     9A2     0.515854  
      17B1     0.588817    27A1     0.588935    17B2     0.589052  
      18B2     0.678949    10A2     0.679065    18B1     0.679182  
      28A1     0.763251    19B2     0.849749    29A1     0.849779  
      19B1     0.849814    20B1     1.011549    30A1     1.012006  
      20B2     1.012474    31A1     1.102628    11A2     1.102630  
      32A1     1.276554    21B1     1.317440    33A1     1.317775  
      21B2     1.318087    22B1     1.916492    12A2     1.916587  
      22B2     1.916643    23B1     1.921791    34A1     1.922082  
      23B2     1.922431    35A1     2.016611    13A2     2.016615  
      36A1     2.030963    24B1     2.035267    14A2     2.035411  
      24B2     2.035558    25B2     2.045950    37A1     2.046196  
      25B1     2.046436    15A2     2.050620    26B2     2.054147  
      16A2     2.054299    26B1     2.054444    27B1     2.102920  
      38A1     2.103145    27B2     2.103378    39A1     2.214672  
      17A2     2.214677    28B1     2.227547    40A1     2.227708  
      28B2     2.227860    41A1     2.259711    29B2     2.339972  
      18A2     2.340009    29B1     2.340069    30B2     2.344247  
      42A1     2.344502    30B1     2.344767    43A1     2.349812  
      19A2     2.349821    31B2     2.547968    20A2     2.548020  
      31B1     2.548074    32B2     2.641455    44A1     2.641667  
      32B1     2.641925    33B1     2.713912    45A1     2.714445  
      33B2     2.715052    46A1     2.723734    21A2     2.834436  
      47A1     2.834442    34B2     3.381412    48A1     3.382932  
      34B1     3.384470    49A1     3.465534    22A2     3.545422  
      50A1     3.545446    35B1     3.565267    23A2     3.567184  
      35B2     3.569109    36B1     3.838785    51A1     3.840899  
      36B2     3.842966  

    Final Occupation by Irrep:
             A1    A2    B1    B2 
    DOCC [    15,    4,    9,    9 ]

  @DF-RKS Final Energy: -1878.86273763900249

   => Energetics <=

    Nuclear Repulsion Energy =            439.1663412101255517
    One-Electron Energy =               -3467.8746397054801491
    Two-Electron Energy =                1245.2534581859265472
    DFT Exchange-Correlation Energy =     -95.4078973295744817
    Empirical Dispersion Energy =           0.0000000000000000
    VV10 Nonlocal Energy =                  0.0000000000000000
    Total Energy =                      -1878.8627376390024892

Computation Completed


Properties will be evaluated at   0.000000,   0.000000,   0.000000 [a0]

Properties computed using the SCF density matrix

  Nuclear Dipole Moment: [e a0]
     X:     0.0000      Y:     0.0000      Z:     0.0008

  Electronic Dipole Moment: [e a0]
     X:     0.0000      Y:     0.0000      Z:     0.0061

  Dipole Moment: [e a0]
     X:     0.0000      Y:     0.0000      Z:     0.0068     Total:     0.0068

  Dipole Moment: [D]
     X:     0.0000      Y:     0.0000      Z:     0.0174     Total:     0.0174


*** tstop() called on n040 at Thu Jan  6 09:54:01 2022
Module time:
	user time   =      52.77 seconds =       0.88 minutes
	system time =       0.53 seconds =       0.01 minutes
	total time  =         13 seconds =       0.22 minutes
Total time:
	user time   =      52.77 seconds =       0.88 minutes
	system time =       0.53 seconds =       0.01 minutes
	total time  =         13 seconds =       0.22 minutes
Grab this energy -1878.8627376390025
    Psi4 stopped on: Thursday, 06 January 2022 09:54AM
    Psi4 wall time for execution: 0:00:13.72

*** Psi4 exiting successfully. Buy a developer a beer!
