
 Primary working directories    : /tmp/879303.638.gen4.q
 Secondary working directories  : /tmp/879303.638.gen4.q
 Wavefunction directory         : /home/vulcan/lo21740/wfu/
 Main file repository           : /tmp/879303.638.gen4.q/

 ARCHNAME  : Linux/x86_64
 FC        : /opt/intel/compilers_and_libraries_2016.1.150/linux/bin/intel64/ifort
 FCVERSION : 16.0.1
 BLASLIB   : -mkl
 id        : ccgc

 Nodes     nprocs
 n058         1
 ga_uses_ma=false, calling ma_init with nominal heap.
 GA-space will be limited to   8.0 MW (determined by -G option)

 Using customized tuning parameters: mindgm=10; mindgv=16; mindgc=4; mindgr=1; noblas=0; mincuda=1000; minvec=7
 default implementation of scratch files=df  

 ***,Optimization of formamide
 memory,1000,m
 gthresh,energy=1.0d-12,orbital=1.0d-10,oneint=1.0d-16,twoint=1.0d-16,optgrad=1.0d-6,compress=1.0d-13
 geomtyp=xyz
 
 bohr
 geometry = {
  C   -3.8267683567    0.0878245844    0.0000000000
  O   -2.7332354040    2.1340433275    0.0000000000
  N   -2.6822934348   -2.1770681749   -0.0000000000
  H   -3.7366642404   -3.7560026844    0.0000000000
  H   -0.7526547896   -2.3054653198   -0.0000000000
  H   -5.8978325104   -0.0170289395    0.0000000000
  C    3.8248275270   -0.0848586768    0.0000000000
  O    2.7271924049   -2.1438699067    0.0000000000
  N    2.6804271912    2.1818108147    0.0000000000
  H    3.7415018301    3.7560902823    0.0000000000
  H    0.7487097462    2.3046798899    0.0000000000
  H    5.9067900365    0.0198448033   -0.0000000000
 }
 
 basis=AVDZ, H=VDZ
 {rhf;maxit,200}
 {ccsd(t);maxit,200}

 Variables initialized (661), CPU time= 0.00 sec
 Commands  initialized (458), CPU time= 0.01 sec, 486 directives.
 Default parameters read. Elapsed time= 0.04 sec

 Checking input...
 Passed
1


                                         ***  PROGRAM SYSTEM MOLPRO  ***
                         Copyright, University College Cardiff Consultants Limited, 2008

                                    Version 2010.1 linked May 16 2016 07:17:05


 **********************************************************************************************************************************
 LABEL *   Optimization of formamide                                                     
 Linux-4.4.3/n058(x86_64) 64 bit mpp version                                             DATE: 23-May-23          TIME: 18:11:53  
 **********************************************************************************************************************************

 SHA1:             9e8077add272b0f3cad6f7df79ec5211205f459d
 **********************************************************************************************************************************

 THRESHOLDS:

 ZERO    =  1.00D-12  ONEINT  =  1.00D-16  TWOINT  =  1.00D-16  PREFAC  =  1.00D-14  LOCALI  =  1.00D-09  EORDER  =  1.00D-04
 ENERGY  =  1.00D-12  ETEST   =  0.00D+00  EDENS   =  0.00D+00  THRDEDEF=  1.00D-06  GRADIENT=  1.00D-02  STEP    =  1.00D-03
 ORBITAL =  1.00D-10  CIVEC   =  1.00D-05  COEFF   =  1.00D-04  PRINTCI =  5.00D-02  PUNCHCI =  9.90D+01  OPTGRAD =  1.00D-06
 OPTENERG=  1.00D-06  OPTSTEP =  3.00D-04  THRGRAD =  1.00D-10  COMPRESS=  1.00D-13  VARMIN  =  1.00D-07  VARMAX  =  1.00D-03
 THRDOUB =  0.00D+00  THRDIV  =  1.00D-05  THRRED  =  1.00D-07  THRPSP  =  1.00D+00  THRDC   =  1.00D-10  THRCS   =  1.00D-10
 THRNRM  =  1.00D-08  THREQ   =  0.00D+00  THRDE   =  1.00D+00  THRREF  =  1.00D-05  SPARFAC =  1.00D+00  THRDLP  =  1.00D-07
 THRDIA  =  1.00D-10  THRDLS  =  1.00D-07  THRGPS  =  0.00D+00  THRKEX  =  0.00D+00  THRDIS  =  2.00D-01  THRVAR  =  1.00D-10
 THRLOC  =  1.00D-06  THRGAP  =  1.00D-06  THRLOCT = -1.00D+00  THRGAPT = -1.00D+00  THRORB  =  1.00D-06  THRMLTP =  0.00D+00
 THRCPQCI=  1.00D-10  KEXTA   =  0.00D+00  THRCOARS=  0.00D+00  SYMTOL  =  1.00D-06  GRADTOL =  1.00D-06  THROVL  =  1.00D-08
 THRORTH =  1.00D-08  GRID    =  1.00D-06  GRIDMAX =  1.00D-03  DTMAX   =  0.00D+00

 SETTING GEOMTYP        =    XYZ
 ZUNIT=BOHR
 

 Variable memory set to 1000000000 words,  buffer space   230000 words

 SETTING BASIS          =    AVDZ,H=VDZ


 Recomputing integrals since basis changed


 Using spherical harmonics

 Library entry C      S aug-cc-pVDZ          selected for orbital group  1
 Library entry C      P aug-cc-pVDZ          selected for orbital group  1
 Library entry C      D aug-cc-pVDZ          selected for orbital group  1
 Library entry O      S aug-cc-pVDZ          selected for orbital group  2
 Library entry O      P aug-cc-pVDZ          selected for orbital group  2
 Library entry O      D aug-cc-pVDZ          selected for orbital group  2
 Library entry N      S aug-cc-pVDZ          selected for orbital group  3
 Library entry N      P aug-cc-pVDZ          selected for orbital group  3
 Library entry N      D aug-cc-pVDZ          selected for orbital group  3
 Library entry H      S cc-pVDZ              selected for orbital group  4
 Library entry H      P cc-pVDZ              selected for orbital group  4

1PROGRAM * SEWARD (Integral evaluation for generally contracted gaussian basis sets)     Author: Roland Lindh, 1990

 Geometry written to block  1 of record 700


 Point group  Cs  



 ATOMIC COORDINATES

 NR  ATOM    CHARGE       X              Y              Z

   1  C       6.00   -3.826768357    0.087824584    0.000000000
   2  O       8.00   -2.733235404    2.134043328    0.000000000
   3  N       7.00   -2.682293435   -2.177068175    0.000000000
   4  H       1.00   -3.736664240   -3.756002684    0.000000000
   5  H       1.00   -0.752654790   -2.305465320    0.000000000
   6  H       1.00   -5.897832510   -0.017028939    0.000000000
   7  C       6.00    3.824827527   -0.084858677    0.000000000
   8  O       8.00    2.727192405   -2.143869907    0.000000000
   9  N       7.00    2.680427191    2.181810815    0.000000000
  10  H       1.00    3.741501830    3.756090282    0.000000000
  11  H       1.00    0.748709746    2.304679890    0.000000000
  12  H       1.00    5.906790037    0.019844803    0.000000000

 Bond lengths in Bohr (Angstrom)

 1-2  2.320091693  1-3  2.537629220  1-6  2.073716709  3-4  1.898613173  3-5  1.933905667
     ( 1.227739647)     ( 1.342855548)     ( 1.097363620)     ( 1.004702820)     ( 1.023378803)

  7- 8  2.333308832   7- 9  2.539181504   7-12  2.084593656   9-10  1.898482350   9-11  1.935621114
       ( 1.234733856)       ( 1.343676982)       ( 1.103119453)       ( 1.004633591)       ( 1.024286579)

 Bond angles

  1-3-4  119.45808049   1-3-5  120.61478540   2-1-3  125.07125396   2-1-6  121.01906769

  3- 1- 6  113.90967835   4- 3- 5  119.92713411   7- 9-10  119.23139023   7- 9-11  120.42784257

  8- 7- 9  125.15005497   8- 7-12  120.94058542   9- 7-12  113.90935961  10- 9-11  120.34076720

 NUCLEAR CHARGE:                   48
 NUMBER OF PRIMITIVE AOS:         264
 NUMBER OF SYMMETRY AOS:          252
 NUMBER OF CONTRACTIONS:          168   ( 120A'  +  48A"  )
 NUMBER OF CORE ORBITALS:           6   (   6A'  +   0A"  )
 NUMBER OF VALENCE ORBITALS:       30   (  24A'  +   6A"  )


 NUCLEAR REPULSION ENERGY  230.50449339


 Eigenvalues of metric

         1 0.417E-03 0.626E-03 0.114E-02 0.135E-02 0.161E-02 0.168E-02 0.366E-02 0.437E-02
         2 0.210E-01 0.257E-01 0.334E-01 0.381E-01 0.523E-01 0.592E-01 0.104E+00 0.140E+00


 Contracted 2-electron integrals neglected if value below      1.0D-16
 AO integral compression algorithm  1   Integral accuracy      1.0D-16

     435.683 MB (compressed) written to integral file ( 92.6%)

     Node minimum: 435.683 MB, node maximum: 435.683 MB


 NUMBER OF SORTED TWO-ELECTRON INTEGRALS:   52662786.     BUFFER LENGTH:  32768
 NUMBER OF SEGMENTS:   4  SEGMENT LENGTH:   15997996      RECORD LENGTH: 524288

 Memory used in sort:      16.56 MW

 SORT1 READ    58804141. AND WROTE    51996597. INTEGRALS IN    151 RECORDS. CPU TIME:     0.67 SEC, REAL TIME:     1.01 SEC
 SORT2 READ    51996597. AND WROTE    52662786. INTEGRALS IN   1662 RECORDS. CPU TIME:     0.44 SEC, REAL TIME:     0.68 SEC

 FILE SIZES:   FILE 1:   399.7 MBYTE,  FILE 4:   633.4 MBYTE,   TOTAL:   1033.1 MBYTE

 OPERATOR DM      FOR CENTER  0  COORDINATES:    0.000000    0.000000    0.000000


 **********************************************************************************************************************************
 DATASETS  * FILE   NREC   LENGTH (MB)   RECORD NAMES
              1      19      399.93       500      610      700      900      950      970     1000      129      960     1100   
                                          VAR    BASINP    GEOM    SYMINP    ZMAT    AOBASIS   BASIS     P2S    ABASIS      S 
                                         1400     1410     1200     1210     1080     1600     1650     1300     1700   
                                           T        V       H0       H01     AOSYM     SMH    MOLCAS    ERIS     OPER   

 PROGRAMS   *        TOTAL       INT
 CPU TIMES  *         6.02      5.97
 REAL TIME  *         7.01 SEC
 DISK USED  *         1.47 GB      
 GA USED    *         0.00 MB       (max)       0.00 MB       (current)
 **********************************************************************************************************************************

1PROGRAM * RHF-SCF (CLOSED SHELL)       Authors: W. Meyer, H.-J. Werner


 NUMBER OF ELECTRONS:      24+   24-
 CONVERGENCE THRESHOLDS:    1.00E-10 (Density)    1.00E-13 (Energy)
 MAX. NUMBER OF ITERATIONS:      200
 INTERPOLATION TYPE:            DIIS
 INTERPOLATION STEPS:              2 (START)      1 (STEP)
 LEVEL SHIFTS:                  0.00 (CLOSED)  0.00 (OPEN) 



 Orbital guess generated from atomic densities. Full valence occupancy:   30   6

 Molecular orbital dump at record        2100.2

 Initial alpha occupancy:  20   4
 Initial beta  occupancy:  20   4
 Wave function symmetry:    1

 ITERATION    DDIFF          GRAD             ENERGY        2-EL.EN.            DIPOLE MOMENTS         DIIS
    1      0.000D+00      0.000D+00      -337.80390033    704.670829    0.00968    0.02830    0.00000    0
    2      0.000D+00      0.834D-02      -337.88135160    699.071407    0.00175    0.00804    0.00000    1
    3      0.159D-01      0.608D-02      -337.93911077    701.809957    0.00567    0.01971    0.00000    2
    4      0.631D-02      0.803D-03      -337.94132063    701.713098    0.00450    0.01598    0.00000    3
    5      0.139D-02      0.276D-03      -337.94158767    701.647402    0.00503    0.01800    0.00000    4
    6      0.498D-03      0.907D-04      -337.94164862    701.672936    0.00476    0.01687    0.00000    5
    7      0.215D-03      0.402D-04      -337.94165951    701.664213    0.00497    0.01765    0.00000    6
    8      0.106D-03      0.124D-04      -337.94166044    701.669053    0.00478    0.01688    0.00000    7
    9      0.319D-04      0.524D-05      -337.94166054    701.668022    0.00492    0.01740    0.00000    8
   10      0.989D-05      0.186D-05      -337.94166056    701.667315    0.00488    0.01726    0.00000    8
   11      0.466D-05      0.639D-06      -337.94166056    701.667730    0.00489    0.01729    0.00000    8
   12      0.140D-05      0.169D-06      -337.94166056    701.667675    0.00489    0.01729    0.00000    8
   13      0.482D-06      0.483D-07      -337.94166056    701.667662    0.00489    0.01729    0.00000    8
   14      0.110D-06      0.204D-07      -337.94166056    701.667669    0.00489    0.01729    0.00000    8
   15      0.454D-07      0.371D-08      -337.94166056    701.667669    0.00489    0.01729    0.00000    8
   16      0.100D-07      0.103D-08      -337.94166056    701.667668    0.00489    0.01729    0.00000    8
   17      0.217D-08      0.337D-09      -337.94166056    701.667669    0.00489    0.01729    0.00000    7
   18      0.720D-09      0.112D-09      -337.94166056    701.667669    0.00489    0.01729    0.00000    7
   19      0.261D-09      0.436D-10      -337.94166056    701.667669    0.00489    0.01729    0.00000    8
   20      0.957D-10      0.195D-10      -337.94166056    701.667669    0.00489    0.01729    0.00000    8
   21      0.491D-10      0.649D-11      -337.94166056    701.667669    0.00489    0.01729    0.00000    0

 Final occupancy:  20   4

 !RHF STATE 1.1 Energy               -337.941660560918
 Nuclear energy                       230.50449339
 One-electron energy                 -919.27998821
 Two-electron energy                  350.83383426
 Virial quotient                       -1.00176608
 !RHF STATE 1.1 Dipole moment           0.00488784     0.01728650     0.00000000
 Dipole moment /Debye                   0.01242282     0.04393503     0.00000000

 Orbital energies:

         1.1          2.1          3.1          4.1          5.1          6.1          7.1          8.1          9.1         10.1
    -20.540892   -20.540745   -15.590245   -15.588586   -11.369322   -11.367423    -1.390218    -1.383826    -1.218539    -1.212323

        11.1         12.1         13.1         14.1         15.1         16.1         17.1         18.1         19.1         20.1
     -0.860877    -0.835697    -0.749817    -0.740834    -0.705821    -0.645016    -0.619266    -0.593644    -0.454334    -0.429049

        21.1         22.1
      0.067988     0.068847

         1.2          2.2          3.2          4.2          5.2          6.2
     -0.573869    -0.565620    -0.420385    -0.409811     0.094003     0.104148


 **********************************************************************************************************************************
 DATASETS  * FILE   NREC   LENGTH (MB)   RECORD NAMES
              1      19      399.93       500      610      700      900      950      970     1000      129      960     1100   
                                          VAR    BASINP    GEOM    SYMINP    ZMAT    AOBASIS   BASIS     P2S    ABASIS      S 
                                         1400     1410     1200     1210     1080     1600     1650     1300     1700   
                                           T        V       H0       H01     AOSYM     SMH    MOLCAS    ERIS     OPER   

              2       3        0.80       700     1000     2100   
                                         GEOM     BASIS     RHF  

 PROGRAMS   *        TOTAL       RHF       INT
 CPU TIMES  *        12.74      6.72      5.97
 REAL TIME  *        14.70 SEC
 DISK USED  *         1.47 GB      
 GA USED    *         0.00 MB       (max)       0.00 MB       (current)
 **********************************************************************************************************************************


1PROGRAM * CCSD (Closed-shell coupled cluster)     Authors: C. Hampel, H.-J. Werner, 1991, M. Deegan, P.J. Knowles, 1992


 Convergence thresholds:  THRVAR = 1.00D-08  THRDEN = 1.00D-12

 CCSD(T)     terms to be evaluated (factor= 1.000)


 Number of core orbitals:           6 (   6   0 )
 Number of closed-shell orbitals:  18 (  14   4 )
 Number of external orbitals:     144 ( 100  44 )

 Molecular orbitals read from record     2100.2  Type=RHF/CANONICAL (state 1.1)

 Number of N-1 electron functions:              18
 Number of N-2 electron functions:             171
 Number of singly external CSFs:              1576
 Number of doubly external CSFs:           1759312
 Total number of CSFs:                     1760889

 Length of J-op  integral file:               0.00 MB
 Length of K-op  integral file:               1.19 MB
 Length of 3-ext integral record:             0.00 MB

 Memory could be reduced to 36.48 Mwords without degradation in triples

 Integral transformation finished. Total CPU:   2.03 sec, npass=  1  Memory used:  15.90 MW

 Reference energy:                   -337.94166056

 MP2 singlet pair energy:              -0.61957346
 MP2 triplet pair energy:              -0.40481632
 MP2 correlation energy:               -1.02438978
 MP2 total energy:                   -338.96605035

 SCS-MP2 correlation energy:           -0.99537387   (PS=  1.200000  PT=  0.333333)
 SCS-MP2 total energy:               -338.93703443

 ITER.      SQ.NORM     CORR.ENERGY   TOTAL ENERGY   ENERGY CHANGE        DEN1      VAR(S)    VAR(P)  DIIS     TIME
   1      1.31869122    -1.05310150  -338.99476206    -0.02871171     0.00239154  0.10D-01  0.60D-02  1  1     6.77
   2      1.34412906    -1.05504944  -338.99671000    -0.00194794    -0.02585868  0.22D-03  0.11D-02  2  2    11.63
   3      1.35669713    -1.05594399  -338.99760455    -0.00089455    -0.00554264  0.22D-03  0.51D-04  3  3    16.49
   4      1.36189233    -1.05568080  -338.99734136     0.00026319    -0.00168620  0.21D-04  0.92D-05  4  4    21.36
   5      1.36401613    -1.05562422  -338.99728478     0.00005658    -0.00044378  0.26D-05  0.11D-05  5  5    26.25
   6      1.36452386    -1.05559487  -338.99725543     0.00002935    -0.00004736  0.24D-06  0.17D-06  6  6    31.13
   7      1.36465135    -1.05558298  -338.99724354     0.00001189    -0.00000758  0.32D-07  0.22D-07  6  2    36.01
   8      1.36467546    -1.05558284  -338.99724340     0.00000014     0.00000003  0.57D-08  0.26D-08  6  1    40.89
   9      1.36467781    -1.05558255  -338.99724311     0.00000029     0.00000184  0.93D-09  0.46D-09  6  4    45.78
  10      1.36468193    -1.05558249  -338.99724305     0.00000006    -0.00000045  0.26D-09  0.47D-10  6  3    50.67
  11      1.36468215    -1.05558256  -338.99724313    -0.00000008     0.00000016  0.39D-10  0.11D-10  6  5    55.54
  12      1.36468195    -1.05558258  -338.99724314    -0.00000002     0.00000009  0.53D-11  0.26D-11  6  6    60.42
  13      1.36468165    -1.05558262  -338.99724318    -0.00000004     0.00000013  0.80D-12  0.35D-12  6  2    65.30
  14      1.36468149    -1.05558263  -338.99724319    -0.00000001     0.00000004  0.11D-12  0.69D-13  6  1    70.19
  15      1.36468143    -1.05558263  -338.99724320    -0.00000000     0.00000001  0.23D-13  0.14D-13  6  4    75.07
  16      1.36468140    -1.05558264  -338.99724320    -0.00000000     0.00000000  0.41D-14  0.23D-14  6  3    79.96
  17      1.36468139    -1.05558264  -338.99724320    -0.00000000    -0.00000000  0.11D-14  0.37D-15  6  5    84.84
  18      1.36468138    -1.05558264  -338.99724320    -0.00000000     0.00000000  0.15D-15  0.93D-16  6  6    89.72
  19      1.36468138    -1.05558264  -338.99724320    -0.00000000     0.00000000  0.41D-16  0.16D-16  6  2    94.59
  20      1.36468138    -1.05558264  -338.99724320    -0.00000000     0.00000000  0.76D-17  0.27D-17  6  1    99.47
  21      1.36468138    -1.05558264  -338.99724320    -0.00000000     0.00000000  0.14D-17  0.77D-18  6  4   104.36
  22      1.36468138    -1.05558264  -338.99724320     0.00000000     0.00000000  0.41D-18  0.19D-18  6  3   109.23
  23      1.36468138    -1.05558264  -338.99724320    -0.00000000     0.00000000  0.11D-18  0.31D-19  6  5   114.11
  24      1.36468138    -1.05558264  -338.99724320    -0.00000000    -0.00000000  0.20D-19  0.80D-20  6  6   118.98
  25      1.36468138    -1.05558264  -338.99724320     0.00000000    -0.00000000  0.46D-20  0.16D-20  6  4   123.86

 Norm of t1 vector:      0.14795653      S-energy:    -0.00000000      T1 diagnostic:  0.01743684
                                                                       D1 diagnostic:  0.05915186


 Total CPU time for triples:    111.91 sec


 RESULTS
 =======

  Reference energy                   -337.941660560918
  CCSD singlet pair energy             -0.696702927702
  CCSD triplet pair energy             -0.358879709678
  CCSD correlation energy              -1.055582637381

  Triples (T) contribution             -0.039272294541
  Total correlation energy             -1.094854931922

  CCSD total energy                  -338.997243198299
  CCSD[T] energy                     -339.039709283570
  CCSD-T energy                      -339.035419273165
 !CCSD(T) total energy               -339.036515492840

 Timing summary (sec):

 STEP                 CPU(USER)    SYS     CPU(TOT)    WALL
 Transformation          2.10      0.24      2.34      2.34
 CCSD iterations       121.77      3.39    125.16    126.44
 Triples               111.91      2.75    114.66    114.68

 Program statistics:

 Available memory in ccsd:               999998604
 Min. memory needed in ccsd:               4522204
 Max. memory used in ccsd:                 6130884
 Max. memory used in cckext:               6038575 (25 integral passes)



 **********************************************************************************************************************************
 DATASETS  * FILE   NREC   LENGTH (MB)   RECORD NAMES
              1      20      544.14       500      610      700      900      950      970     1000      129      960     1100   
                                          VAR    BASINP    GEOM    SYMINP    ZMAT    AOBASIS   BASIS     P2S    ABASIS      S 
                                         1400     1410     1200     1210     1080     1600     1650     1300     1700     1380   
                                           T        V       H0       H01     AOSYM     SMH    MOLCAS    ERIS     OPER     JKOP   

              2       3        0.80       700     1000     2100   
                                         GEOM     BASIS     RHF  

 PROGRAMS   *        TOTAL   CCSD(T)       RHF       INT
 CPU TIMES  *       248.53    235.79      6.72      5.97
 REAL TIME  *       258.22 SEC
 DISK USED  *         1.47 GB      
 GA USED    *         0.00 MB       (max)       0.00 MB       (current)
 **********************************************************************************************************************************

        CCSD(T)         RHF-SCF 
   -339.03651549   -337.94166056
 **********************************************************************************************************************************
 Variable memory released
