
 Primary working directories    : /tmp/985636.35.gen4.q
 Secondary working directories  : /tmp/985636.35.gen4.q
 Wavefunction directory         : /home/vulcan/jj04645/wfu/
 Main file repository           : /tmp/985636.35.gen4.q/

 ARCHNAME  : Linux/x86_64
 FC        : /opt/intel/compilers_and_libraries_2016.1.150/linux/bin/intel64/ifort
 FCVERSION : 16.0.1
 BLASLIB   : -mkl
 id        : ccgc

 Nodes     nprocs
 n056         1
 ga_uses_ma=false, calling ma_init with nominal heap.
 GA-space will be limited to   8.0 MW (determined by -G option)

 Using customized tuning parameters: mindgm=10; mindgv=16; mindgc=4; mindgr=1; noblas=0; mincuda=1000; minvec=7
 default implementation of scratch files=df  

 ***,Optimization of tetrahydrothiopyran
 memory,1000,m
 gthresh,energy=1.0d-12,orbital=1.0d-10,oneint=1.0d-16,twoint=1.0d-16,optgrad=1.0d-6,compress=1.0d-13
 geomtyp=xyz
 
 bohr
 geometry = {
  S    0.3510018972    2.7002350807    0.0000000000
  C   -0.3281345284   -3.3579422277    0.0000000000
  C   -0.6606186908    0.6651764395   -2.5738333618
  C   -0.6606186908    0.6651764395    2.5738333618
  C    0.4730840146   -1.9818796737   -2.4136356776
  C    0.4730840146   -1.9818796737    2.4136356776
  H   -2.7267668822    0.5648702914   -2.5754296760
  H   -2.7267668822    0.5648702914    2.5754296760
  H   -0.0760512071    1.6209830388   -4.3054079307
  H   -0.0760512071    1.6209830388    4.3054079307
  H    2.5351283359   -1.8381144298   -2.4832668797
  H    2.5351283359   -1.8381144298    2.4832668797
  H   -0.1314460355   -3.0742943973   -4.0639561746
  H   -0.1314460355   -3.0742943973    4.0639561746
  H    0.4626736418   -5.2666495801    0.0000000000
  H   -2.3909350969   -3.5689472276    0.0000000000
 }
 
 basis=VDZ
 {rhf;maxit,200}
 {ccsd(t);maxit,200}

 Variables initialized (661), CPU time= 0.00 sec
 Commands  initialized (458), CPU time= 0.00 sec, 486 directives.
 Default parameters read. Elapsed time= 0.06 sec

 Checking input...
 Passed
1


                                         ***  PROGRAM SYSTEM MOLPRO  ***
                         Copyright, University College Cardiff Consultants Limited, 2008

                                    Version 2010.1 linked May 16 2016 07:17:05


 **********************************************************************************************************************************
 LABEL *   Optimization of tetrahydrothiopyran                                           
 Linux-4.4.3/n056(x86_64) 64 bit mpp version                                             DATE: 26-Jan-24          TIME: 10:15:30  
 **********************************************************************************************************************************

 SHA1:             9e8077add272b0f3cad6f7df79ec5211205f459d
 **********************************************************************************************************************************

 THRESHOLDS:

 ZERO    =  1.00D-12  ONEINT  =  1.00D-16  TWOINT  =  1.00D-16  PREFAC  =  1.00D-14  LOCALI  =  1.00D-09  EORDER  =  1.00D-04
 ENERGY  =  1.00D-12  ETEST   =  0.00D+00  EDENS   =  0.00D+00  THRDEDEF=  1.00D-06  GRADIENT=  1.00D-02  STEP    =  1.00D-03
 ORBITAL =  1.00D-10  CIVEC   =  1.00D-05  COEFF   =  1.00D-04  PRINTCI =  5.00D-02  PUNCHCI =  9.90D+01  OPTGRAD =  1.00D-06
 OPTENERG=  1.00D-06  OPTSTEP =  3.00D-04  THRGRAD =  1.00D-10  COMPRESS=  1.00D-13  VARMIN  =  1.00D-07  VARMAX  =  1.00D-03
 THRDOUB =  0.00D+00  THRDIV  =  1.00D-05  THRRED  =  1.00D-07  THRPSP  =  1.00D+00  THRDC   =  1.00D-10  THRCS   =  1.00D-10
 THRNRM  =  1.00D-08  THREQ   =  0.00D+00  THRDE   =  1.00D+00  THRREF  =  1.00D-05  SPARFAC =  1.00D+00  THRDLP  =  1.00D-07
 THRDIA  =  1.00D-10  THRDLS  =  1.00D-07  THRGPS  =  0.00D+00  THRKEX  =  0.00D+00  THRDIS  =  2.00D-01  THRVAR  =  1.00D-10
 THRLOC  =  1.00D-06  THRGAP  =  1.00D-06  THRLOCT = -1.00D+00  THRGAPT = -1.00D+00  THRORB  =  1.00D-06  THRMLTP =  0.00D+00
 THRCPQCI=  1.00D-10  KEXTA   =  0.00D+00  THRCOARS=  0.00D+00  SYMTOL  =  1.00D-06  GRADTOL =  1.00D-06  THROVL  =  1.00D-08
 THRORTH =  1.00D-08  GRID    =  1.00D-06  GRIDMAX =  1.00D-03  DTMAX   =  0.00D+00

 SETTING GEOMTYP        =    XYZ
 ZUNIT=BOHR
 

 Variable memory set to 1000000000 words,  buffer space   230000 words

 SETTING BASIS          =    VDZ


 Recomputing integrals since basis changed


 Using spherical harmonics

 Library entry S      S cc-pVDZ              selected for orbital group  1
 Library entry S      P cc-pVDZ              selected for orbital group  1
 Library entry S      D cc-pVDZ              selected for orbital group  1
 Library entry C      S cc-pVDZ              selected for orbital group  2
 Library entry C      P cc-pVDZ              selected for orbital group  2
 Library entry C      D cc-pVDZ              selected for orbital group  2
 Library entry H      S cc-pVDZ              selected for orbital group  3
 Library entry H      P cc-pVDZ              selected for orbital group  3

1PROGRAM * SEWARD (Integral evaluation for generally contracted gaussian basis sets)     Author: Roland Lindh, 1990

 Geometry written to block  1 of record 700


 Point group  Cs  



 ATOMIC COORDINATES

 NR  ATOM    CHARGE       X              Y              Z

   1  S      16.00    0.351001897    2.700235081    0.000000000
   2  C       6.00   -0.328134528   -3.357942228    0.000000000
   3  C       6.00   -0.660618691    0.665176440   -2.573833362
   4  C       6.00   -0.660618691    0.665176440    2.573833362
   5  C       6.00    0.473084015   -1.981879674   -2.413635678
   6  C       6.00    0.473084015   -1.981879674    2.413635678
   7  H       1.00   -2.726766882    0.564870291   -2.575429676
   8  H       1.00   -2.726766882    0.564870291    2.575429676
   9  H       1.00   -0.076051207    1.620983039   -4.305407931
  10  H       1.00   -0.076051207    1.620983039    4.305407931
  11  H       1.00    2.535128336   -1.838114430   -2.483266880
  12  H       1.00    2.535128336   -1.838114430    2.483266880
  13  H       1.00   -0.131446036   -3.074294397   -4.063956175
  14  H       1.00   -0.131446036   -3.074294397    4.063956175
  15  H       1.00    0.462673642   -5.266649580    0.000000000
  16  H       1.00   -2.390935097   -3.568947228    0.000000000

 Bond lengths in Bohr (Angstrom)

  1- 3  3.433578026   1- 4  3.433578026   2- 5  2.891562984   2- 6  2.891562984   2-15  2.066044849
       ( 1.816971237)       ( 1.816971237)       ( 1.530149230)       ( 1.530149230)       ( 1.093303847)

  2-16  2.073564394   3- 5  2.884068513   3- 7  2.068582176   3- 9  2.062434456   4- 6  2.884068513
       ( 1.097283019)       ( 1.526183326)       ( 1.094646543)       ( 1.091393309)       ( 1.526183326)

  4- 8  2.068582176   4-10  2.062434456   5-11  2.068222361   5-13  2.069392242   6-12  2.068222361
       ( 1.094646543)       ( 1.091393309)       ( 1.094456136)       ( 1.095075211)       ( 1.094456136)

  6-14  2.069392242
       ( 1.095075211)

 Bond angles

  1-3-5  112.73897442   1-3-7  108.88062309   1-3-9  105.73392594   1-4-6  112.73897442

  1- 4- 8  108.88062309   1- 4-10  105.73392594   2- 5- 3  111.97637260   2- 5-11  109.72116381

  2- 5-13  109.48227158   2- 6- 4  111.97637260   2- 6-12  109.72116381   2- 6-14  109.48227158

  3- 1- 4   97.11265456   3- 5-11  109.04120937   3- 5-13  108.98852594   4- 6-12  109.04120937

  4- 6-14  108.98852594   5- 2- 6  113.17268430   5- 2-15  109.48672702   5- 2-16  108.90962068

  5- 3- 7  110.37520693   5- 3- 9  111.13519449   6- 2-15  109.48672702   6- 2-16  108.90962068

  6- 4- 8  110.37520693   6- 4-10  111.13519449   7- 3- 9  107.75373698   8- 4-10  107.75373698

 11- 5-13  107.52379980  12- 6-14  107.52379980  15- 2-16  106.66451123

 NUCLEAR CHARGE:                   56
 NUMBER OF PRIMITIVE AOS:         247
 NUMBER OF SYMMETRY AOS:          241
 NUMBER OF CONTRACTIONS:          138   (  79A'  +  59A"  )
 NUMBER OF CORE ORBITALS:          10   (   7A'  +   3A"  )
 NUMBER OF VALENCE ORBITALS:       34   (  20A'  +  14A"  )


 NUCLEAR REPULSION ENERGY  312.44178408


 Eigenvalues of metric

         1 0.303E-02 0.425E-02 0.631E-02 0.156E-01 0.197E-01 0.236E-01 0.284E-01 0.342E-01
         2 0.283E-02 0.700E-02 0.151E-01 0.195E-01 0.219E-01 0.341E-01 0.351E-01 0.358E-01


 Contracted 2-electron integrals neglected if value below      1.0D-16
 AO integral compression algorithm  1   Integral accuracy      1.0D-16

     207.094 MB (compressed) written to integral file ( 97.7%)

     Node minimum: 207.094 MB, node maximum: 207.094 MB


 NUMBER OF SORTED TWO-ELECTRON INTEGRALS:   23341315.     BUFFER LENGTH:  32768
 NUMBER OF SEGMENTS:   2  SEGMENT LENGTH:   15994315      RECORD LENGTH: 524288

 Memory used in sort:      16.55 MW

 SORT1 READ    26508670. AND WROTE    23262081. INTEGRALS IN     68 RECORDS. CPU TIME:     0.32 SEC, REAL TIME:     0.46 SEC
 SORT2 READ    23262081. AND WROTE    23341315. INTEGRALS IN    790 RECORDS. CPU TIME:     0.24 SEC, REAL TIME:     0.34 SEC

 FILE SIZES:   FILE 1:   188.0 MBYTE,  FILE 4:   285.2 MBYTE,   TOTAL:    473.2 MBYTE

 OPERATOR DM      FOR CENTER  0  COORDINATES:    0.000000    0.000000    0.000000


 **********************************************************************************************************************************
 DATASETS  * FILE   NREC   LENGTH (MB)   RECORD NAMES
              1      19      188.08       500      610      700      900      950      970     1000      129      960     1100   
                                          VAR    BASINP    GEOM    SYMINP    ZMAT    AOBASIS   BASIS     P2S    ABASIS      S 
                                         1400     1410     1200     1210     1080     1600     1650     1300     1700   
                                           T        V       H0       H01     AOSYM     SMH    MOLCAS    ERIS     OPER   

 PROGRAMS   *        TOTAL       INT
 CPU TIMES  *         3.63      3.59
 REAL TIME  *         4.19 SEC
 DISK USED  *       681.30 MB      
 GA USED    *         0.00 MB       (max)       0.00 MB       (current)
 **********************************************************************************************************************************

1PROGRAM * RHF-SCF (CLOSED SHELL)       Authors: W. Meyer, H.-J. Werner


 NUMBER OF ELECTRONS:      28+   28-
 CONVERGENCE THRESHOLDS:    1.00E-10 (Density)    1.00E-13 (Energy)
 MAX. NUMBER OF ITERATIONS:      200
 INTERPOLATION TYPE:            DIIS
 INTERPOLATION STEPS:              2 (START)      1 (STEP)
 LEVEL SHIFTS:                  0.00 (CLOSED)  0.00 (OPEN) 



 Orbital guess generated from atomic densities. Full valence occupancy:   27  17

 Molecular orbital dump at record        2100.2

 Initial alpha occupancy:  18  10
 Initial beta  occupancy:  18  10
 Wave function symmetry:    1

 ITERATION    DDIFF          GRAD             ENERGY        2-EL.EN.            DIPOLE MOMENTS         DIIS
    1      0.000D+00      0.000D+00      -592.64363603   1057.469993   -0.40613   -0.80255    0.00000    0
    2      0.000D+00      0.553D-02      -592.70480577   1054.834647   -0.20703   -0.73839    0.00000    1
    3      0.109D-01      0.185D-02      -592.71077250   1056.296345   -0.27821   -0.67450    0.00000    2
    4      0.377D-02      0.757D-03      -592.71179435   1055.667646   -0.25163   -0.70802    0.00000    3
    5      0.131D-02      0.109D-03      -592.71182053   1055.732343   -0.24751   -0.69950    0.00000    4
    6      0.254D-03      0.379D-04      -592.71182315   1055.701275   -0.24928   -0.69974    0.00000    5
    7      0.716D-04      0.867D-05      -592.71182337   1055.704286   -0.24862   -0.69963    0.00000    6
    8      0.233D-04      0.245D-05      -592.71182339   1055.703430   -0.24860   -0.69949    0.00000    7
    9      0.763D-05      0.638D-06      -592.71182339   1055.703312   -0.24859   -0.69945    0.00000    7
   10      0.179D-05      0.227D-06      -592.71182339   1055.703351   -0.24858   -0.69945    0.00000    7
   11      0.674D-06      0.480D-07      -592.71182339   1055.703336   -0.24858   -0.69945    0.00000    7
   12      0.159D-06      0.964D-08      -592.71182339   1055.703342   -0.24858   -0.69945    0.00000    7
   13      0.256D-07      0.405D-08      -592.71182339   1055.703339   -0.24858   -0.69945    0.00000    7
   14      0.890D-08      0.119D-08      -592.71182339   1055.703340   -0.24858   -0.69945    0.00000    7
   15      0.317D-08      0.387D-09      -592.71182339   1055.703340   -0.24858   -0.69945    0.00000    7
   16      0.936D-09      0.119D-09      -592.71182339   1055.703340   -0.24858   -0.69945    0.00000    8
   17      0.290D-09      0.258D-10      -592.71182339   1055.703340   -0.24858   -0.69945    0.00000    7
   18      0.686D-10      0.762D-11      -592.71182339   1055.703340   -0.24858   -0.69945    0.00000    7
   19      0.242D-10      0.255D-11      -592.71182339   1055.703340   -0.24858   -0.69945    0.00000    8
   20      0.715D-11      0.742D-12      -592.71182339   1055.703340   -0.24858   -0.69945    0.00000    7
   21      0.220D-11      0.251D-12      -592.71182339   1055.703340   -0.24858   -0.69945    0.00000    7
   22      0.868D-12      0.102D-12      -592.71182339   1055.703340   -0.24858   -0.69945    0.00000    8
   23      0.455D-12      0.438D-13      -592.71182339   1055.703340   -0.24858   -0.69945    0.00000    8
   24      0.172D-12      0.270D-13      -592.71182339   1055.703340   -0.24858   -0.69945    0.00000    8
   25      0.875D-13      0.279D-13      -592.71182339   1055.703340   -0.24858   -0.69945    0.00000    9
   26      0.581D-13      0.254D-13      -592.71182339   1055.703340   -0.24858   -0.69945    0.00000    9
   27      0.511D-13      0.279D-13      -592.71182339   1055.703340   -0.24858   -0.69945    0.00000    9
   28      0.473D-13      0.228D-13      -592.71182339   1055.703340   -0.24858   -0.69945    0.00000    9
   29      0.319D-13      0.274D-13      -592.71182339   1055.703340   -0.24858   -0.69945    0.00000    9
   30      0.281D-13      0.252D-13      -592.71182339   1055.703340   -0.24858   -0.69945    0.00000    9
   31      0.178D-13      0.241D-13      -592.71182339   1055.703340   -0.24858   -0.69945    0.00000    9
   32      0.197D-13      0.262D-13      -592.71182339   1055.703340   -0.24858   -0.69945    0.00000    9
   33      0.155D-13      0.216D-13      -592.71182339   1055.703340   -0.24858   -0.69945    0.00000    0

 Final occupancy:  18  10

 !RHF STATE 1.1 Energy               -592.711823388226
 Nuclear energy                       312.44178408
 One-electron energy                -1433.00527729
 Two-electron energy                  527.85166981
 Virial quotient                       -1.00015615
 !RHF STATE 1.1 Dipole moment          -0.24857700    -0.69944521     0.00000000
 Dipole moment /Debye                  -0.63177833    -1.77769595     0.00000000

 Orbital energies:

         1.1          2.1          3.1          4.1          5.1          6.1          7.1          8.1          9.1         10.1
    -91.929789   -11.254478   -11.230751   -11.228608    -8.933753    -6.614216    -6.612010    -1.120702    -1.007173    -0.836016

        11.1         12.1         13.1         14.1         15.1         16.1         17.1         18.1         19.1         20.1
     -0.755603    -0.647268    -0.609949    -0.578598    -0.495234    -0.472949    -0.412199    -0.328793     0.176989     0.200959

         1.2          2.2          3.2          4.2          5.2          6.2          7.2          8.2          9.2         10.2
    -11.254491   -11.230678    -6.615651    -1.020616    -0.842514    -0.614770    -0.547236    -0.524327    -0.497882    -0.434715

        11.2         12.2
      0.190315     0.222895


 **********************************************************************************************************************************
 DATASETS  * FILE   NREC   LENGTH (MB)   RECORD NAMES
              1      19      188.08       500      610      700      900      950      970     1000      129      960     1100   
                                          VAR    BASINP    GEOM    SYMINP    ZMAT    AOBASIS   BASIS     P2S    ABASIS      S 
                                         1400     1410     1200     1210     1080     1600     1650     1300     1700   
                                           T        V       H0       H01     AOSYM     SMH    MOLCAS    ERIS     OPER   

              2       3        0.73       700     1000     2100   
                                         GEOM     BASIS     RHF  

 PROGRAMS   *        TOTAL       RHF       INT
 CPU TIMES  *         7.31      3.68      3.59
 REAL TIME  *         8.59 SEC
 DISK USED  *       681.30 MB      
 GA USED    *         0.00 MB       (max)       0.00 MB       (current)
 **********************************************************************************************************************************


1PROGRAM * CCSD (Closed-shell coupled cluster)     Authors: C. Hampel, H.-J. Werner, 1991, M. Deegan, P.J. Knowles, 1992


 Convergence thresholds:  THRVAR = 1.00D-08  THRDEN = 1.00D-12

 CCSD(T)     terms to be evaluated (factor= 1.000)


 Number of core orbitals:          10 (   7   3 )
 Number of closed-shell orbitals:  18 (  11   7 )
 Number of external orbitals:     110 (  61  49 )

 Molecular orbitals read from record     2100.2  Type=RHF/CANONICAL (state 1.1)

 Number of N-1 electron functions:              18
 Number of N-2 electron functions:             171
 Number of singly external CSFs:              1014
 Number of doubly external CSFs:            981666
 Total number of CSFs:                      982681

 Length of J-op  integral file:               0.00 MB
 Length of K-op  integral file:               0.70 MB
 Length of 3-ext integral record:             0.00 MB

 Memory could be reduced to 16.31 Mwords without degradation in triples

 Integral transformation finished. Total CPU:   0.92 sec, npass=  1  Memory used:  10.63 MW

 Reference energy:                   -592.71182339

 MP2 singlet pair energy:              -0.53934505
 MP2 triplet pair energy:              -0.30447685
 MP2 correlation energy:               -0.84382190
 MP2 total energy:                   -593.55564529

 SCS-MP2 correlation energy:           -0.83666632   (PS=  1.200000  PT=  0.333333)
 SCS-MP2 total energy:               -593.54848971

 ITER.      SQ.NORM     CORR.ENERGY   TOTAL ENERGY   ENERGY CHANGE        DEN1      VAR(S)    VAR(P)  DIIS     TIME
   1      1.33942746    -0.91073627  -593.62255966    -0.06691437    -0.04297397  0.26D-02  0.55D-02  1  1     2.76
   2      1.36637820    -0.91607250  -593.62789589    -0.00533623    -0.02575490  0.69D-04  0.46D-03  2  2     4.67
   3      1.37169681    -0.91619914  -593.62802253    -0.00012664    -0.00303140  0.16D-04  0.28D-04  3  3     6.59
   4      1.37318425    -0.91625701  -593.62808040    -0.00005787    -0.00059193  0.76D-06  0.20D-05  4  4     8.51
   5      1.37342371    -0.91626355  -593.62808694    -0.00000654    -0.00007049  0.17D-06  0.16D-06  5  5    10.44
   6      1.37346920    -0.91625911  -593.62808250     0.00000444    -0.00001387  0.30D-07  0.14D-07  6  6    12.37
   7      1.37347678    -0.91625900  -593.62808239     0.00000011     0.00000063  0.53D-08  0.23D-08  6  2    14.30
   8      1.37348286    -0.91625869  -593.62808208     0.00000031    -0.00000124  0.73D-09  0.26D-09  6  1    16.23
   9      1.37348369    -0.91625862  -593.62808201     0.00000006     0.00000050  0.66D-10  0.44D-10  6  4    18.17
  10      1.37348457    -0.91625859  -593.62808198     0.00000003    -0.00000011  0.48D-11  0.35D-11  6  3    20.09
  11      1.37348458    -0.91625859  -593.62808198    -0.00000000     0.00000004  0.12D-11  0.53D-12  6  5    22.02
  12      1.37348455    -0.91625860  -593.62808198    -0.00000000     0.00000002  0.17D-12  0.77D-13  6  6    23.96
  13      1.37348450    -0.91625860  -593.62808199    -0.00000000     0.00000002  0.23D-13  0.10D-13  6  1    25.89
  14      1.37348449    -0.91625860  -593.62808199    -0.00000000     0.00000000  0.29D-14  0.12D-14  6  2    27.82
  15      1.37348449    -0.91625860  -593.62808199     0.00000000    -0.00000000  0.64D-15  0.30D-15  6  4    29.75
  16      1.37348449    -0.91625860  -593.62808199     0.00000000    -0.00000000  0.30D-16  0.22D-16  6  5    31.69
  17      1.37348449    -0.91625860  -593.62808199     0.00000000    -0.00000000  0.52D-17  0.23D-17  6  3    33.61
  18      1.37348449    -0.91625860  -593.62808199     0.00000000    -0.00000000  0.17D-17  0.45D-18  6  6    35.55
  19      1.37348449    -0.91625860  -593.62808199     0.00000000    -0.00000000  0.35D-18  0.11D-18  6  1    37.48
  20      1.37348449    -0.91625860  -593.62808199     0.00000000     0.00000000  0.42D-19  0.16D-19  6  2    39.41
  21      1.37348449    -0.91625860  -593.62808199    -0.00000000     0.00000000  0.76D-20  0.32D-20  6  4    41.34

 Norm of t1 vector:      0.07012420      S-energy:    -0.00000000      T1 diagnostic:  0.00826422
                                                                       D1 diagnostic:  0.02099737


 Total CPU time for triples:     37.95 sec


 RESULTS
 =======

  Reference energy                   -592.711823388227
  CCSD singlet pair energy             -0.634007146332
  CCSD triplet pair energy             -0.282251450794
  CCSD correlation energy              -0.916258597126

  Triples (T) contribution             -0.029838445009
  Total correlation energy             -0.946097042136

  CCSD total energy                  -593.628081985354
  CCSD[T] energy                     -593.658538752062
  CCSD-T energy                      -593.657610164641
 !CCSD(T) total energy               -593.657920430363

 Timing summary (sec):

 STEP                 CPU(USER)    SYS     CPU(TOT)    WALL
 Transformation          0.95      0.12      1.07      1.07
 CCSD iterations        40.39      1.49     41.88     42.06
 Triples                37.95      1.14     39.09     39.11

 Program statistics:

 Available memory in ccsd:               999998604
 Min. memory needed in ccsd:               2548392
 Max. memory used in ccsd:                 3412984
 Max. memory used in cckext:               3730705 (21 integral passes)



 **********************************************************************************************************************************
 DATASETS  * FILE   NREC   LENGTH (MB)   RECORD NAMES
              1      20      256.25       500      610      700      900      950      970     1000      129      960     1100   
                                          VAR    BASINP    GEOM    SYMINP    ZMAT    AOBASIS   BASIS     P2S    ABASIS      S 
                                         1400     1410     1200     1210     1080     1600     1650     1300     1700     1380   
                                           T        V       H0       H01     AOSYM     SMH    MOLCAS    ERIS     OPER     JKOP   

              2       3        0.73       700     1000     2100   
                                         GEOM     BASIS     RHF  

 PROGRAMS   *        TOTAL   CCSD(T)       RHF       INT
 CPU TIMES  *        86.61     79.30      3.68      3.59
 REAL TIME  *        90.88 SEC
 DISK USED  *       681.30 MB      
 GA USED    *         0.00 MB       (max)       0.00 MB       (current)
 **********************************************************************************************************************************

        CCSD(T)         RHF-SCF 
   -593.65792043   -592.71182339
 **********************************************************************************************************************************
 Variable memory released
