
 Primary working directories    : /tmp/1213109.1507.gen6.q
 Secondary working directories  : /tmp/1213109.1507.gen6.q
 Wavefunction directory         : /home/vulcan/jj04645/wfu/
 Main file repository           : /tmp/1213109.1507.gen6.q/

 ARCHNAME  : Linux/x86_64
 FC        : /opt/intel/compilers_and_libraries_2016.1.150/linux/bin/intel64/ifort
 FCVERSION : 16.0.1
 BLASLIB   : -mkl
 id        : ccgc

 Nodes     nprocs
 n083         1
 ga_uses_ma=false, calling ma_init with nominal heap.
 GA-space will be limited to   8.0 MW (determined by -G option)

 Using customized tuning parameters: mindgm=10; mindgv=16; mindgc=4; mindgr=1; noblas=0; mincuda=1000; minvec=7
 default implementation of scratch files=df  

 ***,Optimization of neopentane
 memory,1000,m
 gthresh,energy=1.0d-12,orbital=1.0d-10,oneint=1.0d-16,twoint=1.0d-16,optgrad=1.0d-6,compress=1.0d-13
 geomtyp=xyz
 
 
 
 bohr
 geometry = {
  C    0.0000000000    0.0000000000    0.0000000000
  C    2.3654418670    0.0000000000   -1.6726199847
  C    0.0000000000   -2.3654418670    1.6726199847
  C   -0.0000000000    2.3654418670    1.6726199847
  C   -2.3654418670   -0.0000000000   -1.6726199847
  H    2.4088542476    1.6728638369   -2.8962105364
  H   -1.6728638369   -2.4088542476    2.8862105364
  H    1.6728638369    2.4088542476    2.8862105364
  H   -2.4088542476   -1.6728638369   -2.8862105364
  H    4.0817180846    0.0000000000   -0.5204238103
  H    0.0000000000   -4.0817180846    0.5204238103
  H   -0.0000000000    4.0817180846    0.5204238103
  H   -4.0817180846   -0.0000000000   -0.5304238103
  H    2.4088542476   -1.6728638369   -2.8862105364
  H    1.6728638369   -2.4088542476    2.8862105364
  H   -1.6728638369    2.4088542476    2.8862105364
  H   -2.4088542476    1.6728638369   -2.8862105364
 }
 
 basis=VTZ
 {rhf;maxit,200}
 {mp2}

 Variables initialized (661), CPU time= 0.00 sec
 Commands  initialized (458), CPU time= 0.01 sec, 486 directives.
 Default parameters read. Elapsed time= 0.03 sec

 Checking input...
 Passed
1


                                         ***  PROGRAM SYSTEM MOLPRO  ***
                         Copyright, University College Cardiff Consultants Limited, 2008

                                    Version 2010.1 linked May 16 2016 07:17:05


 **********************************************************************************************************************************
 LABEL *   Optimization of neopentane                                                    
 Linux-4.4.3/n083(x86_64) 64 bit mpp version                                             DATE: 07-Dec-24          TIME: 13:04:29  
 **********************************************************************************************************************************

 SHA1:             9e8077add272b0f3cad6f7df79ec5211205f459d
 **********************************************************************************************************************************

 THRESHOLDS:

 ZERO    =  1.00D-12  ONEINT  =  1.00D-16  TWOINT  =  1.00D-16  PREFAC  =  1.00D-14  LOCALI  =  1.00D-09  EORDER  =  1.00D-04
 ENERGY  =  1.00D-12  ETEST   =  0.00D+00  EDENS   =  0.00D+00  THRDEDEF=  1.00D-06  GRADIENT=  1.00D-02  STEP    =  1.00D-03
 ORBITAL =  1.00D-10  CIVEC   =  1.00D-05  COEFF   =  1.00D-04  PRINTCI =  5.00D-02  PUNCHCI =  9.90D+01  OPTGRAD =  1.00D-06
 OPTENERG=  1.00D-06  OPTSTEP =  3.00D-04  THRGRAD =  1.00D-10  COMPRESS=  1.00D-13  VARMIN  =  1.00D-07  VARMAX  =  1.00D-03
 THRDOUB =  0.00D+00  THRDIV  =  1.00D-05  THRRED  =  1.00D-07  THRPSP  =  1.00D+00  THRDC   =  1.00D-10  THRCS   =  1.00D-10
 THRNRM  =  1.00D-08  THREQ   =  0.00D+00  THRDE   =  1.00D+00  THRREF  =  1.00D-05  SPARFAC =  1.00D+00  THRDLP  =  1.00D-07
 THRDIA  =  1.00D-10  THRDLS  =  1.00D-07  THRGPS  =  0.00D+00  THRKEX  =  0.00D+00  THRDIS  =  2.00D-01  THRVAR  =  1.00D-10
 THRLOC  =  1.00D-06  THRGAP  =  1.00D-06  THRLOCT = -1.00D+00  THRGAPT = -1.00D+00  THRORB  =  1.00D-06  THRMLTP =  0.00D+00
 THRCPQCI=  1.00D-10  KEXTA   =  0.00D+00  THRCOARS=  0.00D+00  SYMTOL  =  1.00D-06  GRADTOL =  1.00D-06  THROVL  =  1.00D-08
 THRORTH =  1.00D-08  GRID    =  1.00D-06  GRIDMAX =  1.00D-03  DTMAX   =  0.00D+00

 SETTING GEOMTYP        =    XYZ
 ZUNIT=BOHR
 

 Variable memory set to 1000000000 words,  buffer space   230000 words

 SETTING BASIS          =    VTZ


 Recomputing integrals since basis changed


 Using spherical harmonics

 Library entry C      S cc-pVTZ              selected for orbital group  1
 Library entry C      P cc-pVTZ              selected for orbital group  1
 Library entry C      D cc-pVTZ              selected for orbital group  1
 Library entry C      F cc-pVTZ              selected for orbital group  1
 Library entry H      S cc-pVTZ              selected for orbital group  2
 Library entry H      P cc-pVTZ              selected for orbital group  2
 Library entry H      D cc-pVTZ              selected for orbital group  2

1PROGRAM * SEWARD (Integral evaluation for generally contracted gaussian basis sets)     Author: Roland Lindh, 1990

 Geometry written to block  1 of record 700


 Point group  C1  



 ATOMIC COORDINATES

 NR  ATOM    CHARGE       X              Y              Z

   1  C       6.00    0.000000000    0.000000000    0.000000000
   2  C       6.00    2.365441867    0.000000000   -1.672619985
   3  C       6.00    0.000000000   -2.365441867    1.672619985
   4  C       6.00    0.000000000    2.365441867    1.672619985
   5  C       6.00   -2.365441867    0.000000000   -1.672619985
   6  H       1.00    2.408854248    1.672863837   -2.896210536
   7  H       1.00   -1.672863837   -2.408854248    2.886210536
   8  H       1.00    1.672863837    2.408854248    2.886210536
   9  H       1.00   -2.408854248   -1.672863837   -2.886210536
  10  H       1.00    4.081718085    0.000000000   -0.520423810
  11  H       1.00    0.000000000   -4.081718085    0.520423810
  12  H       1.00    0.000000000    4.081718085    0.520423810
  13  H       1.00   -4.081718085    0.000000000   -0.530423810
  14  H       1.00    2.408854248   -1.672863837   -2.886210536
  15  H       1.00    1.672863837   -2.408854248    2.886210536
  16  H       1.00   -1.672863837    2.408854248    2.886210536
  17  H       1.00   -2.408854248    1.672863837   -2.886210536

 Bond lengths in Bohr (Angstrom)

 1-2  2.897062795  1-3  2.897062795  1-4  2.897062795  1-5  2.897062795  2-6  2.073048936
     ( 1.533059604)     ( 1.533059604)     ( 1.533059604)     ( 1.533059604)     ( 1.097010250)

  2-10  2.067162325   2-14  2.067162325   3- 7  2.067162325   3-11  2.067162325   3-15  2.067162325
       ( 1.093895190)       ( 1.093895190)       ( 1.093895190)       ( 1.093895190)       ( 1.093895190)

  4- 8  2.067162325   4-12  2.067162325   4-16  2.067162325   5- 9  2.067162325   5-13  2.061605238
       ( 1.093895190)       ( 1.093895190)       ( 1.093895190)       ( 1.093895190)       ( 1.090954506)

  5-17  2.067162325
       ( 1.093895190)

 Bond angles

  1- 2- 6  110.96957233   1- 2-10  110.86076877   1- 2-14  110.86076877   1- 3- 7  110.86076877

  1- 3-11  110.86076877   1- 3-15  110.86076877   1- 4- 8  110.86076877   1- 4-12  110.86076877

  1- 4-16  110.86076877   1- 5- 9  110.86076877   1- 5-13  111.09151303   1- 5-17  110.86076877

  2-1-3  109.47122064   2-1-4  109.47122064   2-1-5  109.47122063   3-1-4  109.47122063

  3- 1- 5  109.47122064   4- 1- 5  109.47122064   6- 2-10  108.15568471   6- 2-14  107.82311533

  7- 3-11  108.04663875   7- 3-15  108.04663875   8- 4-12  108.04663875   8- 4-16  108.04663875

  9- 5-13  107.92539817   9- 5-17  108.04663875  10- 2-14  108.04663875  11- 3-15  108.04663875

 12- 4-16  108.04663875  13- 5-17  107.92539817

 NUCLEAR CHARGE:                   42
 NUMBER OF PRIMITIVE AOS:         439
 NUMBER OF SYMMETRY AOS:          402
 NUMBER OF CONTRACTIONS:          318   ( 318A   )
 NUMBER OF CORE ORBITALS:           5   (   5A   )
 NUMBER OF VALENCE ORBITALS:       32   (  32A   )


 NUCLEAR REPULSION ENERGY  198.58932048


 Eigenvalues of metric

         1 0.636E-03 0.637E-03 0.638E-03 0.824E-03 0.101E-02 0.101E-02 0.101E-02 0.125E-02


 Contracted 2-electron integrals neglected if value below      1.0D-16
 AO integral compression algorithm  1   Integral accuracy      1.0D-16

     8577.876 MB (compressed) written to integral file ( 78.9%)

     Node minimum: 8577.876 MB, node maximum: 8577.876 MB


 NUMBER OF SORTED TWO-ELECTRON INTEGRALS: 1286335281.     BUFFER LENGTH:  32768
 NUMBER OF SEGMENTS:  41  SEGMENT LENGTH:   31998710      RECORD LENGTH: 524288

 Memory used in sort:      32.56 MW

 SORT1 READ  1359130422. AND WROTE  1219966280. INTEGRALS IN   3511 RECORDS. CPU TIME:    13.22 SEC, REAL TIME:    30.51 SEC
 SORT2 READ  1219966280. AND WROTE  1286335281. INTEGRALS IN  32722 RECORDS. CPU TIME:     8.10 SEC, REAL TIME:    40.02 SEC

 FILE SIZES:   FILE 1:  8202.8 MBYTE,  FILE 4: 14726.2 MBYTE,   TOTAL:  22929.0 MBYTE

 OPERATOR DM      FOR CENTER  0  COORDINATES:    0.000000    0.000000    0.000000


 **********************************************************************************************************************************
 DATASETS  * FILE   NREC   LENGTH (MB)   RECORD NAMES
              1      19     8204.01       500      610      700      900      950      970     1000      129      960     1100   
                                          VAR    BASINP    GEOM    SYMINP    ZMAT    AOBASIS   BASIS     P2S    ABASIS      S 
                                         1400     1410     1200     1210     1080     1600     1650     1300     1700   
                                           T        V       H0       H01     AOSYM     SMH    MOLCAS    ERIS     OPER   

 PROGRAMS   *        TOTAL       INT
 CPU TIMES  *        63.96     63.93
 REAL TIME  *       118.65 SEC
 DISK USED  *        31.51 GB      
 GA USED    *         0.01 MB       (max)       0.00 MB       (current)
 **********************************************************************************************************************************

1PROGRAM * RHF-SCF (CLOSED SHELL)       Authors: W. Meyer, H.-J. Werner


 NUMBER OF ELECTRONS:      21+   21-    SPACE SYMMETRY=1    SPIN SYMMETRY: Singlet 
 CONVERGENCE THRESHOLDS:    1.00E-10 (Density)    1.00E-13 (Energy)
 MAX. NUMBER OF ITERATIONS:      200
 INTERPOLATION TYPE:            DIIS
 INTERPOLATION STEPS:              2 (START)      1 (STEP)
 LEVEL SHIFTS:                  0.00 (CLOSED)  0.00 (OPEN) 



 Orbital guess generated from atomic densities. Full valence occupancy:   37

 Molecular orbital dump at record        2100.2

 ITERATION    DDIFF          GRAD             ENERGY        2-EL.EN.            DIPOLE MOMENTS         DIIS
    1      0.000D+00      0.000D+00      -196.32353881    528.168842    0.00074    0.00022   -0.00291    0
    2      0.000D+00      0.199D-02      -196.39283415    521.783079   -0.00179   -0.00107    0.00114    1
    3      0.392D-02      0.801D-03      -196.40192525    524.686710   -0.00139   -0.00096    0.00040    2
    4      0.124D-02      0.256D-03      -196.40330111    523.976850   -0.00163   -0.00108    0.00077    3
    5      0.437D-03      0.552D-04      -196.40334933    524.045935   -0.00168   -0.00109    0.00081    4
    6      0.964D-04      0.130D-04      -196.40335237    524.038101   -0.00168   -0.00110    0.00082    5
    7      0.343D-04      0.133D-05      -196.40335242    524.038427   -0.00169   -0.00110    0.00082    6
    8      0.569D-05      0.279D-06      -196.40335243    524.038326   -0.00169   -0.00110    0.00082    6
    9      0.981D-06      0.481D-07      -196.40335243    524.038338   -0.00169   -0.00110    0.00082    6
   10      0.130D-06      0.763D-08      -196.40335243    524.038330   -0.00169   -0.00110    0.00082    5
   11      0.329D-07      0.193D-08      -196.40335243    524.038333   -0.00169   -0.00110    0.00082    5
   12      0.339D-08      0.545D-09      -196.40335243    524.038333   -0.00169   -0.00110    0.00082    6
   13      0.157D-08      0.716D-10      -196.40335243    524.038333   -0.00169   -0.00110    0.00082    6
   14      0.158D-09      0.204D-10      -196.40335243    524.038333   -0.00169   -0.00110    0.00082    6
   15      0.503D-10      0.554D-11      -196.40335243    524.038333   -0.00169   -0.00110    0.00082    6
   16      0.146D-10      0.180D-11      -196.40335243    524.038333   -0.00169   -0.00110    0.00082    7
   17      0.433D-11      0.460D-12      -196.40335243    524.038333   -0.00169   -0.00110    0.00082    7
   18      0.191D-11      0.139D-12      -196.40335243    524.038333   -0.00169   -0.00110    0.00082    7
   19      0.104D-11      0.842D-13      -196.40335243    524.038333   -0.00169   -0.00110    0.00082    7
   20      0.625D-12      0.823D-13      -196.40335243    524.038333   -0.00169   -0.00110    0.00082    8
   21      0.434D-12      0.784D-13      -196.40335243    524.038333   -0.00169   -0.00110    0.00082    9
   22      0.266D-12      0.588D-13      -196.40335243    524.038333   -0.00169   -0.00110    0.00082    9
   23      0.202D-12      0.641D-13      -196.40335243    524.038333   -0.00169   -0.00110    0.00082    9
   24      0.138D-12      0.872D-13      -196.40335243    524.038333   -0.00169   -0.00110    0.00082    0

 Final occupancy:  21

 !RHF STATE 1.1 Energy               -196.403352425652
 Nuclear energy                       198.58932048
 One-electron energy                 -657.01183931
 Two-electron energy                  262.01916641
 Virial quotient                       -1.00124741
 !RHF STATE 1.1 Dipole moment          -0.00169030    -0.00110165     0.00081985
 Dipole moment /Debye                  -0.00429603    -0.00279993     0.00208371

 Orbital energies:

         1.1          2.1          3.1          4.1          5.1          6.1          7.1          8.1          9.1         10.1
    -11.229868   -11.207627   -11.207290   -11.207231   -11.206870    -1.102862    -0.927379    -0.927128    -0.926877    -0.729107

        11.1         12.1         13.1         14.1         15.1         16.1         17.1         18.1         19.1         20.1
     -0.610059    -0.609745    -0.609522    -0.551958    -0.551570    -0.509155    -0.508911    -0.508572    -0.451871    -0.451614

        21.1         22.1         23.1
     -0.451539     0.133244     0.186025


 **********************************************************************************************************************************
 DATASETS  * FILE   NREC   LENGTH (MB)   RECORD NAMES
              1      19     8204.01       500      610      700      900      950      970     1000      129      960     1100   
                                          VAR    BASINP    GEOM    SYMINP    ZMAT    AOBASIS   BASIS     P2S    ABASIS      S 
                                         1400     1410     1200     1210     1080     1600     1650     1300     1700   
                                           T        V       H0       H01     AOSYM     SMH    MOLCAS    ERIS     OPER   

              2       3        2.61       700     1000     2100   
                                         GEOM     BASIS     RHF  

 PROGRAMS   *        TOTAL       RHF       INT
 CPU TIMES  *       271.15    207.18     63.93
 REAL TIME  *       343.43 SEC
 DISK USED  *        31.51 GB      
 GA USED    *         0.01 MB       (max)       0.00 MB       (current)
 **********************************************************************************************************************************


1PROGRAM * MP2 (Closed-shell)     Authors: C. Hampel, H.-J. Werner, 1991, M. Deegan, P.J. Knowles, 1992


 Convergence thresholds:  THRVAR = 1.00D-08  THRDEN = 1.00D-12

 Number of core orbitals:           5 (   5 )
 Number of closed-shell orbitals:  16 (  16 )
 Number of external orbitals:     297 ( 297 )

 Molecular orbitals read from record     2100.2  Type=RHF/CANONICAL (state 1.1)

 Number of N-1 electron functions:              16
 Number of N-2 electron functions:             136
 Number of singly external CSFs:              4752
 Number of doubly external CSFs:          11293128
 Total number of CSFs:                    11297881

 Length of J-op  integral file:               0.00 MB
 Length of K-op  integral file:               7.00 MB

 Integral transformation finished. Total CPU:  19.68 sec, npass=  1  Memory used:  24.77 MW

 Memory needed for MP2:                      0.49 MW

 SCS-MP2 correlation energy:           -0.910272927200   (PS=  1.200000  PT=  0.333333)
 SCS-MP2 total energy:               -197.313625352854


  Reference energy                   -196.403352425655
  MP2 singlet pair energy              -0.606235643863
  MP2 triplet pair energy              -0.293769891264
  MP2 correlation energy               -0.900005535127

 !MP2 total energy                   -197.303357960781


 **********************************************************************************************************************************
 DATASETS  * FILE   NREC   LENGTH (MB)   RECORD NAMES
              1      20     8371.19       500      610      700      900      950      970     1000      129      960     1100   
                                          VAR    BASINP    GEOM    SYMINP    ZMAT    AOBASIS   BASIS     P2S    ABASIS      S 
                                         1400     1410     1200     1210     1080     1600     1650     1300     1700     1380   
                                           T        V       H0       H01     AOSYM     SMH    MOLCAS    ERIS     OPER     JKOP   

              2       3        2.61       700     1000     2100   
                                         GEOM     BASIS     RHF  

 PROGRAMS   *        TOTAL       MP2       RHF       INT
 CPU TIMES  *       291.77     20.63    207.18     63.93
 REAL TIME  *       365.20 SEC
 DISK USED  *        31.51 GB      
 GA USED    *         0.01 MB       (max)       0.00 MB       (current)
 **********************************************************************************************************************************

        MP2             RHF-SCF 
   -197.30335796   -196.40335243
 **********************************************************************************************************************************
 Variable memory released
