
 Primary working directories    : /tmp/942884.330.gen5.q
 Secondary working directories  : /tmp/942884.330.gen5.q
 Wavefunction directory         : /home/vulcan/mel64643/wfu/
 Main file repository           : /tmp/942884.330.gen5.q/

 ARCHNAME  : Linux/x86_64
 FC        : /opt/intel/compilers_and_libraries_2016.1.150/linux/bin/intel64/ifort
 FCVERSION : 16.0.1
 BLASLIB   : -mkl
 id        : ccgc

 Nodes     nprocs
 n073         1
 ga_uses_ma=false, calling ma_init with nominal heap.
 GA-space will be limited to   8.0 MW (determined by -G option)

 Using customized tuning parameters: mindgm=10; mindgv=16; mindgc=4; mindgr=1; noblas=0; mincuda=1000; minvec=7
 default implementation of scratch files=df  

 ***,Optimization of nh3_2
 memory,1000,m
 gthresh,energy=1.0d-12,orbital=1.0d-10,oneint=1.0d-16,twoint=1.0d-16,optgrad=1.0d-6,compress=1.0d-13
 geomtyp=xyz
 
 bohr
 geometry = {
  N   -0.0977458248    3.3726127829    0.0017774100
  H    0.7203616840    4.1857265109   -1.5306863390
  H    0.7217391703    4.1817862176    1.5355901977
  H    0.4298330253    1.5221282810   -0.0008375481
  N   -0.1307154611   -2.7692887153   -0.0061003786
  H    0.1774115552   -3.8897672498   -1.5321116580
  H   -2.0061952463   -2.3615335091   -0.0047338602
  H    0.1853110972   -3.8637191206    1.5371021762
 }
 
 basis=aug-cc-pvdz
 {rhf;maxit,200}
 {ccsd(t);maxit,200}

 Variables initialized (661), CPU time= 0.00 sec
 Commands  initialized (458), CPU time= 0.00 sec, 486 directives.
 Default parameters read. Elapsed time= 0.04 sec

 Checking input...
 Passed
1


                                         ***  PROGRAM SYSTEM MOLPRO  ***
                         Copyright, University College Cardiff Consultants Limited, 2008

                                    Version 2010.1 linked May 16 2016 07:17:05


 **********************************************************************************************************************************
 LABEL *   Optimization of nh3_2                                                         
 Linux-4.4.3/n073(x86_64) 64 bit mpp version                                             DATE: 23-Oct-23          TIME: 10:07:34  
 **********************************************************************************************************************************

 SHA1:             9e8077add272b0f3cad6f7df79ec5211205f459d
 **********************************************************************************************************************************

 THRESHOLDS:

 ZERO    =  1.00D-12  ONEINT  =  1.00D-16  TWOINT  =  1.00D-16  PREFAC  =  1.00D-14  LOCALI  =  1.00D-09  EORDER  =  1.00D-04
 ENERGY  =  1.00D-12  ETEST   =  0.00D+00  EDENS   =  0.00D+00  THRDEDEF=  1.00D-06  GRADIENT=  1.00D-02  STEP    =  1.00D-03
 ORBITAL =  1.00D-10  CIVEC   =  1.00D-05  COEFF   =  1.00D-04  PRINTCI =  5.00D-02  PUNCHCI =  9.90D+01  OPTGRAD =  1.00D-06
 OPTENERG=  1.00D-06  OPTSTEP =  3.00D-04  THRGRAD =  1.00D-10  COMPRESS=  1.00D-13  VARMIN  =  1.00D-07  VARMAX  =  1.00D-03
 THRDOUB =  0.00D+00  THRDIV  =  1.00D-05  THRRED  =  1.00D-07  THRPSP  =  1.00D+00  THRDC   =  1.00D-10  THRCS   =  1.00D-10
 THRNRM  =  1.00D-08  THREQ   =  0.00D+00  THRDE   =  1.00D+00  THRREF  =  1.00D-05  SPARFAC =  1.00D+00  THRDLP  =  1.00D-07
 THRDIA  =  1.00D-10  THRDLS  =  1.00D-07  THRGPS  =  0.00D+00  THRKEX  =  0.00D+00  THRDIS  =  2.00D-01  THRVAR  =  1.00D-10
 THRLOC  =  1.00D-06  THRGAP  =  1.00D-06  THRLOCT = -1.00D+00  THRGAPT = -1.00D+00  THRORB  =  1.00D-06  THRMLTP =  0.00D+00
 THRCPQCI=  1.00D-10  KEXTA   =  0.00D+00  THRCOARS=  0.00D+00  SYMTOL  =  1.00D-06  GRADTOL =  1.00D-06  THROVL  =  1.00D-08
 THRORTH =  1.00D-08  GRID    =  1.00D-06  GRIDMAX =  1.00D-03  DTMAX   =  0.00D+00

 SETTING GEOMTYP        =    XYZ
 ZUNIT=BOHR
 

 Variable memory set to 1000000000 words,  buffer space   230000 words

 SETTING BASIS          =    AUG-CC-PVDZ


 Recomputing integrals since basis changed


 Using spherical harmonics

 Library entry N      S aug-cc-pVDZ          selected for orbital group  1
 Library entry N      P aug-cc-pVDZ          selected for orbital group  1
 Library entry N      D aug-cc-pVDZ          selected for orbital group  1
 Library entry H      S aug-cc-pVDZ          selected for orbital group  2
 Library entry H      P aug-cc-pVDZ          selected for orbital group  2

1PROGRAM * SEWARD (Integral evaluation for generally contracted gaussian basis sets)     Author: Roland Lindh, 1990

 Geometry written to block  1 of record 700


 Point group  C1  



 ATOMIC COORDINATES

 NR  ATOM    CHARGE       X              Y              Z

   1  N       7.00   -0.097745825    3.372612783    0.001777410
   2  H       1.00    0.720361684    4.185726511   -1.530686339
   3  H       1.00    0.721739170    4.181786218    1.535590198
   4  H       1.00    0.429833025    1.522128281   -0.000837548
   5  N       7.00   -0.130715461   -2.769288715   -0.006100379
   6  H       1.00    0.177411555   -3.889767250   -1.532111658
   7  H       1.00   -2.006195246   -2.361533509   -0.004733860
   8  H       1.00    0.185311097   -3.863719121    1.537102176

 Bond lengths in Bohr (Angstrom)

 1-2  1.918045613  1-3  1.918045613  1-4  1.924224304  5-6  1.918104489  5-7  1.919294297
     ( 1.014986024)     ( 1.014986024)     ( 1.018255647)     ( 1.015017180)     ( 1.015646800)

 5-8  1.918104487
     ( 1.015017179)

 Bond angles

  2-1-3  106.13117489   2-1-4  106.83708546   3-1-4  106.83708546   6-5-7  106.35844681

  6-5-8  106.27849527   7-5-8  106.35844738

 NUCLEAR CHARGE:                   20
 NUMBER OF PRIMITIVE AOS:         140
 NUMBER OF SYMMETRY AOS:          136
 NUMBER OF CONTRACTIONS:          100   ( 100A   )
 NUMBER OF CORE ORBITALS:           2   (   2A   )
 NUMBER OF VALENCE ORBITALS:       14   (  14A   )


 NUCLEAR REPULSION ENERGY   39.75693086


 Eigenvalues of metric

         1 0.120E-02 0.176E-02 0.182E-02 0.195E-02 0.214E-02 0.246E-02 0.363E-02 0.663E-02


 Contracted 2-electron integrals neglected if value below      1.0D-16
 AO integral compression algorithm  1   Integral accuracy      1.0D-16

     115.343 MB (compressed) written to integral file ( 94.3%)

     Node minimum: 115.343 MB, node maximum: 115.343 MB


 NUMBER OF SORTED TWO-ELECTRON INTEGRALS:   12753775.     BUFFER LENGTH:  32768
 NUMBER OF SEGMENTS:   1  SEGMENT LENGTH:   12753775      RECORD LENGTH: 524288

 Memory used in sort:      13.31 MW

 SORT1 READ    15257586. AND WROTE    12666978. INTEGRALS IN     37 RECORDS. CPU TIME:     0.14 SEC, REAL TIME:     0.21 SEC
 SORT2 READ    12666978. AND WROTE    12753775. INTEGRALS IN    440 RECORDS. CPU TIME:     0.13 SEC, REAL TIME:     0.20 SEC

 FILE SIZES:   FILE 1:   100.9 MBYTE,  FILE 4:   155.2 MBYTE,   TOTAL:    256.1 MBYTE

 OPERATOR DM      FOR CENTER  0  COORDINATES:    0.000000    0.000000    0.000000


 **********************************************************************************************************************************
 DATASETS  * FILE   NREC   LENGTH (MB)   RECORD NAMES
              1      19      101.03       500      610      700      900      950      970     1000      129      960     1100   
                                          VAR    BASINP    GEOM    SYMINP    ZMAT    AOBASIS   BASIS     P2S    ABASIS      S 
                                         1400     1410     1200     1210     1080     1600     1650     1300     1700   
                                           T        V       H0       H01     AOSYM     SMH    MOLCAS    ERIS     OPER   

 PROGRAMS   *        TOTAL       INT
 CPU TIMES  *         0.93      0.89
 REAL TIME  *         1.39 SEC
 DISK USED  *       372.18 MB      
 GA USED    *         0.00 MB       (max)       0.00 MB       (current)
 **********************************************************************************************************************************

1PROGRAM * RHF-SCF (CLOSED SHELL)       Authors: W. Meyer, H.-J. Werner


 NUMBER OF ELECTRONS:      10+   10-    SPACE SYMMETRY=1    SPIN SYMMETRY: Singlet 
 CONVERGENCE THRESHOLDS:    1.00E-10 (Density)    1.00E-13 (Energy)
 MAX. NUMBER OF ITERATIONS:      200
 INTERPOLATION TYPE:            DIIS
 INTERPOLATION STEPS:              2 (START)      1 (STEP)
 LEVEL SHIFTS:                  0.00 (CLOSED)  0.00 (OPEN) 



 Orbital guess generated from atomic densities. Full valence occupancy:   16

 Molecular orbital dump at record        2100.2

 ITERATION    DDIFF          GRAD             ENERGY        2-EL.EN.            DIPOLE MOMENTS         DIIS
    1      0.000D+00      0.000D+00      -112.36610156    160.178988    0.37040   -0.95168    0.00684    0
    2      0.000D+00      0.600D-02      -112.40458594    155.991015    0.20903   -0.71964    0.00366    1
    3      0.116D-01      0.283D-02      -112.41298503    157.751359    0.26162   -0.76344    0.00439    2
    4      0.386D-02      0.477D-03      -112.41343456    157.547270    0.26455   -0.75962    0.00438    3
    5      0.902D-03      0.977D-04      -112.41345732    157.567068    0.26660   -0.75995    0.00436    4
    6      0.164D-03      0.175D-04      -112.41345838    157.568437    0.26739   -0.76062    0.00436    5
    7      0.349D-04      0.380D-05      -112.41345842    157.568185    0.26762   -0.76073    0.00436    6
    8      0.747D-05      0.157D-05      -112.41345842    157.568231    0.26764   -0.76082    0.00436    7
    9      0.343D-05      0.401D-06      -112.41345843    157.568237    0.26766   -0.76084    0.00436    6
   10      0.936D-06      0.975D-07      -112.41345843    157.568224    0.26765   -0.76084    0.00436    6
   11      0.262D-06      0.227D-07      -112.41345843    157.568234    0.26765   -0.76084    0.00436    7
   12      0.662D-07      0.774D-08      -112.41345843    157.568231    0.26765   -0.76084    0.00436    7
   13      0.178D-07      0.231D-08      -112.41345843    157.568232    0.26765   -0.76084    0.00436    7
   14      0.477D-08      0.539D-09      -112.41345843    157.568232    0.26765   -0.76084    0.00436    7
   15      0.117D-08      0.130D-09      -112.41345843    157.568232    0.26765   -0.76084    0.00436    7
   16      0.305D-09      0.375D-10      -112.41345843    157.568232    0.26765   -0.76084    0.00436    7
   17      0.619D-10      0.136D-10      -112.41345843    157.568232    0.26765   -0.76084    0.00436    7
   18      0.306D-10      0.344D-11      -112.41345843    157.568232    0.26765   -0.76084    0.00436    7
   19      0.816D-11      0.976D-12      -112.41345843    157.568232    0.26765   -0.76084    0.00436    7
   20      0.250D-11      0.237D-12      -112.41345843    157.568232    0.26765   -0.76084    0.00436    7
   21      0.759D-12      0.105D-12      -112.41345843    157.568232    0.26765   -0.76084    0.00436    7
   22      0.363D-12      0.345D-13      -112.41345843    157.568232    0.26765   -0.76084    0.00436    8
   23      0.338D-12      0.272D-13      -112.41345843    157.568232    0.26765   -0.76084    0.00436    8
   24      0.177D-12      0.282D-13      -112.41345843    157.568232    0.26765   -0.76084    0.00436    0

 Final occupancy:  10

 !RHF STATE 1.1 Energy               -112.413458425215
 Nuclear energy                        39.75693086
 One-electron energy                 -230.95450505
 Two-electron energy                   78.78411576
 Virial quotient                       -1.00226292
 !RHF STATE 1.1 Dipole moment           0.26765411    -0.76084358     0.00436391
 Dipole moment /Debye                   0.68026432    -1.93374482     0.01109124

 Orbital energies:

         1.1          2.1          3.1          4.1          5.1          6.1          7.1          8.1          9.1         10.1
    -15.560471   -15.528747    -1.152735    -1.120012    -0.637883    -0.635543    -0.605554    -0.604395    -0.440420    -0.407377

        11.1         12.1
      0.032476     0.052512


 **********************************************************************************************************************************
 DATASETS  * FILE   NREC   LENGTH (MB)   RECORD NAMES
              1      19      101.03       500      610      700      900      950      970     1000      129      960     1100   
                                          VAR    BASINP    GEOM    SYMINP    ZMAT    AOBASIS   BASIS     P2S    ABASIS      S 
                                         1400     1410     1200     1210     1080     1600     1650     1300     1700   
                                           T        V       H0       H01     AOSYM     SMH    MOLCAS    ERIS     OPER   

              2       3        0.59       700     1000     2100   
                                         GEOM     BASIS     RHF  

 PROGRAMS   *        TOTAL       RHF       INT
 CPU TIMES  *         3.24      2.31      0.89
 REAL TIME  *         4.03 SEC
 DISK USED  *       372.18 MB      
 GA USED    *         0.00 MB       (max)       0.00 MB       (current)
 **********************************************************************************************************************************


1PROGRAM * CCSD (Closed-shell coupled cluster)     Authors: C. Hampel, H.-J. Werner, 1991, M. Deegan, P.J. Knowles, 1992


 Convergence thresholds:  THRVAR = 1.00D-08  THRDEN = 1.00D-12

 CCSD(T)     terms to be evaluated (factor= 1.000)


 Number of core orbitals:           2 (   2 )
 Number of closed-shell orbitals:   8 (   8 )
 Number of external orbitals:      90 (  90 )

 Molecular orbitals read from record     2100.2  Type=RHF/CANONICAL (state 1.1)

 Number of N-1 electron functions:               8
 Number of N-2 electron functions:              36
 Number of singly external CSFs:               720
 Number of doubly external CSFs:            259560
 Total number of CSFs:                      260281

 Length of J-op  integral file:               0.00 MB
 Length of K-op  integral file:               0.72 MB
 Length of 3-ext integral record:             0.00 MB

 Memory could be reduced to 8.71 Mwords without degradation in triples

 Integral transformation finished. Total CPU:   0.37 sec, npass=  1  Memory used:   5.38 MW

 Reference energy:                   -112.41345843

 MP2 singlet pair energy:              -0.26149315
 MP2 triplet pair energy:              -0.14045647
 MP2 correlation energy:               -0.40194961
 MP2 total energy:                   -112.81540804

 SCS-MP2 correlation energy:           -0.40118691   (PS=  1.200000  PT=  0.333333)
 SCS-MP2 total energy:               -112.81464533

 ITER.      SQ.NORM     CORR.ENERGY   TOTAL ENERGY   ENERGY CHANGE        DEN1      VAR(S)    VAR(P)  DIIS     TIME
   1      1.13780826    -0.42916853  -112.84262696    -0.02721892    -0.01760679  0.13D-02  0.19D-02  1  1     0.88
   2      1.14811787    -0.43138411  -112.84484253    -0.00221558    -0.01012914  0.18D-04  0.20D-03  2  2     1.40
   3      1.15080009    -0.43155325  -112.84501167    -0.00016914    -0.00149952  0.18D-04  0.10D-04  3  3     1.94
   4      1.15159845    -0.43155765  -112.84501608    -0.00000440    -0.00029556  0.14D-05  0.93D-06  4  4     2.47
   5      1.15180539    -0.43155123  -112.84500966     0.00000642    -0.00005753  0.27D-06  0.84D-07  5  5     3.01
   6      1.15186151    -0.43154813  -112.84500655     0.00000311    -0.00000786  0.34D-07  0.74D-08  6  6     3.53
   7      1.15187805    -0.43154745  -112.84500588     0.00000068    -0.00000153  0.43D-08  0.17D-08  6  1     4.06
   8      1.15188338    -0.43154727  -112.84500569     0.00000018    -0.00000001  0.87D-09  0.20D-09  6  2     4.59
   9      1.15188483    -0.43154719  -112.84500562     0.00000008     0.00000032  0.15D-09  0.43D-10  6  4     5.12
  10      1.15188540    -0.43154718  -112.84500560     0.00000001    -0.00000002  0.31D-10  0.66D-11  6  3     5.66
  11      1.15188540    -0.43154719  -112.84500561    -0.00000001     0.00000001  0.56D-11  0.14D-11  6  5     6.20
  12      1.15188533    -0.43154719  -112.84500562    -0.00000000    -0.00000000  0.53D-12  0.24D-12  6  6     6.74
  13      1.15188524    -0.43154720  -112.84500562    -0.00000000     0.00000002  0.31D-13  0.40D-13  6  2     7.27
  14      1.15188521    -0.43154720  -112.84500562    -0.00000000     0.00000001  0.47D-14  0.28D-14  6  1     7.80
  15      1.15188520    -0.43154720  -112.84500562    -0.00000000     0.00000000  0.10D-14  0.31D-15  6  4     8.34
  16      1.15188520    -0.43154720  -112.84500562    -0.00000000     0.00000000  0.19D-15  0.65D-16  6  3     8.87
  17      1.15188520    -0.43154720  -112.84500562    -0.00000000     0.00000000  0.31D-16  0.83D-17  6  5     9.41
  18      1.15188520    -0.43154720  -112.84500562    -0.00000000    -0.00000000  0.60D-17  0.16D-17  6  6     9.95
  19      1.15188520    -0.43154720  -112.84500562     0.00000000    -0.00000000  0.14D-17  0.35D-18  6  2    10.48
  20      1.15188520    -0.43154720  -112.84500562     0.00000000    -0.00000000  0.42D-18  0.91D-19  6  1    11.02
  21      1.15188520    -0.43154720  -112.84500562     0.00000000     0.00000000  0.91D-19  0.22D-19  6  4    11.55
  22      1.15188520    -0.43154720  -112.84500562     0.00000000    -0.00000000  0.13D-19  0.44D-20  6  5    12.08

 Norm of t1 vector:      0.05621532      S-energy:    -0.00000000      T1 diagnostic:  0.00993756
                                                                       D1 diagnostic:  0.02455721


 Total CPU time for triples:      5.33 sec


 RESULTS
 =======

  Reference energy                   -112.413458425215
  CCSD singlet pair energy             -0.303504098518
  CCSD triplet pair energy             -0.128043099655
  CCSD correlation energy              -0.431547198174

  Triples (T) contribution             -0.011407745607
  Total correlation energy             -0.442954943781

  CCSD total energy                  -112.845005623388
  CCSD[T] energy                     -112.856807389195
  CCSD-T energy                      -112.856203074718
 !CCSD(T) total energy               -112.856413368996

 Timing summary (sec):

 STEP                 CPU(USER)    SYS     CPU(TOT)    WALL
 Transformation          0.38      0.06      0.44      0.45
 CCSD iterations        11.70      0.59     12.29     12.31
 Triples                 5.33      0.12      5.45      5.45

 Program statistics:

 Available memory in ccsd:               999999644
 Min. memory needed in ccsd:                815289
 Max. memory used in ccsd:                 1030049
 Max. memory used in cckext:                821402 (22 integral passes)



 **********************************************************************************************************************************
 DATASETS  * FILE   NREC   LENGTH (MB)   RECORD NAMES
              1      20      129.14       500      610      700      900      950      970     1000      129      960     1100   
                                          VAR    BASINP    GEOM    SYMINP    ZMAT    AOBASIS   BASIS     P2S    ABASIS      S 
                                         1400     1410     1200     1210     1080     1600     1650     1300     1700     1380   
                                           T        V       H0       H01     AOSYM     SMH    MOLCAS    ERIS     OPER     JKOP   

              2       3        0.59       700     1000     2100   
                                         GEOM     BASIS     RHF  

 PROGRAMS   *        TOTAL   CCSD(T)       RHF       INT
 CPU TIMES  *        20.65     17.41      2.31      0.89
 REAL TIME  *        22.28 SEC
 DISK USED  *       372.18 MB      
 GA USED    *         0.00 MB       (max)       0.00 MB       (current)
 **********************************************************************************************************************************

        CCSD(T)         RHF-SCF 
   -112.85641337   -112.41345843
 **********************************************************************************************************************************
 Variable memory released
