
 Primary working directories    : /tmp/1049102.1778.gen6.q
 Secondary working directories  : /tmp/1049102.1778.gen6.q
 Wavefunction directory         : /home/vulcan/mel64643/wfu/
 Main file repository           : /tmp/1049102.1778.gen6.q/

 ARCHNAME  : Linux/x86_64
 FC        : /opt/intel/compilers_and_libraries_2016.1.150/linux/bin/intel64/ifort
 FCVERSION : 16.0.1
 BLASLIB   : -mkl
 id        : ccgc

 Nodes     nprocs
 n086         1
 ga_uses_ma=false, calling ma_init with nominal heap.
 GA-space will be limited to   8.0 MW (determined by -G option)

 Using customized tuning parameters: mindgm=10; mindgv=16; mindgc=4; mindgr=1; noblas=0; mincuda=1000; minvec=7
 default implementation of scratch files=df  

 ***,Optimization of h2o_3
 memory,1000,m
 gthresh,energy=1.0d-12,orbital=1.0d-10,oneint=1.0d-16,twoint=1.0d-16,optgrad=1.0d-6,compress=1.0d-13
 geomtyp=xyz
 
 
 
 bohr
 geometry = {
  C    0.9109720803    1.4049553409   -2.2729551566
  C    0.7372998126    2.7090627999    0.0185173774
  C    1.0004385381    1.4063921350    2.3024284668
  C    1.4356514163   -1.2004397221    2.2948704985
  C    1.6100506010   -2.5040550603    0.0034389901
  C    1.3469704354   -1.2011606345   -2.2802680950
  H    0.7095818725    2.4155725465   -4.0429034856
  H    0.3903204406    4.7272926229    0.0243278378
  H    0.8547616547    2.4156540689    4.0788310524
  H    1.6253034383   -2.2120955008    4.0659371438
  H    1.9395167141   -4.5256969446   -0.0023385344
  H    1.4855571688   -2.2110529906   -4.0571657962
  N   -5.4427665582   -0.3576030429   -0.0700819728
  H   -5.5915025252   -1.5690118345   -1.5505076947
  H   -6.0691505418   -1.3157580129    1.4696331578
  H   -3.5620726803   -0.0738453688    0.1983138879
 }
 
 basis=aug-cc-pvdz, H=cc-pvdz
 {rhf;maxit,200}
 {ccsd(t)}

 Variables initialized (661), CPU time= 0.00 sec
 Commands  initialized (458), CPU time= 0.01 sec, 486 directives.
 Default parameters read. Elapsed time= 0.04 sec

 Checking input...
 Passed
1


                                         ***  PROGRAM SYSTEM MOLPRO  ***
                         Copyright, University College Cardiff Consultants Limited, 2008

                                    Version 2010.1 linked May 16 2016 07:17:05


 **********************************************************************************************************************************
 LABEL *   Optimization of h2o_3                                                         
 Linux-4.4.3/n086(x86_64) 64 bit mpp version                                             DATE: 21-Mar-24          TIME: 18:58:51  
 **********************************************************************************************************************************

 SHA1:             9e8077add272b0f3cad6f7df79ec5211205f459d
 **********************************************************************************************************************************

 THRESHOLDS:

 ZERO    =  1.00D-12  ONEINT  =  1.00D-16  TWOINT  =  1.00D-16  PREFAC  =  1.00D-14  LOCALI  =  1.00D-09  EORDER  =  1.00D-04
 ENERGY  =  1.00D-12  ETEST   =  0.00D+00  EDENS   =  0.00D+00  THRDEDEF=  1.00D-06  GRADIENT=  1.00D-02  STEP    =  1.00D-03
 ORBITAL =  1.00D-10  CIVEC   =  1.00D-05  COEFF   =  1.00D-04  PRINTCI =  5.00D-02  PUNCHCI =  9.90D+01  OPTGRAD =  1.00D-06
 OPTENERG=  1.00D-06  OPTSTEP =  3.00D-04  THRGRAD =  1.00D-10  COMPRESS=  1.00D-13  VARMIN  =  1.00D-07  VARMAX  =  1.00D-03
 THRDOUB =  0.00D+00  THRDIV  =  1.00D-05  THRRED  =  1.00D-07  THRPSP  =  1.00D+00  THRDC   =  1.00D-10  THRCS   =  1.00D-10
 THRNRM  =  1.00D-08  THREQ   =  0.00D+00  THRDE   =  1.00D+00  THRREF  =  1.00D-05  SPARFAC =  1.00D+00  THRDLP  =  1.00D-07
 THRDIA  =  1.00D-10  THRDLS  =  1.00D-07  THRGPS  =  0.00D+00  THRKEX  =  0.00D+00  THRDIS  =  2.00D-01  THRVAR  =  1.00D-10
 THRLOC  =  1.00D-06  THRGAP  =  1.00D-06  THRLOCT = -1.00D+00  THRGAPT = -1.00D+00  THRORB  =  1.00D-06  THRMLTP =  0.00D+00
 THRCPQCI=  1.00D-10  KEXTA   =  0.00D+00  THRCOARS=  0.00D+00  SYMTOL  =  1.00D-06  GRADTOL =  1.00D-06  THROVL  =  1.00D-08
 THRORTH =  1.00D-08  GRID    =  1.00D-06  GRIDMAX =  1.00D-03  DTMAX   =  0.00D+00

 SETTING GEOMTYP        =    XYZ
 ZUNIT=BOHR
 

 Variable memory set to 1000000000 words,  buffer space   230000 words

 SETTING BASIS          =    AUG-CC-PVDZ,H=CC-PVDZ


 Recomputing integrals since basis changed


 Using spherical harmonics

 Library entry C      S aug-cc-pVDZ          selected for orbital group  1
 Library entry C      P aug-cc-pVDZ          selected for orbital group  1
 Library entry C      D aug-cc-pVDZ          selected for orbital group  1
 Library entry H      S cc-pVDZ              selected for orbital group  2
 Library entry H      P cc-pVDZ              selected for orbital group  2
 Library entry N      S aug-cc-pVDZ          selected for orbital group  3
 Library entry N      P aug-cc-pVDZ          selected for orbital group  3
 Library entry N      D aug-cc-pVDZ          selected for orbital group  3

1PROGRAM * SEWARD (Integral evaluation for generally contracted gaussian basis sets)     Author: Roland Lindh, 1990

 Geometry written to block  1 of record 700


 Point group  C1  



 ATOMIC COORDINATES

 NR  ATOM    CHARGE       X              Y              Z

   1  C       6.00    0.910972080    1.404955341   -2.272955157
   2  C       6.00    0.737299813    2.709062800    0.018517377
   3  C       6.00    1.000438538    1.406392135    2.302428467
   4  C       6.00    1.435651416   -1.200439722    2.294870498
   5  C       6.00    1.610050601   -2.504055060    0.003438990
   6  C       6.00    1.346970435   -1.201160635   -2.280268095
   7  H       1.00    0.709581873    2.415572546   -4.042903486
   8  H       1.00    0.390320441    4.727292623    0.024327838
   9  H       1.00    0.854761655    2.415654069    4.078831052
  10  H       1.00    1.625303438   -2.212095501    4.065937144
  11  H       1.00    1.939516714   -4.525696945   -0.002338534
  12  H       1.00    1.485557169   -2.211052991   -4.057165796
  13  N       7.00   -5.442766558   -0.357603043   -0.070081973
  14  H       1.00   -5.591502525   -1.569011834   -1.550507695
  15  H       1.00   -6.069150542   -1.315758013    1.469633158
  16  H       1.00   -3.562072680   -0.073845369    0.198313888

 Bond lengths in Bohr (Angstrom)

 1-2  2.642291561  1-6  2.642345269  1-7  2.048077694  2-3  2.642431213  2-8  2.047847666
     ( 1.398240474)     ( 1.398268895)     ( 1.083796038)     ( 1.398314374)     ( 1.083674313)

  3- 4  2.642922569   3- 9  2.048276727   4- 5  2.642061011   4-10  2.048436566   5- 6  2.642359383
       ( 1.398574388)       ( 1.083901362)       ( 1.398118472)       ( 1.083985945)       ( 1.398276363)

  5-11  2.048320582   6-12  2.048524907  13-14  1.918669843  13-15  1.918629856  13-16  1.920823838
       ( 1.083924569)       ( 1.084032693)       ( 1.015316352)       ( 1.015295192)       ( 1.016456198)

 Bond angles

  1- 2- 3  119.98067403   1- 2- 8  120.00071487   1- 6- 5  120.02353072   1- 6-12  119.98606100

  2-1-6  120.00199185   2-1-7  119.96393474   2-3-4  120.01167640   2-3-9  119.97386009

  3- 2- 8  120.01801842   3- 4- 5  120.00136431   3- 4-10  119.99315967   4- 3- 9  120.01325147

  4- 5- 6  119.98073475   4- 5-11  120.00301741   5- 4-10  120.00422452   5- 6-12  119.99024479

  6- 1- 7  120.03403735   6- 5-11  120.01550345  14-13-15  106.17607583  14-13-16  106.08043223

 15-13-16  106.33745550

 NUCLEAR CHARGE:                   52
 NUMBER OF PRIMITIVE AOS:         322
 NUMBER OF SYMMETRY AOS:          308
 NUMBER OF CONTRACTIONS:          206   ( 206A   )
 NUMBER OF CORE ORBITALS:           7   (   7A   )
 NUMBER OF VALENCE ORBITALS:       37   (  37A   )


 NUCLEAR REPULSION ENERGY  273.71115191


 Eigenvalues of metric

         1 0.861E-05 0.184E-04 0.228E-04 0.532E-04 0.643E-04 0.644E-04 0.107E-03 0.107E-03


 Contracted 2-electron integrals neglected if value below      1.0D-16
 AO integral compression algorithm  1   Integral accuracy      1.0D-16

     1892.680 MB (compressed) written to integral file ( 94.5%)

     Node minimum: 1892.680 MB, node maximum: 1892.680 MB


 NUMBER OF SORTED TWO-ELECTRON INTEGRALS:  227303181.     BUFFER LENGTH:  32768
 NUMBER OF SEGMENTS:  15  SEGMENT LENGTH:   15999503      RECORD LENGTH: 524288

 Memory used in sort:      16.56 MW

 SORT1 READ   250230184. AND WROTE   226407513. INTEGRALS IN    654 RECORDS. CPU TIME:     2.21 SEC, REAL TIME:     3.70 SEC
 SORT2 READ   226407513. AND WROTE   227303181. INTEGRALS IN   7220 RECORDS. CPU TIME:     1.52 SEC, REAL TIME:     2.34 SEC

 FILE SIZES:   FILE 1:  1743.4 MBYTE,  FILE 4:  2743.1 MBYTE,   TOTAL:   4486.5 MBYTE

 OPERATOR DM      FOR CENTER  0  COORDINATES:    0.000000    0.000000    0.000000


 **********************************************************************************************************************************
 DATASETS  * FILE   NREC   LENGTH (MB)   RECORD NAMES
              1      19     1743.90       500      610      700      900      950      970     1000      129      960     1100   
                                          VAR    BASINP    GEOM    SYMINP    ZMAT    AOBASIS   BASIS     P2S    ABASIS      S 
                                         1400     1410     1200     1210     1080     1600     1650     1300     1700   
                                           T        V       H0       H01     AOSYM     SMH    MOLCAS    ERIS     OPER   

 PROGRAMS   *        TOTAL       INT
 CPU TIMES  *        12.74     12.70
 REAL TIME  *        16.37 SEC
 DISK USED  *         6.38 GB      
 GA USED    *         0.01 MB       (max)       0.00 MB       (current)
 **********************************************************************************************************************************

1PROGRAM * RHF-SCF (CLOSED SHELL)       Authors: W. Meyer, H.-J. Werner


 NUMBER OF ELECTRONS:      26+   26-    SPACE SYMMETRY=1    SPIN SYMMETRY: Singlet 
 CONVERGENCE THRESHOLDS:    1.00E-10 (Density)    1.00E-13 (Energy)
 MAX. NUMBER OF ITERATIONS:      200
 INTERPOLATION TYPE:            DIIS
 INTERPOLATION STEPS:              2 (START)      1 (STEP)
 LEVEL SHIFTS:                  0.00 (CLOSED)  0.00 (OPEN) 



 Orbital guess generated from atomic densities. Full valence occupancy:   44

 Molecular orbital dump at record        2100.2

 ITERATION    DDIFF          GRAD             ENERGY        2-EL.EN.            DIPOLE MOMENTS         DIIS
    1      0.000D+00      0.000D+00      -286.85324046    740.884730    0.51955   -0.76784    0.13614    0
    2      0.000D+00      0.322D-02      -286.92079860    735.094342    0.43502   -0.38422    0.06226    1
    3      0.826D-02      0.133D-02      -286.93012653    737.726171    0.45166   -0.52265    0.09221    2
    4      0.218D-02      0.381D-03      -286.93134447    737.206409    0.45019   -0.49593    0.08447    3
    5      0.783D-03      0.526D-04      -286.93136827    737.195187    0.45605   -0.50601    0.08841    4
    6      0.135D-03      0.176D-04      -286.93137070    737.210079    0.45488   -0.50051    0.08633    5
    7      0.511D-04      0.553D-05      -286.93137097    737.206998    0.45554   -0.50273    0.08708    6
    8      0.149D-04      0.129D-05      -286.93137099    737.205995    0.45569   -0.50237    0.08694    7
    9      0.416D-05      0.541D-06      -286.93137099    737.206452    0.45572   -0.50246    0.08697    7
   10      0.148D-05      0.143D-06      -286.93137099    737.206401    0.45572   -0.50246    0.08697    7
   11      0.516D-06      0.411D-07      -286.93137099    737.206387    0.45573   -0.50246    0.08697    7
   12      0.142D-06      0.176D-07      -286.93137099    737.206401    0.45573   -0.50246    0.08697    8
   13      0.617D-07      0.770D-08      -286.93137099    737.206396    0.45573   -0.50246    0.08697    8
   14      0.343D-07      0.365D-08      -286.93137099    737.206398    0.45573   -0.50246    0.08697    8
   15      0.202D-07      0.138D-08      -286.93137099    737.206397    0.45573   -0.50246    0.08697    8
   16      0.713D-08      0.456D-09      -286.93137099    737.206397    0.45573   -0.50246    0.08697    9
   17      0.212D-08      0.125D-09      -286.93137099    737.206397    0.45573   -0.50246    0.08697    9
   18      0.390D-09      0.388D-10      -286.93137099    737.206397    0.45573   -0.50246    0.08697    8
   19      0.228D-09      0.160D-10      -286.93137099    737.206397    0.45573   -0.50246    0.08697    9
   20      0.189D-09      0.856D-11      -286.93137099    737.206397    0.45573   -0.50246    0.08697    9
   21      0.126D-09      0.418D-11      -286.93137099    737.206397    0.45573   -0.50246    0.08697    9
   22      0.199D-09      0.127D-11      -286.93137099    737.206397    0.45573   -0.50246    0.08697    9
   23      0.115D-09      0.763D-12      -286.93137099    737.206397    0.45573   -0.50246    0.08697    9
   24      0.879D-10      0.693D-12      -286.93137099    737.206397    0.45573   -0.50246    0.08697    9
   25      0.652D-10      0.512D-12      -286.93137099    737.206397    0.45573   -0.50246    0.08697    9
   26      0.448D-10      0.608D-12      -286.93137099    737.206397    0.45573   -0.50246    0.08697    9
   27      0.390D-10      0.470D-12      -286.93137099    737.206397    0.45573   -0.50246    0.08697    9
   28      0.239D-10      0.500D-12      -286.93137099    737.206397    0.45573   -0.50246    0.08697    9
   29      0.131D-10      0.413D-12      -286.93137099    737.206397    0.45573   -0.50246    0.08697    9
   30      0.159D-10      0.582D-12      -286.93137099    737.206397    0.45573   -0.50246    0.08697    9
   31      0.886D-11      0.459D-12      -286.93137099    737.206397    0.45573   -0.50246    0.08697    9
   32      0.111D-10      0.492D-12      -286.93137099    737.206397    0.45573   -0.50246    0.08697    9
   33      0.103D-10      0.510D-12      -286.93137099    737.206397    0.45573   -0.50246    0.08697    0

 Final occupancy:  26

 !RHF STATE 1.1 Energy               -286.931370994651
 Nuclear energy                       273.71115191
 One-electron energy                 -929.24572144
 Two-electron energy                  368.60319854
 Virial quotient                       -1.00146525
 !RHF STATE 1.1 Dipole moment           0.45573199    -0.50246465     0.08697198
 Dipole moment /Debye                   1.15827932    -1.27705412     0.22104625

 Orbital energies:

         1.1          2.1          3.1          4.1          5.1          6.1          7.1          8.1          9.1         10.1
    -15.535004   -11.250630   -11.250024   -11.249671   -11.248802   -11.248658   -11.247828    -1.157501    -1.125559    -1.022053

        11.1         12.1         13.1         14.1         15.1         16.1         17.1         18.1         19.1         20.1
     -1.021949    -0.830635    -0.830537    -0.714501    -0.650453    -0.623919    -0.611684    -0.609816    -0.593578    -0.593450

        21.1         22.1         23.1         24.1         25.1         26.1         27.1         28.1
     -0.504897    -0.500099    -0.500024    -0.413430    -0.342973    -0.341987     0.063901     0.066423


 **********************************************************************************************************************************
 DATASETS  * FILE   NREC   LENGTH (MB)   RECORD NAMES
              1      19     1743.90       500      610      700      900      950      970     1000      129      960     1100   
                                          VAR    BASINP    GEOM    SYMINP    ZMAT    AOBASIS   BASIS     P2S    ABASIS      S 
                                         1400     1410     1200     1210     1080     1600     1650     1300     1700   
                                           T        V       H0       H01     AOSYM     SMH    MOLCAS    ERIS     OPER   

              2       3        1.40       700     1000     2100   
                                         GEOM     BASIS     RHF  

 PROGRAMS   *        TOTAL       RHF       INT
 CPU TIMES  *        61.85     49.11     12.70
 REAL TIME  *        70.70 SEC
 DISK USED  *         6.38 GB      
 GA USED    *         0.01 MB       (max)       0.00 MB       (current)
 **********************************************************************************************************************************


1PROGRAM * CCSD (Closed-shell coupled cluster)     Authors: C. Hampel, H.-J. Werner, 1991, M. Deegan, P.J. Knowles, 1992


 Convergence thresholds:  THRVAR = 1.00D-08  THRDEN = 1.00D-12

 CCSD(T)     terms to be evaluated (factor= 1.000)


 Number of core orbitals:           7 (   7 )
 Number of closed-shell orbitals:  19 (  19 )
 Number of external orbitals:     180 ( 180 )

 Molecular orbitals read from record     2100.2  Type=RHF/CANONICAL (state 1.1)

 Number of N-1 electron functions:              19
 Number of N-2 electron functions:             190
 Number of singly external CSFs:              3420
 Number of doubly external CSFs:           5849910
 Total number of CSFs:                     5853331

 Length of J-op  integral file:               0.00 MB
 Length of K-op  integral file:               2.96 MB
 Length of 3-ext integral record:             0.00 MB

 Memory could be reduced to 140.12 Mwords without degradation in triples

 Integral transformation finished. Total CPU:  10.46 sec, npass=  1  Memory used: 101.90 MW

 Reference energy:                   -286.93137099

 MP2 singlet pair energy:              -0.62063290
 MP2 triplet pair energy:              -0.38983526
 MP2 correlation energy:               -1.01046815
 MP2 total energy:                   -287.94183915

 SCS-MP2 correlation energy:           -0.98732364   (PS=  1.200000  PT=  0.333333)
 SCS-MP2 total energy:               -287.91869463

 ITER.      SQ.NORM     CORR.ENERGY   TOTAL ENERGY   ENERGY CHANGE        DEN1      VAR(S)    VAR(P)  DIIS     TIME
   1      1.38488282    -1.05475981  -287.98613081    -0.04429166    -0.01721301  0.36D-02  0.80D-02  1  1    43.59
   2      1.41439551    -1.06062238  -287.99199337    -0.00586256    -0.02705284  0.63D-04  0.10D-02  2  2    77.09
   3      1.42352660    -1.06071810  -287.99208909    -0.00009572    -0.00464350  0.27D-04  0.84D-04  3  3   110.62
   4      1.42746390    -1.06088684  -287.99225783    -0.00016874    -0.00121414  0.22D-05  0.11D-04  4  4   144.16
   5      1.42867750    -1.06091779  -287.99228878    -0.00003095    -0.00027320  0.27D-06  0.13D-05  5  5   177.74
   6      1.42898007    -1.06090755  -287.99227855     0.00001024    -0.00004348  0.23D-07  0.79D-07  6  6   211.31
   7      1.42902081    -1.06090918  -287.99228018    -0.00000163    -0.00000103  0.35D-08  0.82D-08  6  2   244.88
   8      1.42903000    -1.06090904  -287.99228004     0.00000014    -0.00000117  0.76D-09  0.76D-09  6  1   278.46
   9      1.42902983    -1.06090918  -287.99228017    -0.00000014     0.00000123  0.21D-09  0.92D-10  6  4   312.02
  10      1.42903103    -1.06090919  -287.99228018    -0.00000001    -0.00000018  0.57D-10  0.15D-10  6  3   345.61
  11      1.42903097    -1.06090920  -287.99228020    -0.00000002     0.00000013  0.14D-10  0.37D-11  6  5   379.17
  12      1.42903093    -1.06090921  -287.99228020    -0.00000000     0.00000003  0.15D-11  0.10D-11  6  6   412.77
  13      1.42903075    -1.06090921  -287.99228020    -0.00000000     0.00000006  0.69D-13  0.20D-12  6  2   446.33
  14      1.42903065    -1.06090921  -287.99228021    -0.00000000     0.00000003  0.81D-14  0.40D-13  6  1   479.91
  15      1.42903060    -1.06090921  -287.99228021    -0.00000000     0.00000001  0.89D-15  0.54D-14  6  3   513.48
  16      1.42903057    -1.06090921  -287.99228021    -0.00000000     0.00000000  0.12D-15  0.37D-15  6  4   547.08
  17      1.42903057    -1.06090921  -287.99228021    -0.00000000     0.00000000  0.31D-16  0.44D-16  6  5   580.66
  18      1.42903057    -1.06090921  -287.99228021    -0.00000000     0.00000000  0.82D-17  0.71D-17  6  6   614.24
  19      1.42903057    -1.06090921  -287.99228021    -0.00000000     0.00000000  0.24D-17  0.77D-18  6  2   647.76
  20      1.42903057    -1.06090921  -287.99228021    -0.00000000     0.00000000  0.76D-18  0.18D-18  6  1   681.29
  21      1.42903057    -1.06090921  -287.99228021    -0.00000000     0.00000000  0.29D-18  0.77D-19  6  3   714.78
  22      1.42903057    -1.06090921  -287.99228021    -0.00000000     0.00000000  0.11D-18  0.36D-19  6  4   748.30
  23      1.42903057    -1.06090921  -287.99228021    -0.00000000     0.00000000  0.50D-19  0.20D-19  6  6   781.79

 Norm of t1 vector:      0.08385609      S-energy:    -0.00000000      T1 diagnostic:  0.00961895
                                                                       D1 diagnostic:  0.02619102

 Doubles amplitudes (print threshold =  0.500E-01):

         I         J         SYM. A    SYM. B    A         B      T(IJ, AB)

        18        18         1         1         6         6     -0.05124527
        19        19         1         1         7         7     -0.05465927


 Total CPU time for triples:    678.36 sec


 RESULTS
 =======

  Reference energy                   -286.931370994652
  CCSD singlet pair energy             -0.711156878138
  CCSD triplet pair energy             -0.349752333291
  CCSD correlation energy              -1.060909211430

  Triples (T) contribution             -0.045602986701
  Total correlation energy             -1.106512198131

  CCSD total energy                  -287.992280206082
  CCSD[T] energy                     -288.038753414933
  CCSD-T energy                      -288.037494640503
 !CCSD(T) total energy               -288.037883192783

 Timing summary (sec):

 STEP                 CPU(USER)    SYS     CPU(TOT)    WALL
 Transformation         10.79      0.77     11.56     11.57
 CCSD iterations       771.02     11.37    782.39    783.00
 Triples               678.36      9.46    687.82    687.91

 Program statistics:

 Available memory in ccsd:               999998456
 Min. memory needed in ccsd:              14392275
 Max. memory used in ccsd:                19775697
 Max. memory used in cckext:              16737545 (23 integral passes)



 **********************************************************************************************************************************
 DATASETS  * FILE   NREC   LENGTH (MB)   RECORD NAMES
              1      20     2287.50       500      610      700      900      950      970     1000      129      960     1100   
                                          VAR    BASINP    GEOM    SYMINP    ZMAT    AOBASIS   BASIS     P2S    ABASIS      S 
                                         1400     1410     1200     1210     1080     1600     1650     1300     1700     1380   
                                           T        V       H0       H01     AOSYM     SMH    MOLCAS    ERIS     OPER     JKOP   

              2       3        1.40       700     1000     2100   
                                         GEOM     BASIS     RHF  

 PROGRAMS   *        TOTAL   CCSD(T)       RHF       INT
 CPU TIMES  *      1522.03   1460.18     49.11     12.70
 REAL TIME  *      1553.28 SEC
 DISK USED  *         6.38 GB      
 GA USED    *         0.01 MB       (max)       0.00 MB       (current)
 **********************************************************************************************************************************

        CCSD(T)         RHF-SCF 
   -288.03788319   -286.93137099
 **********************************************************************************************************************************
 Variable memory released
