
 Primary working directories    : /tmp/944438.293.gen6.q
 Secondary working directories  : /tmp/944438.293.gen6.q
 Wavefunction directory         : /home/vulcan/mel64643/wfu/
 Main file repository           : /tmp/944438.293.gen6.q/

 ARCHNAME  : Linux/x86_64
 FC        : /opt/intel/compilers_and_libraries_2016.1.150/linux/bin/intel64/ifort
 FCVERSION : 16.0.1
 BLASLIB   : -mkl
 id        : ccgc

 Nodes     nprocs
 n077         1
 ga_uses_ma=false, calling ma_init with nominal heap.
 GA-space will be limited to   8.0 MW (determined by -G option)

 Using customized tuning parameters: mindgm=10; mindgv=16; mindgc=4; mindgr=1; noblas=0; mincuda=1000; minvec=7
 default implementation of scratch files=df  

 ***,Optimization of min3
 memory,1000,m
 gthresh,energy=1.0d-12,orbital=1.0d-10,oneint=1.0d-16,twoint=1.0d-16,optgrad=1.0d-6,compress=1.0d-13
 geomtyp=xyz
 
 
 
  bohr
  geometry = {
  C   -0.2886971405    2.4001686444   -2.1334646583
  C    0.7650994873   -0.0005212562   -0.8941803618
  C    0.1922995997    0.0003334422    1.8337257897
  N   -0.2961072104    0.0010030212    3.9770353749
  H    2.8244909521   -0.0004716691   -1.0652436859
  C   -0.2884522546   -2.4021212299   -2.1319086003
  H   -2.3395973640   -2.4528349778   -1.9601453850
  H    0.4774514736   -4.0905557567   -1.2537910383
  H    0.2012482073   -2.4170930137   -4.1364476789
  H   -2.3398474216    2.4507844698   -1.9617343219
  H    0.1986287407    2.4138247890   -4.1282989271
  H    0.4807669603    4.0974835367   -1.2521664196
 }
 
 basis=cc-pvdz
 {rhf;maxit,200}
 {ccsd(t);maxit,200}

 Variables initialized (661), CPU time= 0.00 sec
 Commands  initialized (458), CPU time= 0.01 sec, 486 directives.
 Default parameters read. Elapsed time= 0.04 sec

 Checking input...
 Passed
1


                                         ***  PROGRAM SYSTEM MOLPRO  ***
                         Copyright, University College Cardiff Consultants Limited, 2008

                                    Version 2010.1 linked May 16 2016 07:17:05


 **********************************************************************************************************************************
 LABEL *   Optimization of min3                                                          
 Linux-4.4.3/n077(x86_64) 64 bit mpp version                                             DATE: 27-Oct-23          TIME: 10:47:33  
 **********************************************************************************************************************************

 SHA1:             9e8077add272b0f3cad6f7df79ec5211205f459d
 **********************************************************************************************************************************

 THRESHOLDS:

 ZERO    =  1.00D-12  ONEINT  =  1.00D-16  TWOINT  =  1.00D-16  PREFAC  =  1.00D-14  LOCALI  =  1.00D-09  EORDER  =  1.00D-04
 ENERGY  =  1.00D-12  ETEST   =  0.00D+00  EDENS   =  0.00D+00  THRDEDEF=  1.00D-06  GRADIENT=  1.00D-02  STEP    =  1.00D-03
 ORBITAL =  1.00D-10  CIVEC   =  1.00D-05  COEFF   =  1.00D-04  PRINTCI =  5.00D-02  PUNCHCI =  9.90D+01  OPTGRAD =  1.00D-06
 OPTENERG=  1.00D-06  OPTSTEP =  3.00D-04  THRGRAD =  1.00D-10  COMPRESS=  1.00D-13  VARMIN  =  1.00D-07  VARMAX  =  1.00D-03
 THRDOUB =  0.00D+00  THRDIV  =  1.00D-05  THRRED  =  1.00D-07  THRPSP  =  1.00D+00  THRDC   =  1.00D-10  THRCS   =  1.00D-10
 THRNRM  =  1.00D-08  THREQ   =  0.00D+00  THRDE   =  1.00D+00  THRREF  =  1.00D-05  SPARFAC =  1.00D+00  THRDLP  =  1.00D-07
 THRDIA  =  1.00D-10  THRDLS  =  1.00D-07  THRGPS  =  0.00D+00  THRKEX  =  0.00D+00  THRDIS  =  2.00D-01  THRVAR  =  1.00D-10
 THRLOC  =  1.00D-06  THRGAP  =  1.00D-06  THRLOCT = -1.00D+00  THRGAPT = -1.00D+00  THRORB  =  1.00D-06  THRMLTP =  0.00D+00
 THRCPQCI=  1.00D-10  KEXTA   =  0.00D+00  THRCOARS=  0.00D+00  SYMTOL  =  1.00D-06  GRADTOL =  1.00D-06  THROVL  =  1.00D-08
 THRORTH =  1.00D-08  GRID    =  1.00D-06  GRIDMAX =  1.00D-03  DTMAX   =  0.00D+00

 SETTING GEOMTYP        =    XYZ
 ZUNIT=BOHR
 

 Variable memory set to 1000000000 words,  buffer space   230000 words

 SETTING BASIS          =    CC-PVDZ


 Recomputing integrals since basis changed


 Using spherical harmonics

 Library entry C      S cc-pVDZ              selected for orbital group  1
 Library entry C      P cc-pVDZ              selected for orbital group  1
 Library entry C      D cc-pVDZ              selected for orbital group  1
 Library entry N      S cc-pVDZ              selected for orbital group  2
 Library entry N      P cc-pVDZ              selected for orbital group  2
 Library entry N      D cc-pVDZ              selected for orbital group  2
 Library entry H      S cc-pVDZ              selected for orbital group  3
 Library entry H      P cc-pVDZ              selected for orbital group  3

1PROGRAM * SEWARD (Integral evaluation for generally contracted gaussian basis sets)     Author: Roland Lindh, 1990

 Geometry written to block  1 of record 700


 Point group  C1  



 ATOMIC COORDINATES

 NR  ATOM    CHARGE       X              Y              Z

   1  C       6.00   -0.288697141    2.400168644   -2.133464658
   2  C       6.00    0.765099487   -0.000521256   -0.894180362
   3  C       6.00    0.192299600    0.000333442    1.833725790
   4  N       7.00   -0.296107210    0.001003021    3.977035375
   5  H       1.00    2.824490952   -0.000471669   -1.065243686
   6  C       6.00   -0.288452255   -2.402121230   -2.131908600
   7  H       1.00   -2.339597364   -2.452834978   -1.960145385
   8  H       1.00    0.477451474   -4.090555757   -1.253791038
   9  H       1.00    0.201248207   -2.417093014   -4.136447679
  10  H       1.00   -2.339847422    2.450784470   -1.961734322
  11  H       1.00    0.198628741    2.413824789   -4.128298927
  12  H       1.00    0.480766960    4.097483537   -1.252166420

 Bond lengths in Bohr (Angstrom)

  1- 2  2.899935327   1-10  2.058948942   1-11  2.053542492   1-12  2.061465360   2- 3  2.787395274
       ( 1.534579682)       ( 1.089548855)       ( 1.086687884)       ( 1.090880486)       ( 1.475026051)

 2-5  2.066483939  2-6  2.899935327  3-4  2.198253315  6-7  2.058948942  6-8  2.051465360
     ( 1.093536203)     ( 1.534579682)     ( 1.163265554)     ( 1.089548855)     ( 1.085588714)

 6-9  2.063542492
     ( 1.091979656)

 Bond angles

  1- 2- 3  110.07805273   1- 2- 5  109.07122527   1- 2- 6  111.78757137   2- 1-10  110.28665405

  2- 1-11  109.53615467   2- 1-12  111.30134661   2- 3- 4  179.02148592   2- 6- 7  110.28665421

  2-6-8  111.30134571   2-6-9  109.53615540   3-2-5  106.60693499   3-2-6  110.07805273

  5-2-6  109.07122527   7-6-8  108.41810549   7-6-9  108.49789729   8-6-9  108.73761565

 10- 1-11  108.49789551  10- 1-12  108.41810686  11- 1-12  108.73761600

 NUCLEAR CHARGE:                   38
 NUMBER OF PRIMITIVE AOS:         184
 NUMBER OF SYMMETRY AOS:          179
 NUMBER OF CONTRACTIONS:          105   ( 105A   )
 NUMBER OF CORE ORBITALS:           5   (   5A   )
 NUMBER OF VALENCE ORBITALS:       27   (  27A   )


 NUCLEAR REPULSION ENERGY  158.99793895


 Eigenvalues of metric

         1 0.197E-02 0.463E-02 0.573E-02 0.601E-02 0.167E-01 0.195E-01 0.209E-01 0.265E-01


 Contracted 2-electron integrals neglected if value below      1.0D-16
 AO integral compression algorithm  1   Integral accuracy      1.0D-16

     129.761 MB (compressed) written to integral file ( 94.9%)

     Node minimum: 129.761 MB, node maximum: 129.761 MB


 NUMBER OF SORTED TWO-ELECTRON INTEGRALS:   15487395.     BUFFER LENGTH:  32768
 NUMBER OF SEGMENTS:   1  SEGMENT LENGTH:   15487395      RECORD LENGTH: 524288

 Memory used in sort:      16.04 MW

 SORT1 READ    17101285. AND WROTE    15442635. INTEGRALS IN     45 RECORDS. CPU TIME:     0.15 SEC, REAL TIME:     0.22 SEC
 SORT2 READ    15442635. AND WROTE    15487395. INTEGRALS IN    495 RECORDS. CPU TIME:     0.13 SEC, REAL TIME:     0.20 SEC

 FILE SIZES:   FILE 1:   120.7 MBYTE,  FILE 4:   188.8 MBYTE,   TOTAL:    309.4 MBYTE

 OPERATOR DM      FOR CENTER  0  COORDINATES:    0.000000    0.000000    0.000000


 **********************************************************************************************************************************
 DATASETS  * FILE   NREC   LENGTH (MB)   RECORD NAMES
              1      19      120.80       500      610      700      900      950      970     1000      129      960     1100   
                                          VAR    BASINP    GEOM    SYMINP    ZMAT    AOBASIS   BASIS     P2S    ABASIS      S 
                                         1400     1410     1200     1210     1080     1600     1650     1300     1700   
                                           T        V       H0       H01     AOSYM     SMH    MOLCAS    ERIS     OPER   

 PROGRAMS   *        TOTAL       INT
 CPU TIMES  *         1.57      1.53
 REAL TIME  *         1.96 SEC
 DISK USED  *       440.05 MB      
 GA USED    *         0.00 MB       (max)       0.00 MB       (current)
 **********************************************************************************************************************************

1PROGRAM * RHF-SCF (CLOSED SHELL)       Authors: W. Meyer, H.-J. Werner


 NUMBER OF ELECTRONS:      19+   19-    SPACE SYMMETRY=1    SPIN SYMMETRY: Singlet 
 CONVERGENCE THRESHOLDS:    1.00E-10 (Density)    1.00E-13 (Energy)
 MAX. NUMBER OF ITERATIONS:      200
 INTERPOLATION TYPE:            DIIS
 INTERPOLATION STEPS:              2 (START)      1 (STEP)
 LEVEL SHIFTS:                  0.00 (CLOSED)  0.00 (OPEN) 



 Orbital guess generated from atomic densities. Full valence occupancy:   32

 Molecular orbital dump at record        2100.2

 ITERATION    DDIFF          GRAD             ENERGY        2-EL.EN.            DIPOLE MOMENTS         DIIS
    1      0.000D+00      0.000D+00      -209.94366550    457.215577    0.48629    0.00100   -2.25042    0
    2      0.000D+00      0.591D-02      -209.98968934    456.765324    0.15018   -0.00121   -1.29493    1
    3      0.124D-01      0.414D-02      -210.01003739    456.451265    0.30640   -0.00139   -1.70353    2
    4      0.554D-02      0.106D-02      -210.01228722    456.778646    0.29292   -0.00149   -1.61517    3
    5      0.196D-02      0.236D-03      -210.01240617    456.619490    0.28656   -0.00163   -1.62661    4
    6      0.427D-03      0.579D-04      -210.01241555    456.638317    0.28678   -0.00164   -1.62470    5
    7      0.169D-03      0.160D-04      -210.01241610    456.636307    0.28713   -0.00164   -1.62601    6
    8      0.307D-04      0.502D-05      -210.01241616    456.635994    0.28700   -0.00164   -1.62613    7
    9      0.110D-04      0.108D-05      -210.01241616    456.635924    0.28703   -0.00164   -1.62612    7
   10      0.264D-05      0.387D-06      -210.01241616    456.636022    0.28703   -0.00164   -1.62615    7
   11      0.975D-06      0.205D-06      -210.01241616    456.635989    0.28702   -0.00164   -1.62614    7
   12      0.701D-06      0.933D-07      -210.01241616    456.636006    0.28702   -0.00164   -1.62614    7
   13      0.439D-06      0.239D-07      -210.01241616    456.635999    0.28702   -0.00164   -1.62614    8
   14      0.113D-06      0.465D-08      -210.01241616    456.635998    0.28702   -0.00164   -1.62614    8
   15      0.145D-07      0.187D-08      -210.01241616    456.635999    0.28702   -0.00164   -1.62614    8
   16      0.358D-08      0.524D-09      -210.01241616    456.635999    0.28702   -0.00164   -1.62614    8
   17      0.112D-08      0.101D-09      -210.01241616    456.635999    0.28702   -0.00164   -1.62614    8
   18      0.230D-09      0.234D-10      -210.01241616    456.635999    0.28702   -0.00164   -1.62614    7
   19      0.563D-10      0.603D-11      -210.01241616    456.635999    0.28702   -0.00164   -1.62614    0

 Final occupancy:  19

 !RHF STATE 1.1 Energy               -210.012416162709
 Nuclear energy                       158.99793895
 One-electron energy                 -597.32835461
 Two-electron energy                  228.31799950
 Virial quotient                       -1.00154933
 !RHF STATE 1.1 Dipole moment           0.28702190    -0.00163867    -1.62614491
 Dipole moment /Debye                   0.72948912    -0.00416482    -4.13297737

 Orbital energies:

         1.1          2.1          3.1          4.1          5.1          6.1          7.1          8.1          9.1         10.1
    -15.572570   -11.290047   -11.274731   -11.249441   -11.249383    -1.212615    -1.107912    -0.961446    -0.876811    -0.704234

        11.1         12.1         13.1         14.1         15.1         16.1         17.1         18.1         19.1         20.1
     -0.643006    -0.597264    -0.572742    -0.564375    -0.530610    -0.523772    -0.520573    -0.447337    -0.447309     0.155383

        21.1
      0.190426


 **********************************************************************************************************************************
 DATASETS  * FILE   NREC   LENGTH (MB)   RECORD NAMES
              1      19      120.80       500      610      700      900      950      970     1000      129      960     1100   
                                          VAR    BASINP    GEOM    SYMINP    ZMAT    AOBASIS   BASIS     P2S    ABASIS      S 
                                         1400     1410     1200     1210     1080     1600     1650     1300     1700   
                                           T        V       H0       H01     AOSYM     SMH    MOLCAS    ERIS     OPER   

              2       3        0.68       700     1000     2100   
                                         GEOM     BASIS     RHF  

 PROGRAMS   *        TOTAL       RHF       INT
 CPU TIMES  *         3.31      1.74      1.53
 REAL TIME  *         3.94 SEC
 DISK USED  *       440.05 MB      
 GA USED    *         0.00 MB       (max)       0.00 MB       (current)
 **********************************************************************************************************************************


1PROGRAM * CCSD (Closed-shell coupled cluster)     Authors: C. Hampel, H.-J. Werner, 1991, M. Deegan, P.J. Knowles, 1992


 Convergence thresholds:  THRVAR = 1.00D-08  THRDEN = 1.00D-12

 CCSD(T)     terms to be evaluated (factor= 1.000)


 Number of core orbitals:           5 (   5 )
 Number of closed-shell orbitals:  14 (  14 )
 Number of external orbitals:      86 (  86 )

 Molecular orbitals read from record     2100.2  Type=RHF/CANONICAL (state 1.1)

 Number of N-1 electron functions:              14
 Number of N-2 electron functions:             105
 Number of singly external CSFs:              1204
 Number of doubly external CSFs:            725410
 Total number of CSFs:                      726615

 Length of J-op  integral file:               0.00 MB
 Length of K-op  integral file:               0.79 MB
 Length of 3-ext integral record:             0.00 MB

 Memory could be reduced to 12.72 Mwords without degradation in triples

 Integral transformation finished. Total CPU:   0.57 sec, npass=  1  Memory used:  10.92 MW

 Reference energy:                   -210.01241616

 MP2 singlet pair energy:              -0.45146809
 MP2 triplet pair energy:              -0.25973539
 MP2 correlation energy:               -0.71120348
 MP2 total energy:                   -210.72361964

 SCS-MP2 correlation energy:           -0.70337484   (PS=  1.200000  PT=  0.333333)
 SCS-MP2 total energy:               -210.71579100

 ITER.      SQ.NORM     CORR.ENERGY   TOTAL ENERGY   ENERGY CHANGE        DEN1      VAR(S)    VAR(P)  DIIS     TIME
   1      1.26990617    -0.75325775  -210.76567391    -0.04205427    -0.01888409  0.35D-02  0.56D-02  1  1     2.14
   2      1.29252174    -0.75690476  -210.76932092    -0.00364701    -0.02201988  0.58D-04  0.75D-03  2  2     3.74
   3      1.29988028    -0.75727974  -210.76969590    -0.00037498    -0.00406502  0.27D-04  0.55D-04  3  3     5.33
   4      1.30244110    -0.75737605  -210.76979221    -0.00009631    -0.00100610  0.13D-05  0.65D-05  4  4     6.93
   5      1.30300803    -0.75738458  -210.76980074    -0.00000853    -0.00016801  0.16D-06  0.78D-06  5  5     8.53
   6      1.30313055    -0.75737903  -210.76979520     0.00000555    -0.00003118  0.97D-08  0.53D-07  6  6    10.14
   7      1.30314866    -0.75738143  -210.76979759    -0.00000240    -0.00000403  0.15D-08  0.48D-08  6  2    11.73
   8      1.30315008    -0.75738136  -210.76979752     0.00000007    -0.00000003  0.14D-09  0.42D-09  6  1    13.33
   9      1.30315044    -0.75738134  -210.76979750     0.00000002     0.00000022  0.16D-10  0.36D-10  6  3    14.93
  10      1.30315070    -0.75738135  -210.76979752    -0.00000001    -0.00000006  0.17D-11  0.33D-11  6  4    16.53
  11      1.30315032    -0.75738138  -210.76979754    -0.00000002     0.00000022  0.35D-12  0.34D-12  6  6    18.13
  12      1.30315025    -0.75738139  -210.76979755    -0.00000001     0.00000004  0.44D-13  0.26D-13  6  5    19.73
  13      1.30315022    -0.75738139  -210.76979755    -0.00000000     0.00000002  0.51D-14  0.44D-14  6  2    21.32
  14      1.30315021    -0.75738139  -210.76979755     0.00000000     0.00000000  0.14D-14  0.64D-15  6  1    22.93
  15      1.30315021    -0.75738139  -210.76979755     0.00000000    -0.00000000  0.97D-16  0.10D-15  6  4    24.52
  16      1.30315021    -0.75738139  -210.76979755     0.00000000    -0.00000000  0.15D-16  0.69D-17  6  3    26.12
  17      1.30315021    -0.75738139  -210.76979755     0.00000000    -0.00000000  0.32D-17  0.15D-17  6  6    27.72
  18      1.30315021    -0.75738139  -210.76979755    -0.00000000    -0.00000000  0.53D-18  0.24D-18  6  5    29.32
  19      1.30315021    -0.75738139  -210.76979755     0.00000000     0.00000000  0.58D-19  0.40D-19  6  2    30.92
  20      1.30315021    -0.75738139  -210.76979755     0.00000000    -0.00000000  0.62D-20  0.39D-20  6  4    32.52

 Norm of t1 vector:      0.07768610      S-energy:     0.00000000      T1 diagnostic:  0.01038124
                                                                       D1 diagnostic:  0.02936321


 Total CPU time for triples:     19.83 sec


 RESULTS
 =======

  Reference energy                   -210.012416162709
  CCSD singlet pair energy             -0.527081776371
  CCSD triplet pair energy             -0.230299610732
  CCSD correlation energy              -0.757381387101

  Triples (T) contribution             -0.026767133657
  Total correlation energy             -0.784148520758

  CCSD total energy                  -210.769797549810
  CCSD[T] energy                     -210.797572706989
  CCSD-T energy                      -210.796095470791
 !CCSD(T) total energy               -210.796564683467

 Timing summary (sec):

 STEP                 CPU(USER)    SYS     CPU(TOT)    WALL
 Transformation          0.59      0.08      0.67      0.67
 CCSD iterations        31.93      0.88     32.81     32.85
 Triples                19.83      0.47     20.30     20.31

 Program statistics:

 Available memory in ccsd:               999999116
 Min. memory needed in ccsd:               1995783
 Max. memory used in ccsd:                 2628247
 Max. memory used in cckext:               2458865 (20 integral passes)



 **********************************************************************************************************************************
 DATASETS  * FILE   NREC   LENGTH (MB)   RECORD NAMES
              1      20      170.95       500      610      700      900      950      970     1000      129      960     1100   
                                          VAR    BASINP    GEOM    SYMINP    ZMAT    AOBASIS   BASIS     P2S    ABASIS      S 
                                         1400     1410     1200     1210     1080     1600     1650     1300     1700     1380   
                                           T        V       H0       H01     AOSYM     SMH    MOLCAS    ERIS     OPER     JKOP   

              2       3        0.68       700     1000     2100   
                                         GEOM     BASIS     RHF  

 PROGRAMS   *        TOTAL   CCSD(T)       RHF       INT
 CPU TIMES  *        55.67     52.35      1.74      1.53
 REAL TIME  *        57.81 SEC
 DISK USED  *       440.05 MB      
 GA USED    *         0.00 MB       (max)       0.00 MB       (current)
 **********************************************************************************************************************************

        CCSD(T)         RHF-SCF 
   -210.79656468   -210.01241616
 **********************************************************************************************************************************
 Variable memory released
