
 Primary working directories    : /tmp/943448.378.gen6.q
 Secondary working directories  : /tmp/943448.378.gen6.q
 Wavefunction directory         : /home/vulcan/mel64643/wfu/
 Main file repository           : /tmp/943448.378.gen6.q/

 ARCHNAME  : Linux/x86_64
 FC        : /opt/intel/compilers_and_libraries_2016.1.150/linux/bin/intel64/ifort
 FCVERSION : 16.0.1
 BLASLIB   : -mkl
 id        : ccgc

 Nodes     nprocs
 n084         1
 ga_uses_ma=false, calling ma_init with nominal heap.
 GA-space will be limited to   8.0 MW (determined by -G option)

 Using customized tuning parameters: mindgm=10; mindgv=16; mindgc=4; mindgr=1; noblas=0; mincuda=1000; minvec=7
 default implementation of scratch files=df  

 ***,Optimization of nh3_nitrosmethane
 memory,1000,m
 gthresh,energy=1.0d-12,orbital=1.0d-10,oneint=1.0d-16,twoint=1.0d-16,optgrad=1.0d-6,compress=1.0d-13
 geomtyp=xyz
 
 bohr
 geometry = {
  N   -5.2311748061   -0.1873948927    0.0000000000
  H   -6.2946850484    0.2380889337   -1.5389755217
  H   -3.7577097520    1.0448624432   -0.0000000000
  H   -6.2946850484    0.2380889337    1.5389755217
  H   -0.9241216795   -2.4022446574   -0.0000000000
  H    1.8843121718   -3.4329100178   -1.6666900897
  H    1.8843121718   -3.4329100178    1.6666900897
  C    1.1364878465   -2.4696834053   -0.0000000000
  N    2.2636412794    0.0995946016    0.0000000000
  O    0.6977413551    1.7815650880    0.0000000000
 }
 
 basis=aug-cc-pvdz
 {rhf;maxit,200}
 {ccsd(t);maxit,200}

 Variables initialized (661), CPU time= 0.00 sec
 Commands  initialized (458), CPU time= 0.01 sec, 486 directives.
 Default parameters read. Elapsed time= 0.05 sec

 Checking input...
 Passed
1


                                         ***  PROGRAM SYSTEM MOLPRO  ***
                         Copyright, University College Cardiff Consultants Limited, 2008

                                    Version 2010.1 linked May 16 2016 07:17:05


 **********************************************************************************************************************************
 LABEL *   Optimization of nh3_nitrosmethane                                             
 Linux-4.4.3/n084(x86_64) 64 bit mpp version                                             DATE: 26-Oct-23          TIME: 14:01:03  
 **********************************************************************************************************************************

 SHA1:             9e8077add272b0f3cad6f7df79ec5211205f459d
 **********************************************************************************************************************************

 THRESHOLDS:

 ZERO    =  1.00D-12  ONEINT  =  1.00D-16  TWOINT  =  1.00D-16  PREFAC  =  1.00D-14  LOCALI  =  1.00D-09  EORDER  =  1.00D-04
 ENERGY  =  1.00D-12  ETEST   =  0.00D+00  EDENS   =  0.00D+00  THRDEDEF=  1.00D-06  GRADIENT=  1.00D-02  STEP    =  1.00D-03
 ORBITAL =  1.00D-10  CIVEC   =  1.00D-05  COEFF   =  1.00D-04  PRINTCI =  5.00D-02  PUNCHCI =  9.90D+01  OPTGRAD =  1.00D-06
 OPTENERG=  1.00D-06  OPTSTEP =  3.00D-04  THRGRAD =  1.00D-10  COMPRESS=  1.00D-13  VARMIN  =  1.00D-07  VARMAX  =  1.00D-03
 THRDOUB =  0.00D+00  THRDIV  =  1.00D-05  THRRED  =  1.00D-07  THRPSP  =  1.00D+00  THRDC   =  1.00D-10  THRCS   =  1.00D-10
 THRNRM  =  1.00D-08  THREQ   =  0.00D+00  THRDE   =  1.00D+00  THRREF  =  1.00D-05  SPARFAC =  1.00D+00  THRDLP  =  1.00D-07
 THRDIA  =  1.00D-10  THRDLS  =  1.00D-07  THRGPS  =  0.00D+00  THRKEX  =  0.00D+00  THRDIS  =  2.00D-01  THRVAR  =  1.00D-10
 THRLOC  =  1.00D-06  THRGAP  =  1.00D-06  THRLOCT = -1.00D+00  THRGAPT = -1.00D+00  THRORB  =  1.00D-06  THRMLTP =  0.00D+00
 THRCPQCI=  1.00D-10  KEXTA   =  0.00D+00  THRCOARS=  0.00D+00  SYMTOL  =  1.00D-06  GRADTOL =  1.00D-06  THROVL  =  1.00D-08
 THRORTH =  1.00D-08  GRID    =  1.00D-06  GRIDMAX =  1.00D-03  DTMAX   =  0.00D+00

 SETTING GEOMTYP        =    XYZ
 ZUNIT=BOHR
 

 Variable memory set to 1000000000 words,  buffer space   230000 words

 SETTING BASIS          =    AUG-CC-PVDZ


 Recomputing integrals since basis changed


 Using spherical harmonics

 Library entry N      S aug-cc-pVDZ          selected for orbital group  1
 Library entry N      P aug-cc-pVDZ          selected for orbital group  1
 Library entry N      D aug-cc-pVDZ          selected for orbital group  1
 Library entry H      S aug-cc-pVDZ          selected for orbital group  2
 Library entry H      P aug-cc-pVDZ          selected for orbital group  2
 Library entry C      S aug-cc-pVDZ          selected for orbital group  3
 Library entry C      P aug-cc-pVDZ          selected for orbital group  3
 Library entry C      D aug-cc-pVDZ          selected for orbital group  3
 Library entry O      S aug-cc-pVDZ          selected for orbital group  5
 Library entry O      P aug-cc-pVDZ          selected for orbital group  5
 Library entry O      D aug-cc-pVDZ          selected for orbital group  5

1PROGRAM * SEWARD (Integral evaluation for generally contracted gaussian basis sets)     Author: Roland Lindh, 1990

 Geometry written to block  1 of record 700


 Point group  Cs  



 ATOMIC COORDINATES

 NR  ATOM    CHARGE       X              Y              Z

   1  N       7.00   -5.231174806   -0.187394893    0.000000000
   2  H       1.00   -6.294685048    0.238088934   -1.538975522
   3  H       1.00   -6.294685048    0.238088934    1.538975522
   4  H       1.00   -3.757709752    1.044862443    0.000000000
   5  H       1.00   -0.924121680   -2.402244657    0.000000000
   6  H       1.00    1.884312172   -3.432910018   -1.666690090
   7  H       1.00    1.884312172   -3.432910018    1.666690090
   8  C       6.00    1.136487846   -2.469683405    0.000000000
   9  N       7.00    2.263641279    0.099594602    0.000000000
  10  O       8.00    0.697741355    1.781565088    0.000000000

 Bond lengths in Bohr (Angstrom)

 1-2  1.918472355  1-3  1.918472355  1-4  1.920822066  5-8  2.061712784  6-8  2.065164057
     ( 1.015211847)     ( 1.015211847)     ( 1.016455260)     ( 1.091011417)     ( 1.092837752)

  7- 8  2.065164057   8- 9  2.805648648   9-10  2.298057286
       ( 1.092837752)       ( 1.484685321)       ( 1.216079541)

 Bond angles

  2-1-3  106.67910573   2-1-4  106.43726342   3-1-4  106.43726342   5-8-6  112.15889787

  5-8-7  112.15889787   5-8-9  111.81278754   6-8-7  107.61735050   6-8-9  106.35838669

  7- 8- 9  106.35838669   8- 9-10  113.35946296

 NUCLEAR CHARGE:                   34
 NUMBER OF PRIMITIVE AOS:         214
 NUMBER OF SYMMETRY AOS:          206
 NUMBER OF CONTRACTIONS:          146   (  96A'  +  50A"  )
 NUMBER OF CORE ORBITALS:           4   (   4A'  +   0A"  )
 NUMBER OF VALENCE ORBITALS:       22   (  16A'  +   6A"  )


 NUCLEAR REPULSION ENERGY  117.37836690


 Eigenvalues of metric

         1 0.324E-03 0.518E-03 0.620E-03 0.105E-02 0.115E-02 0.126E-02 0.190E-02 0.208E-02
         2 0.674E-03 0.187E-02 0.487E-02 0.947E-02 0.131E-01 0.180E-01 0.209E-01 0.242E-01


 Contracted 2-electron integrals neglected if value below      1.0D-16
 AO integral compression algorithm  1   Integral accuracy      1.0D-16

     261.358 MB (compressed) written to integral file ( 94.6%)

     Node minimum: 261.358 MB, node maximum: 261.358 MB


 NUMBER OF SORTED TWO-ELECTRON INTEGRALS:   29464146.     BUFFER LENGTH:  32768
 NUMBER OF SEGMENTS:   2  SEGMENT LENGTH:   15998994      RECORD LENGTH: 524288

 Memory used in sort:      16.56 MW

 SORT1 READ    34536484. AND WROTE    29309424. INTEGRALS IN     85 RECORDS. CPU TIME:     0.35 SEC, REAL TIME:     0.52 SEC
 SORT2 READ    29309424. AND WROTE    29464146. INTEGRALS IN    997 RECORDS. CPU TIME:     0.24 SEC, REAL TIME:     0.38 SEC

 FILE SIZES:   FILE 1:   230.8 MBYTE,  FILE 4:   356.5 MBYTE,   TOTAL:    587.4 MBYTE

 OPERATOR DM      FOR CENTER  0  COORDINATES:    0.000000    0.000000    0.000000


 **********************************************************************************************************************************
 DATASETS  * FILE   NREC   LENGTH (MB)   RECORD NAMES
              1      19      230.98       500      610      700      900      950      970     1000      129      960     1100   
                                          VAR    BASINP    GEOM    SYMINP    ZMAT    AOBASIS   BASIS     P2S    ABASIS      S 
                                         1400     1410     1200     1210     1080     1600     1650     1300     1700   
                                           T        V       H0       H01     AOSYM     SMH    MOLCAS    ERIS     OPER   

 PROGRAMS   *        TOTAL       INT
 CPU TIMES  *         2.04      2.00
 REAL TIME  *         2.66 SEC
 DISK USED  *       849.55 MB      
 GA USED    *         0.00 MB       (max)       0.00 MB       (current)
 **********************************************************************************************************************************

1PROGRAM * RHF-SCF (CLOSED SHELL)       Authors: W. Meyer, H.-J. Werner


 NUMBER OF ELECTRONS:      17+   17-
 CONVERGENCE THRESHOLDS:    1.00E-10 (Density)    1.00E-13 (Energy)
 MAX. NUMBER OF ITERATIONS:      200
 INTERPOLATION TYPE:            DIIS
 INTERPOLATION STEPS:              2 (START)      1 (STEP)
 LEVEL SHIFTS:                  0.00 (CLOSED)  0.00 (OPEN) 



 Orbital guess generated from atomic densities. Full valence occupancy:   20   6

 Molecular orbital dump at record        2100.2

 Initial alpha occupancy:  14   3
 Initial beta  occupancy:  14   3
 Wave function symmetry:    1

 ITERATION    DDIFF          GRAD             ENERGY        2-EL.EN.            DIPOLE MOMENTS         DIIS
    1      0.000D+00      0.000D+00      -224.96618262    393.055365    0.08648   -0.57547    0.00000    0
    2      0.000D+00      0.799D-02      -225.02701718    392.682897   -0.56776   -0.38468    0.00000    1
    3      0.149D-01      0.559D-02      -225.06088956    393.231586   -0.22235   -0.56105    0.00000    2
    4      0.646D-02      0.112D-02      -225.06315007    393.066243   -0.30036   -0.46351    0.00000    3
    5      0.162D-02      0.443D-03      -225.06357460    393.078022   -0.29804   -0.49331    0.00000    4
    6      0.727D-03      0.107D-03      -225.06361746    393.105476   -0.30347   -0.49036    0.00000    5
    7      0.243D-03      0.410D-04      -225.06362357    393.089262   -0.30510   -0.49041    0.00000    6
    8      0.101D-03      0.167D-04      -225.06362457    393.095709   -0.30611   -0.49031    0.00000    7
    9      0.384D-04      0.715D-05      -225.06362478    393.094580   -0.30639   -0.49001    0.00000    8
   10      0.215D-04      0.219D-05      -225.06362481    393.094287   -0.30648   -0.48983    0.00000    8
   11      0.650D-05      0.735D-06      -225.06362481    393.094393   -0.30649   -0.48975    0.00000    8
   12      0.218D-05      0.224D-06      -225.06362481    393.094356   -0.30650   -0.48972    0.00000    8
   13      0.781D-06      0.706D-07      -225.06362481    393.094350   -0.30650   -0.48971    0.00000    8
   14      0.195D-06      0.356D-07      -225.06362481    393.094353   -0.30650   -0.48971    0.00000    9
   15      0.875D-07      0.340D-08      -225.06362481    393.094353   -0.30650   -0.48971    0.00000    8
   16      0.840D-08      0.950D-09      -225.06362481    393.094353   -0.30650   -0.48971    0.00000    7
   17      0.286D-08      0.202D-09      -225.06362481    393.094353   -0.30650   -0.48971    0.00000    7
   18      0.530D-09      0.709D-10      -225.06362481    393.094353   -0.30650   -0.48971    0.00000    7
   19      0.171D-09      0.225D-10      -225.06362481    393.094353   -0.30650   -0.48971    0.00000    7
   20      0.581D-10      0.647D-11      -225.06362481    393.094353   -0.30650   -0.48971    0.00000    6
   21      0.201D-10      0.185D-11      -225.06362481    393.094353   -0.30650   -0.48971    0.00000    7
   22      0.708D-11      0.506D-12      -225.06362481    393.094353   -0.30650   -0.48971    0.00000    7
   23      0.248D-11      0.336D-12      -225.06362481    393.094353   -0.30650   -0.48971    0.00000    8
   24      0.144D-11      0.732D-13      -225.06362481    393.094353   -0.30650   -0.48971    0.00000    8
   25      0.103D-11      0.604D-13      -225.06362481    393.094353   -0.30650   -0.48971    0.00000    8
   26      0.716D-12      0.661D-13      -225.06362481    393.094353   -0.30650   -0.48971    0.00000    9
   27      0.609D-12      0.618D-13      -225.06362481    393.094353   -0.30650   -0.48971    0.00000    9
   28      0.359D-12      0.423D-13      -225.06362481    393.094353   -0.30650   -0.48971    0.00000    9
   29      0.363D-12      0.573D-13      -225.06362481    393.094353   -0.30650   -0.48971    0.00000    9
   30      0.219D-12      0.675D-13      -225.06362481    393.094353   -0.30650   -0.48971    0.00000    9
   31      0.233D-12      0.497D-13      -225.06362481    393.094353   -0.30650   -0.48971    0.00000    9
   32      0.740D-13      0.396D-13      -225.06362481    393.094353   -0.30650   -0.48971    0.00000    9
   33      0.181D-12      0.477D-13      -225.06362481    393.094353   -0.30650   -0.48971    0.00000    0

 Final occupancy:  14   3

 !RHF STATE 1.1 Energy               -225.063624808569
 Nuclear energy                       117.37836690
 One-electron energy                 -538.98916807
 Two-electron energy                  196.54717636
 Virial quotient                       -1.00217725
 !RHF STATE 1.1 Dipole moment          -0.30649698    -0.48971345     0.00000000
 Dipole moment /Debye                  -0.77898658    -1.24464590     0.00000000

 Orbital energies:

         1.1          2.1          3.1          4.1          5.1          6.1          7.1          8.1          9.1         10.1
    -20.640687   -15.715075   -15.548506   -11.271077    -1.515264    -1.140319    -1.076340    -0.862632    -0.691598    -0.676216

        11.1         12.1         13.1         14.1         15.1         16.1
     -0.622666    -0.555873    -0.428380    -0.406389     0.034994     0.046264

         1.2          2.2          3.2          4.2          5.2
     -0.636493    -0.625202    -0.534692     0.052211     0.067256


 **********************************************************************************************************************************
 DATASETS  * FILE   NREC   LENGTH (MB)   RECORD NAMES
              1      19      230.98       500      610      700      900      950      970     1000      129      960     1100   
                                          VAR    BASINP    GEOM    SYMINP    ZMAT    AOBASIS   BASIS     P2S    ABASIS      S 
                                         1400     1410     1200     1210     1080     1600     1650     1300     1700   
                                           T        V       H0       H01     AOSYM     SMH    MOLCAS    ERIS     OPER   

              2       3        0.67       700     1000     2100   
                                         GEOM     BASIS     RHF  

 PROGRAMS   *        TOTAL       RHF       INT
 CPU TIMES  *         6.29      4.25      2.00
 REAL TIME  *         7.63 SEC
 DISK USED  *       849.55 MB      
 GA USED    *         0.00 MB       (max)       0.00 MB       (current)
 **********************************************************************************************************************************


1PROGRAM * CCSD (Closed-shell coupled cluster)     Authors: C. Hampel, H.-J. Werner, 1991, M. Deegan, P.J. Knowles, 1992


 Convergence thresholds:  THRVAR = 1.00D-08  THRDEN = 1.00D-12

 CCSD(T)     terms to be evaluated (factor= 1.000)


 Number of core orbitals:           4 (   4   0 )
 Number of closed-shell orbitals:  13 (  10   3 )
 Number of external orbitals:     129 (  82  47 )

 Molecular orbitals read from record     2100.2  Type=RHF/CANONICAL (state 1.1)

 Number of N-1 electron functions:              13
 Number of N-2 electron functions:              91
 Number of singly external CSFs:               961
 Number of doubly external CSFs:            718927
 Total number of CSFs:                      719889

 Length of J-op  integral file:               0.00 MB
 Length of K-op  integral file:               0.85 MB
 Length of 3-ext integral record:             0.00 MB

 Memory could be reduced to 18.91 Mwords without degradation in triples

 Integral transformation finished. Total CPU:   0.68 sec, npass=  1  Memory used:   7.13 MW

 Reference energy:                   -225.06362481

 MP2 singlet pair energy:              -0.45131219
 MP2 triplet pair energy:              -0.26573495
 MP2 correlation energy:               -0.71704714
 MP2 total energy:                   -225.78067195

 SCS-MP2 correlation energy:           -0.70692082   (PS=  1.200000  PT=  0.333333)
 SCS-MP2 total energy:               -225.77054563

 ITER.      SQ.NORM     CORR.ENERGY   TOTAL ENERGY   ENERGY CHANGE        DEN1      VAR(S)    VAR(P)  DIIS     TIME
   1      1.24222762    -0.75079421  -225.81441902    -0.03374706    -0.00984022  0.53D-02  0.49D-02  1  1     1.81
   2      1.26409287    -0.75385200  -225.81747681    -0.00305780    -0.02116306  0.17D-03  0.87D-03  2  2     3.00
   3      1.27420000    -0.75456050  -225.81818531    -0.00070850    -0.00465279  0.12D-03  0.62D-04  3  3     4.18
   4      1.27838877    -0.75452491  -225.81814972     0.00003559    -0.00138538  0.11D-04  0.11D-04  4  4     5.35
   5      1.28006790    -0.75454291  -225.81816772    -0.00001800    -0.00036602  0.20D-05  0.17D-05  5  5     6.54
   6      1.28053495    -0.75451258  -225.81813738     0.00003033    -0.00005580  0.17D-06  0.34D-06  6  6     7.73
   7      1.28064026    -0.75450916  -225.81813396     0.00000342    -0.00000436  0.37D-07  0.92D-07  6  2     8.91
   8      1.28066734    -0.75450997  -225.81813478    -0.00000081    -0.00000064  0.52D-08  0.22D-07  6  1    10.10
   9      1.28067356    -0.75450932  -225.81813412     0.00000065     0.00000233  0.20D-08  0.33D-08  6  3    11.28
  10      1.28066821    -0.75451028  -225.81813509    -0.00000096     0.00000152  0.47D-09  0.64D-09  6  5    12.47
  11      1.28066760    -0.75451046  -225.81813527    -0.00000018     0.00000058  0.14D-09  0.68D-10  6  4    13.65
  12      1.28066663    -0.75451050  -225.81813531    -0.00000004     0.00000018  0.40D-10  0.13D-10  6  6    14.84
  13      1.28066598    -0.75451055  -225.81813536    -0.00000005     0.00000007  0.89D-11  0.35D-11  6  2    16.03
  14      1.28066546    -0.75451056  -225.81813537    -0.00000001     0.00000007  0.23D-11  0.77D-12  6  1    17.22
  15      1.28066517    -0.75451057  -225.81813538    -0.00000001     0.00000005  0.29D-12  0.20D-12  6  5    18.40
  16      1.28066501    -0.75451058  -225.81813539    -0.00000001     0.00000003  0.33D-13  0.30D-13  6  3    19.59
  17      1.28066497    -0.75451058  -225.81813539    -0.00000000     0.00000001  0.64D-14  0.70D-14  6  4    20.77
  18      1.28066495    -0.75451058  -225.81813539    -0.00000000     0.00000000  0.13D-14  0.21D-14  6  6    21.96
  19      1.28066495    -0.75451058  -225.81813539     0.00000000     0.00000000  0.13D-15  0.35D-15  6  2    23.14
  20      1.28066495    -0.75451058  -225.81813539     0.00000000     0.00000000  0.30D-16  0.60D-16  6  1    24.33
  21      1.28066495    -0.75451058  -225.81813539    -0.00000000     0.00000000  0.11D-16  0.11D-16  6  5    25.52
  22      1.28066495    -0.75451058  -225.81813539     0.00000000    -0.00000000  0.27D-17  0.27D-17  6  3    26.70
  23      1.28066495    -0.75451058  -225.81813539     0.00000000    -0.00000000  0.14D-17  0.46D-18  6  2    27.89
  24      1.28066495    -0.75451058  -225.81813539     0.00000000    -0.00000000  0.32D-18  0.16D-18  6  3    29.08
  25      1.28066495    -0.75451058  -225.81813539     0.00000000    -0.00000000  0.44D-19  0.20D-19  6  4    30.26
  26      1.28066495    -0.75451058  -225.81813539     0.00000000    -0.00000000  0.89D-20  0.38D-20  6  6    31.44
  27      1.28066495    -0.75451058  -225.81813539     0.00000000     0.00000000  0.18D-20  0.65D-21  6  1    32.62

 Norm of t1 vector:      0.11184614      S-energy:    -0.00000000      T1 diagnostic:  0.01551027
                                                                       D1 diagnostic:  0.04953094

 Doubles amplitudes (print threshold =  0.500E-01):

         I         J         SYM. A    SYM. B    A         B      T(IJ, AB)

        11        11         2         2         3         3     -0.05230792
        13        11         2         2         3         3     -0.05294813
        13        13         2         2         3         3     -0.07523150


 Total CPU time for triples:     23.09 sec


 RESULTS
 =======

  Reference energy                   -225.063624808570
  CCSD singlet pair energy             -0.519384026948
  CCSD triplet pair energy             -0.235126554674
  CCSD correlation energy              -0.754510581623

  Triples (T) contribution             -0.026868379724
  Total correlation energy             -0.781378961347

  CCSD total energy                  -225.818135390192
  CCSD[T] energy                     -225.846633373352
  CCSD-T energy                      -225.844493046328
 !CCSD(T) total energy               -225.845003769916

 Timing summary (sec):

 STEP                 CPU(USER)    SYS     CPU(TOT)    WALL
 Transformation          0.69      0.10      0.79      0.80
 CCSD iterations        31.94      1.50     33.44     33.70
 Triples                23.09      0.63     23.72     23.73

 Program statistics:

 Available memory in ccsd:               999999224
 Min. memory needed in ccsd:               1936686
 Max. memory used in ccsd:                 2572354
 Max. memory used in cckext:               2602483 (27 integral passes)



 **********************************************************************************************************************************
 DATASETS  * FILE   NREC   LENGTH (MB)   RECORD NAMES
              1      20      300.30       500      610      700      900      950      970     1000      129      960     1100   
                                          VAR    BASINP    GEOM    SYMINP    ZMAT    AOBASIS   BASIS     P2S    ABASIS      S 
                                         1400     1410     1200     1210     1080     1600     1650     1300     1700     1380   
                                           T        V       H0       H01     AOSYM     SMH    MOLCAS    ERIS     OPER     JKOP   

              2       3        0.67       700     1000     2100   
                                         GEOM     BASIS     RHF  

 PROGRAMS   *        TOTAL   CCSD(T)       RHF       INT
 CPU TIMES  *        62.03     55.74      4.25      2.00
 REAL TIME  *        65.89 SEC
 DISK USED  *       849.55 MB      
 GA USED    *         0.00 MB       (max)       0.00 MB       (current)
 **********************************************************************************************************************************

        CCSD(T)         RHF-SCF 
   -225.84500377   -225.06362481
 **********************************************************************************************************************************
 Variable memory released
