
 Primary working directories    : /tmp/985636.70.gen4.q
 Secondary working directories  : /tmp/985636.70.gen4.q
 Wavefunction directory         : /home/vulcan/jj04645/wfu/
 Main file repository           : /tmp/985636.70.gen4.q/

 ARCHNAME  : Linux/x86_64
 FC        : /opt/intel/compilers_and_libraries_2016.1.150/linux/bin/intel64/ifort
 FCVERSION : 16.0.1
 BLASLIB   : -mkl
 id        : ccgc

 Nodes     nprocs
 n067         1
 ga_uses_ma=false, calling ma_init with nominal heap.
 GA-space will be limited to   8.0 MW (determined by -G option)

 Using customized tuning parameters: mindgm=10; mindgv=16; mindgc=4; mindgr=1; noblas=0; mincuda=1000; minvec=7
 default implementation of scratch files=df  

 ***,Optimization of tetrahydrothiopyran
 memory,1000,m
 gthresh,energy=1.0d-12,orbital=1.0d-10,oneint=1.0d-16,twoint=1.0d-16,optgrad=1.0d-6,compress=1.0d-13
 geomtyp=xyz
 
 bohr
 geometry = {
  S    0.3529594576    2.7040279659    0.0024712036
  C   -0.3304078138   -3.3691829514    0.0004777274
  C   -0.6602752099    0.6715058256   -2.5836077111
  C   -0.6665910970    0.6705198700    2.5852906673
  C    0.4757955922   -1.9829407171   -2.4154673577
  C    0.4698884502   -1.9838628623    2.4189144653
  H   -2.7265170688    0.5733459721   -2.5900454057
  H   -2.7328424728    0.5723585351    2.5866414214
  H   -0.0689640586    1.6271359197   -4.3129885631
  H   -0.0795084038    1.6254898567    4.3164758456
  H    2.5380414035   -1.8461090277   -2.4926880442
  H    2.5316457285   -1.8305166049    2.4753554474
  H   -0.1367493471   -3.0737902215   -4.0638666743
  H   -0.1173747054   -3.0784333993    4.0740342734
  H    0.4650393990   -5.2759615647    0.0010859732
  H   -2.3928748704   -3.5834080130   -0.0020832685
 }
 
 basis=VDZ
 {rhf;maxit,200}
 {ccsd(t);maxit,200}

 Variables initialized (661), CPU time= 0.01 sec
 Commands  initialized (458), CPU time= 0.00 sec, 486 directives.
 Default parameters read. Elapsed time= 0.04 sec

 Checking input...
 Passed
1


                                         ***  PROGRAM SYSTEM MOLPRO  ***
                         Copyright, University College Cardiff Consultants Limited, 2008

                                    Version 2010.1 linked May 16 2016 07:17:05


 **********************************************************************************************************************************
 LABEL *   Optimization of tetrahydrothiopyran                                           
 Linux-4.4.3/n067(x86_64) 64 bit mpp version                                             DATE: 26-Jan-24          TIME: 10:24:44  
 **********************************************************************************************************************************

 SHA1:             9e8077add272b0f3cad6f7df79ec5211205f459d
 **********************************************************************************************************************************

 THRESHOLDS:

 ZERO    =  1.00D-12  ONEINT  =  1.00D-16  TWOINT  =  1.00D-16  PREFAC  =  1.00D-14  LOCALI  =  1.00D-09  EORDER  =  1.00D-04
 ENERGY  =  1.00D-12  ETEST   =  0.00D+00  EDENS   =  0.00D+00  THRDEDEF=  1.00D-06  GRADIENT=  1.00D-02  STEP    =  1.00D-03
 ORBITAL =  1.00D-10  CIVEC   =  1.00D-05  COEFF   =  1.00D-04  PRINTCI =  5.00D-02  PUNCHCI =  9.90D+01  OPTGRAD =  1.00D-06
 OPTENERG=  1.00D-06  OPTSTEP =  3.00D-04  THRGRAD =  1.00D-10  COMPRESS=  1.00D-13  VARMIN  =  1.00D-07  VARMAX  =  1.00D-03
 THRDOUB =  0.00D+00  THRDIV  =  1.00D-05  THRRED  =  1.00D-07  THRPSP  =  1.00D+00  THRDC   =  1.00D-10  THRCS   =  1.00D-10
 THRNRM  =  1.00D-08  THREQ   =  0.00D+00  THRDE   =  1.00D+00  THRREF  =  1.00D-05  SPARFAC =  1.00D+00  THRDLP  =  1.00D-07
 THRDIA  =  1.00D-10  THRDLS  =  1.00D-07  THRGPS  =  0.00D+00  THRKEX  =  0.00D+00  THRDIS  =  2.00D-01  THRVAR  =  1.00D-10
 THRLOC  =  1.00D-06  THRGAP  =  1.00D-06  THRLOCT = -1.00D+00  THRGAPT = -1.00D+00  THRORB  =  1.00D-06  THRMLTP =  0.00D+00
 THRCPQCI=  1.00D-10  KEXTA   =  0.00D+00  THRCOARS=  0.00D+00  SYMTOL  =  1.00D-06  GRADTOL =  1.00D-06  THROVL  =  1.00D-08
 THRORTH =  1.00D-08  GRID    =  1.00D-06  GRIDMAX =  1.00D-03  DTMAX   =  0.00D+00

 SETTING GEOMTYP        =    XYZ
 ZUNIT=BOHR
 

 Variable memory set to 1000000000 words,  buffer space   230000 words

 SETTING BASIS          =    VDZ


 Recomputing integrals since basis changed


 Using spherical harmonics

 Library entry S      S cc-pVDZ              selected for orbital group  1
 Library entry S      P cc-pVDZ              selected for orbital group  1
 Library entry S      D cc-pVDZ              selected for orbital group  1
 Library entry C      S cc-pVDZ              selected for orbital group  2
 Library entry C      P cc-pVDZ              selected for orbital group  2
 Library entry C      D cc-pVDZ              selected for orbital group  2
 Library entry H      S cc-pVDZ              selected for orbital group  3
 Library entry H      P cc-pVDZ              selected for orbital group  3

1PROGRAM * SEWARD (Integral evaluation for generally contracted gaussian basis sets)     Author: Roland Lindh, 1990

 Geometry written to block  1 of record 700


 Point group  C1  



 ATOMIC COORDINATES

 NR  ATOM    CHARGE       X              Y              Z

   1  S      16.00    0.352959458    2.704027966    0.002471204
   2  C       6.00   -0.330407814   -3.369182951    0.000477727
   3  C       6.00   -0.660275210    0.671505826   -2.583607711
   4  C       6.00   -0.666591097    0.670519870    2.585290667
   5  C       6.00    0.475795592   -1.982940717   -2.415467358
   6  C       6.00    0.469888450   -1.983862862    2.418914465
   7  H       1.00   -2.726517069    0.573345972   -2.590045406
   8  H       1.00   -2.732842473    0.572358535    2.586641421
   9  H       1.00   -0.068964059    1.627135920   -4.312988563
  10  H       1.00   -0.079508404    1.625489857    4.316475846
  11  H       1.00    2.538041403   -1.846109028   -2.492688044
  12  H       1.00    2.531645729   -1.830516605    2.475355447
  13  H       1.00   -0.136749347   -3.073790221   -4.063866674
  14  H       1.00   -0.117374705   -3.078433399    4.074034273
  15  H       1.00    0.465039399   -5.275961565    0.001085973
  16  H       1.00   -2.392874870   -3.583408013   -0.002083268

 Bond lengths in Bohr (Angstrom)

  1- 3  3.441743003   1- 4  3.441743002   2- 5  2.899727939   2- 6  2.899727938   2-15  2.066044849
       ( 1.821291956)       ( 1.821291956)       ( 1.534469937)       ( 1.534469937)       ( 1.093303847)

  2-16  2.073564394   3- 5  2.892233478   3- 7  2.068582176   3- 9  2.062434456   4- 6  2.892233478
       ( 1.097283019)       ( 1.530504040)       ( 1.094646543)       ( 1.091393309)       ( 1.530504040)

  4- 8  2.068582176   4-10  2.062434456   5-11  2.068222360   5-13  2.069392242   6-12  2.068222361
       ( 1.094646543)       ( 1.091393309)       ( 1.094456136)       ( 1.095075211)       ( 1.094456136)

  6-14  2.069392243
       ( 1.095075211)

 Bond angles

  1-3-5  112.49960015   1-3-7  108.93070329   1-3-9  105.78400615   1-4-6  112.49959958

  1- 4- 8  108.93070341   1- 4-10  105.78400628   2- 5- 3  112.20875133   2- 5-11  109.87440008

  2- 5-13  109.23036553   2- 6- 4  112.20875201   2- 6-12  109.46975325   2- 6-14  109.63600335

  3- 1- 4   97.33913434   3- 5-11  109.19444566   3- 5-13  108.73661990   4- 6-12  108.78979879

  4- 6-14  109.14225771   5- 2- 6  112.93921865   5- 2-15  109.53661039   5- 2-16  108.95950403

  5- 3- 7  110.42528709   5- 3- 9  111.18527467   6- 2-15  109.53661039   6- 2-16  108.95950403

  6- 4- 8  110.42528720   6- 4-10  111.18527479   7- 3- 9  107.80381720   8- 4-10  107.80381733

 11- 5-13  107.47446495  12- 6-14  107.47496042  15- 2-16  106.71439449

 NUCLEAR CHARGE:                   56
 NUMBER OF PRIMITIVE AOS:         247
 NUMBER OF SYMMETRY AOS:          241
 NUMBER OF CONTRACTIONS:          138   ( 138A   )
 NUMBER OF CORE ORBITALS:          10   (  10A   )
 NUMBER OF VALENCE ORBITALS:       34   (  34A   )


 NUCLEAR REPULSION ENERGY  311.78765035


 Eigenvalues of metric

         1 0.288E-02 0.307E-02 0.428E-02 0.637E-02 0.708E-02 0.152E-01 0.157E-01 0.196E-01


 Contracted 2-electron integrals neglected if value below      1.0D-16
 AO integral compression algorithm  1   Integral accuracy      1.0D-16

     374.079 MB (compressed) written to integral file ( 94.1%)

     Node minimum: 374.079 MB, node maximum: 374.079 MB


 NUMBER OF SORTED TWO-ELECTRON INTEGRALS:   45998436.     BUFFER LENGTH:  32768
 NUMBER OF SEGMENTS:   3  SEGMENT LENGTH:   15998004      RECORD LENGTH: 524288

 Memory used in sort:      16.56 MW

 SORT1 READ    49669512. AND WROTE    45796210. INTEGRALS IN    132 RECORDS. CPU TIME:     0.53 SEC, REAL TIME:     0.77 SEC
 SORT2 READ    45796210. AND WROTE    45998436. INTEGRALS IN   1427 RECORDS. CPU TIME:     0.37 SEC, REAL TIME:     0.55 SEC

 FILE SIZES:   FILE 1:   349.4 MBYTE,  FILE 4:   553.7 MBYTE,   TOTAL:    903.1 MBYTE

 OPERATOR DM      FOR CENTER  0  COORDINATES:    0.000000    0.000000    0.000000


 **********************************************************************************************************************************
 DATASETS  * FILE   NREC   LENGTH (MB)   RECORD NAMES
              1      19      349.63       500      610      700      900      950      970     1000      129      960     1100   
                                          VAR    BASINP    GEOM    SYMINP    ZMAT    AOBASIS   BASIS     P2S    ABASIS      S 
                                         1400     1410     1200     1210     1080     1600     1650     1300     1700   
                                           T        V       H0       H01     AOSYM     SMH    MOLCAS    ERIS     OPER   

 PROGRAMS   *        TOTAL       INT
 CPU TIMES  *         5.24      5.19
 REAL TIME  *         6.01 SEC
 DISK USED  *         1.28 GB      
 GA USED    *         0.01 MB       (max)       0.00 MB       (current)
 **********************************************************************************************************************************

1PROGRAM * RHF-SCF (CLOSED SHELL)       Authors: W. Meyer, H.-J. Werner


 NUMBER OF ELECTRONS:      28+   28-    SPACE SYMMETRY=1    SPIN SYMMETRY: Singlet 
 CONVERGENCE THRESHOLDS:    1.00E-10 (Density)    1.00E-13 (Energy)
 MAX. NUMBER OF ITERATIONS:      200
 INTERPOLATION TYPE:            DIIS
 INTERPOLATION STEPS:              2 (START)      1 (STEP)
 LEVEL SHIFTS:                  0.00 (CLOSED)  0.00 (OPEN) 



 Orbital guess generated from atomic densities. Full valence occupancy:   44

 Molecular orbital dump at record        2100.2

 ITERATION    DDIFF          GRAD             ENERGY        2-EL.EN.            DIPOLE MOMENTS         DIIS
    1      0.000D+00      0.000D+00      -592.64406602   1056.121038   -0.40876   -0.80654   -0.00421    0
    2      0.000D+00      0.395D-02      -592.70494868   1053.586317   -0.20812   -0.74003   -0.00156    1
    3      0.775D-02      0.132D-02      -592.71085725   1054.995155   -0.28114   -0.67860   -0.00222    2
    4      0.268D-02      0.536D-03      -592.71185450   1054.386583   -0.25342   -0.71136   -0.00188    3
    5      0.925D-03      0.766D-04      -592.71187989   1054.448178   -0.24965   -0.70290   -0.00188    4
    6      0.180D-03      0.263D-04      -592.71188236   1054.417452   -0.25134   -0.70323   -0.00189    5
    7      0.497D-04      0.619D-05      -592.71188256   1054.420714   -0.25067   -0.70311   -0.00189    6
    8      0.163D-04      0.173D-05      -592.71188258   1054.419843   -0.25065   -0.70298   -0.00189    7
    9      0.537D-05      0.451D-06      -592.71188258   1054.419729   -0.25064   -0.70293   -0.00189    7
   10      0.126D-05      0.162D-06      -592.71188258   1054.419766   -0.25063   -0.70293   -0.00189    7
   11      0.478D-06      0.343D-07      -592.71188258   1054.419752   -0.25063   -0.70293   -0.00189    7
   12      0.114D-06      0.687D-08      -592.71188258   1054.419757   -0.25063   -0.70293   -0.00189    7
   13      0.182D-07      0.286D-08      -592.71188258   1054.419754   -0.25063   -0.70293   -0.00189    7
   14      0.631D-08      0.850D-09      -592.71188258   1054.419755   -0.25063   -0.70293   -0.00189    7
   15      0.228D-08      0.277D-09      -592.71188258   1054.419755   -0.25063   -0.70293   -0.00189    7
   16      0.667D-09      0.897D-10      -592.71188258   1054.419755   -0.25063   -0.70293   -0.00189    8
   17      0.217D-09      0.232D-10      -592.71188258   1054.419755   -0.25063   -0.70293   -0.00189    7
   18      0.634D-10      0.909D-11      -592.71188258   1054.419755   -0.25063   -0.70293   -0.00189    7
   19      0.301D-10      0.345D-11      -592.71188258   1054.419755   -0.25063   -0.70293   -0.00189    8
   20      0.116D-10      0.118D-11      -592.71188258   1054.419755   -0.25063   -0.70293   -0.00189    8
   21      0.433D-11      0.367D-12      -592.71188258   1054.419755   -0.25063   -0.70293   -0.00189    8
   22      0.124D-11      0.113D-12      -592.71188258   1054.419755   -0.25063   -0.70293   -0.00189    8
   23      0.407D-12      0.541D-13      -592.71188258   1054.419755   -0.25063   -0.70293   -0.00189    8
   24      0.212D-12      0.419D-13      -592.71188258   1054.419755   -0.25063   -0.70293   -0.00189    9
   25      0.144D-12      0.352D-13      -592.71188258   1054.419755   -0.25063   -0.70293   -0.00189    9
   26      0.952D-13      0.349D-13      -592.71188258   1054.419755   -0.25063   -0.70293   -0.00189    9
   27      0.798D-13      0.297D-13      -592.71188258   1054.419755   -0.25063   -0.70293   -0.00189    9
   28      0.568D-13      0.380D-13      -592.71188258   1054.419755   -0.25063   -0.70293   -0.00189    9
   29      0.363D-13      0.262D-13      -592.71188258   1054.419755   -0.25063   -0.70293   -0.00189    0

 Final occupancy:  28

 !RHF STATE 1.1 Energy               -592.711882583577
 Nuclear energy                       311.78765035
 One-electron energy                -1431.70941041
 Two-electron energy                  527.20987747
 Virial quotient                       -1.00023573
 !RHF STATE 1.1 Dipole moment          -0.25062992    -0.70292862    -0.00189247
 Dipole moment /Debye                  -0.63699600    -1.78654931    -0.00480986

 Orbital energies:

         1.1          2.1          3.1          4.1          5.1          6.1          7.1          8.1          9.1         10.1
    -91.929989   -11.255386   -11.255285   -11.231483   -11.231313   -11.229518    -8.933777    -6.615667    -6.614237    -6.612038

        11.1         12.1         13.1         14.1         15.1         16.1         17.1         18.1         19.1         20.1
     -1.118433    -1.019293    -1.005848    -0.842325    -0.835702    -0.755697    -0.646077    -0.614083    -0.609563    -0.578254

        21.1         22.1         23.1         24.1         25.1         26.1         27.1         28.1         29.1         30.1
     -0.546734    -0.522946    -0.497850    -0.495301    -0.473082    -0.434606    -0.411595    -0.328747     0.176898     0.190046


 **********************************************************************************************************************************
 DATASETS  * FILE   NREC   LENGTH (MB)   RECORD NAMES
              1      19      349.63       500      610      700      900      950      970     1000      129      960     1100   
                                          VAR    BASINP    GEOM    SYMINP    ZMAT    AOBASIS   BASIS     P2S    ABASIS      S 
                                         1400     1410     1200     1210     1080     1600     1650     1300     1700   
                                           T        V       H0       H01     AOSYM     SMH    MOLCAS    ERIS     OPER   

              2       3        0.92       700     1000     2100   
                                         GEOM     BASIS     RHF  

 PROGRAMS   *        TOTAL       RHF       INT
 CPU TIMES  *        15.46     10.22      5.19
 REAL TIME  *        17.42 SEC
 DISK USED  *         1.28 GB      
 GA USED    *         0.01 MB       (max)       0.00 MB       (current)
 **********************************************************************************************************************************


1PROGRAM * CCSD (Closed-shell coupled cluster)     Authors: C. Hampel, H.-J. Werner, 1991, M. Deegan, P.J. Knowles, 1992


 Convergence thresholds:  THRVAR = 1.00D-08  THRDEN = 1.00D-12

 CCSD(T)     terms to be evaluated (factor= 1.000)


 Number of core orbitals:          10 (  10 )
 Number of closed-shell orbitals:  18 (  18 )
 Number of external orbitals:     110 ( 110 )

 Molecular orbitals read from record     2100.2  Type=RHF/CANONICAL (state 1.1)

 Number of N-1 electron functions:              18
 Number of N-2 electron functions:             171
 Number of singly external CSFs:              1980
 Number of doubly external CSFs:           1961190
 Total number of CSFs:                     1963171

 Length of J-op  integral file:               0.00 MB
 Length of K-op  integral file:               1.35 MB
 Length of 3-ext integral record:             0.00 MB

 Memory could be reduced to 32.58 Mwords without degradation in triples

 Integral transformation finished. Total CPU:   2.64 sec, npass=  1  Memory used:  30.89 MW

 Reference energy:                   -592.71188258

 MP2 singlet pair energy:              -0.53959844
 MP2 triplet pair energy:              -0.30426540
 MP2 correlation energy:               -0.84386385
 MP2 total energy:                   -593.55574643

 SCS-MP2 correlation energy:           -0.83683883   (PS=  1.200000  PT=  0.333333)
 SCS-MP2 total energy:               -593.54872141

 ITER.      SQ.NORM     CORR.ENERGY   TOTAL ENERGY   ENERGY CHANGE        DEN1      VAR(S)    VAR(P)  DIIS     TIME
   1      1.33999875    -0.91090026  -593.62278285    -0.06703642    -0.04305609  0.26D-02  0.55D-02  1  1    10.64
   2      1.36704347    -0.91625915  -593.62814174    -0.00535889    -0.02580142  0.69D-04  0.46D-03  2  2    18.70
   3      1.37239434    -0.91638834  -593.62827093    -0.00012919    -0.00304527  0.16D-04  0.28D-04  3  3    26.77
   4      1.37389415    -0.91644659  -593.62832917    -0.00005825    -0.00059625  0.77D-06  0.20D-05  4  4    34.86
   5      1.37413638    -0.91645327  -593.62833586    -0.00000668    -0.00007129  0.17D-06  0.17D-06  5  5    42.96
   6      1.37418233    -0.91644881  -593.62833139     0.00000447    -0.00001401  0.30D-07  0.14D-07  6  6    51.06
   7      1.37418994    -0.91644869  -593.62833128     0.00000011     0.00000064  0.53D-08  0.23D-08  6  2    59.16
   8      1.37419605    -0.91644838  -593.62833096     0.00000031    -0.00000125  0.73D-09  0.27D-09  6  1    67.24
   9      1.37419688    -0.91644831  -593.62833090     0.00000006     0.00000051  0.65D-10  0.44D-10  6  4    75.34
  10      1.37419776    -0.91644828  -593.62833086     0.00000003    -0.00000011  0.47D-11  0.35D-11  6  3    83.42
  11      1.37419777    -0.91644828  -593.62833087    -0.00000000     0.00000004  0.11D-11  0.54D-12  6  5    91.51
  12      1.37419774    -0.91644828  -593.62833087    -0.00000000     0.00000002  0.17D-12  0.77D-13  6  6    99.60
  13      1.37419768    -0.91644829  -593.62833087    -0.00000000     0.00000002  0.24D-13  0.11D-13  6  1   107.71
  14      1.37419767    -0.91644829  -593.62833087    -0.00000000     0.00000000  0.32D-14  0.12D-14  6  2   115.80
  15      1.37419768    -0.91644829  -593.62833087     0.00000000    -0.00000000  0.70D-15  0.31D-15  6  4   123.91
  16      1.37419768    -0.91644829  -593.62833087     0.00000000    -0.00000000  0.34D-16  0.24D-16  6  5   132.00
  17      1.37419768    -0.91644829  -593.62833087     0.00000000    -0.00000000  0.62D-17  0.25D-17  6  3   140.10
  18      1.37419768    -0.91644829  -593.62833087     0.00000000    -0.00000000  0.15D-17  0.44D-18  6  5   148.20
  19      1.37419768    -0.91644829  -593.62833087     0.00000000    -0.00000000  0.20D-18  0.69D-19  6  6   156.28
  20      1.37419768    -0.91644829  -593.62833087     0.00000000     0.00000000  0.17D-19  0.72D-20  6  1   164.35
  21      1.37419768    -0.91644829  -593.62833087    -0.00000000     0.00000000  0.32D-20  0.11D-20  6  2   172.44

 Norm of t1 vector:      0.07018713      S-energy:    -0.00000000      T1 diagnostic:  0.00827163
                                                                       D1 diagnostic:  0.02115826


 Total CPU time for triples:    122.81 sec


 RESULTS
 =======

  Reference energy                   -592.711882583578
  CCSD singlet pair energy             -0.634451290891
  CCSD triplet pair energy             -0.281996995105
  CCSD correlation energy              -0.916448285996

  Triples (T) contribution             -0.029900499380
  Total correlation energy             -0.946348785376

  CCSD total energy                  -593.628330869574
  CCSD[T] energy                     -593.658852053718
  CCSD-T energy                      -593.657919158024
 !CCSD(T) total energy               -593.658231368954

 Timing summary (sec):

 STEP                 CPU(USER)    SYS     CPU(TOT)    WALL
 Transformation          2.76      0.21      2.97      2.98
 CCSD iterations       169.68      2.95    172.63    172.72
 Triples               122.81      2.27    125.08    125.08

 Program statistics:

 Available memory in ccsd:               999998604
 Min. memory needed in ccsd:               5123362
 Max. memory used in ccsd:                 6867976
 Max. memory used in cckext:               6836871 (21 integral passes)



 **********************************************************************************************************************************
 DATASETS  * FILE   NREC   LENGTH (MB)   RECORD NAMES
              1      20      486.01       500      610      700      900      950      970     1000      129      960     1100   
                                          VAR    BASINP    GEOM    SYMINP    ZMAT    AOBASIS   BASIS     P2S    ABASIS      S 
                                         1400     1410     1200     1210     1080     1600     1650     1300     1700     1380   
                                           T        V       H0       H01     AOSYM     SMH    MOLCAS    ERIS     OPER     JKOP   

              2       3        0.92       700     1000     2100   
                                         GEOM     BASIS     RHF  

 PROGRAMS   *        TOTAL   CCSD(T)       RHF       INT
 CPU TIMES  *       310.73    295.27     10.22      5.19
 REAL TIME  *       318.25 SEC
 DISK USED  *         1.28 GB      
 GA USED    *         0.01 MB       (max)       0.00 MB       (current)
 **********************************************************************************************************************************

        CCSD(T)         RHF-SCF 
   -593.65823137   -592.71188258
 **********************************************************************************************************************************
 Variable memory released
