
 Primary working directories    : /tmp/943448.222.gen5.q
 Secondary working directories  : /tmp/943448.222.gen5.q
 Wavefunction directory         : /home/vulcan/mel64643/wfu/
 Main file repository           : /tmp/943448.222.gen5.q/

 ARCHNAME  : Linux/x86_64
 FC        : /opt/intel/compilers_and_libraries_2016.1.150/linux/bin/intel64/ifort
 FCVERSION : 16.0.1
 BLASLIB   : -mkl
 id        : ccgc

 Nodes     nprocs
 n073         1
 ga_uses_ma=false, calling ma_init with nominal heap.
 GA-space will be limited to   8.0 MW (determined by -G option)

 Using customized tuning parameters: mindgm=10; mindgv=16; mindgc=4; mindgr=1; noblas=0; mincuda=1000; minvec=7
 default implementation of scratch files=df  

 ***,Optimization of nh3_nitrosmethane
 memory,1000,m
 gthresh,energy=1.0d-12,orbital=1.0d-10,oneint=1.0d-16,twoint=1.0d-16,optgrad=1.0d-6,compress=1.0d-13
 geomtyp=xyz
 
 bohr
 geometry = {
  N   -5.2246640575   -0.1847631396    0.0000000000
  H   -6.2992135648    0.2297865688   -1.5342842202
  H   -3.7609881379    1.0591059096   -0.0000000000
  H   -6.2992135648    0.2297865688    1.5342842202
  H   -0.9300031984   -2.3975192091    0.0000000000
  H    1.8844475848   -3.4360776892   -1.6713495644
  H    1.8844475848   -3.4360776892    1.6713495644
  C    1.1362530896   -2.4688248742    0.0000000000
  N    2.2679781221    0.0984426983    0.0000000000
  O    0.7050746322    1.7831978649    0.0000000000
 }
 
 basis=aug-cc-pvdz
 {rhf;maxit,200}
 {ccsd(t);maxit,200}

 Variables initialized (661), CPU time= 0.01 sec
 Commands  initialized (458), CPU time= 0.00 sec, 486 directives.
 Default parameters read. Elapsed time= 0.04 sec

 Checking input...
 Passed
1


                                         ***  PROGRAM SYSTEM MOLPRO  ***
                         Copyright, University College Cardiff Consultants Limited, 2008

                                    Version 2010.1 linked May 16 2016 07:17:05


 **********************************************************************************************************************************
 LABEL *   Optimization of nh3_nitrosmethane                                             
 Linux-4.4.3/n073(x86_64) 64 bit mpp version                                             DATE: 26-Oct-23          TIME: 12:38:04  
 **********************************************************************************************************************************

 SHA1:             9e8077add272b0f3cad6f7df79ec5211205f459d
 **********************************************************************************************************************************

 THRESHOLDS:

 ZERO    =  1.00D-12  ONEINT  =  1.00D-16  TWOINT  =  1.00D-16  PREFAC  =  1.00D-14  LOCALI  =  1.00D-09  EORDER  =  1.00D-04
 ENERGY  =  1.00D-12  ETEST   =  0.00D+00  EDENS   =  0.00D+00  THRDEDEF=  1.00D-06  GRADIENT=  1.00D-02  STEP    =  1.00D-03
 ORBITAL =  1.00D-10  CIVEC   =  1.00D-05  COEFF   =  1.00D-04  PRINTCI =  5.00D-02  PUNCHCI =  9.90D+01  OPTGRAD =  1.00D-06
 OPTENERG=  1.00D-06  OPTSTEP =  3.00D-04  THRGRAD =  1.00D-10  COMPRESS=  1.00D-13  VARMIN  =  1.00D-07  VARMAX  =  1.00D-03
 THRDOUB =  0.00D+00  THRDIV  =  1.00D-05  THRRED  =  1.00D-07  THRPSP  =  1.00D+00  THRDC   =  1.00D-10  THRCS   =  1.00D-10
 THRNRM  =  1.00D-08  THREQ   =  0.00D+00  THRDE   =  1.00D+00  THRREF  =  1.00D-05  SPARFAC =  1.00D+00  THRDLP  =  1.00D-07
 THRDIA  =  1.00D-10  THRDLS  =  1.00D-07  THRGPS  =  0.00D+00  THRKEX  =  0.00D+00  THRDIS  =  2.00D-01  THRVAR  =  1.00D-10
 THRLOC  =  1.00D-06  THRGAP  =  1.00D-06  THRLOCT = -1.00D+00  THRGAPT = -1.00D+00  THRORB  =  1.00D-06  THRMLTP =  0.00D+00
 THRCPQCI=  1.00D-10  KEXTA   =  0.00D+00  THRCOARS=  0.00D+00  SYMTOL  =  1.00D-06  GRADTOL =  1.00D-06  THROVL  =  1.00D-08
 THRORTH =  1.00D-08  GRID    =  1.00D-06  GRIDMAX =  1.00D-03  DTMAX   =  0.00D+00

 SETTING GEOMTYP        =    XYZ
 ZUNIT=BOHR
 

 Variable memory set to 1000000000 words,  buffer space   230000 words

 SETTING BASIS          =    AUG-CC-PVDZ


 Recomputing integrals since basis changed


 Using spherical harmonics

 Library entry N      S aug-cc-pVDZ          selected for orbital group  1
 Library entry N      P aug-cc-pVDZ          selected for orbital group  1
 Library entry N      D aug-cc-pVDZ          selected for orbital group  1
 Library entry H      S aug-cc-pVDZ          selected for orbital group  2
 Library entry H      P aug-cc-pVDZ          selected for orbital group  2
 Library entry C      S aug-cc-pVDZ          selected for orbital group  3
 Library entry C      P aug-cc-pVDZ          selected for orbital group  3
 Library entry C      D aug-cc-pVDZ          selected for orbital group  3
 Library entry O      S aug-cc-pVDZ          selected for orbital group  5
 Library entry O      P aug-cc-pVDZ          selected for orbital group  5
 Library entry O      D aug-cc-pVDZ          selected for orbital group  5

1PROGRAM * SEWARD (Integral evaluation for generally contracted gaussian basis sets)     Author: Roland Lindh, 1990

 Geometry written to block  1 of record 700


 Point group  Cs  



 ATOMIC COORDINATES

 NR  ATOM    CHARGE       X              Y              Z

   1  N       7.00   -5.224664058   -0.184763140    0.000000000
   2  H       1.00   -6.299213565    0.229786569   -1.534284220
   3  H       1.00   -6.299213565    0.229786569    1.534284220
   4  H       1.00   -3.760988138    1.059105910    0.000000000
   5  H       1.00   -0.930003198   -2.397519209    0.000000000
   6  H       1.00    1.884447585   -3.436077689   -1.671349564
   7  H       1.00    1.884447585   -3.436077689    1.671349564
   8  C       6.00    1.136253090   -2.468824874    0.000000000
   9  N       7.00    2.267978122    0.098442698    0.000000000
  10  O       8.00    0.705074632    1.783197865    0.000000000

 Bond lengths in Bohr (Angstrom)

 1-2  1.918472354  1-3  1.918472354  1-4  1.920822066  5-8  2.067486287  6-8  2.070937560
     ( 1.015211846)     ( 1.015211846)     ( 1.016455260)     ( 1.094066623)     ( 1.095892958)

  7- 8  2.070937560   8- 9  2.805648648   9-10  2.298057286
       ( 1.095892958)       ( 1.484685321)       ( 1.216079541)

 Bond angles

  2-1-3  106.21107409   2-1-4  106.67095381   3-1-4  106.67095381   5-8-6  112.15889901

  5-8-7  112.15889901   5-8-9  111.81278866   6-8-7  107.61734778   6-8-9  106.35838621

  7- 8- 9  106.35838621   8- 9-10  113.35946297

 NUCLEAR CHARGE:                   34
 NUMBER OF PRIMITIVE AOS:         214
 NUMBER OF SYMMETRY AOS:          206
 NUMBER OF CONTRACTIONS:          146   (  96A'  +  50A"  )
 NUMBER OF CORE ORBITALS:           4   (   4A'  +   0A"  )
 NUMBER OF VALENCE ORBITALS:       22   (  16A'  +   6A"  )


 NUCLEAR REPULSION ENERGY  117.34113588


 Eigenvalues of metric

         1 0.324E-03 0.521E-03 0.624E-03 0.106E-02 0.118E-02 0.126E-02 0.191E-02 0.209E-02
         2 0.680E-03 0.186E-02 0.490E-02 0.948E-02 0.131E-01 0.181E-01 0.210E-01 0.242E-01


 Contracted 2-electron integrals neglected if value below      1.0D-16
 AO integral compression algorithm  1   Integral accuracy      1.0D-16

     261.358 MB (compressed) written to integral file ( 94.5%)

     Node minimum: 261.358 MB, node maximum: 261.358 MB


 NUMBER OF SORTED TWO-ELECTRON INTEGRALS:   29464146.     BUFFER LENGTH:  32768
 NUMBER OF SEGMENTS:   2  SEGMENT LENGTH:   15998994      RECORD LENGTH: 524288

 Memory used in sort:      16.56 MW

 SORT1 READ    34536484. AND WROTE    29308566. INTEGRALS IN     85 RECORDS. CPU TIME:     0.39 SEC, REAL TIME:     0.59 SEC
 SORT2 READ    29308566. AND WROTE    29464146. INTEGRALS IN    997 RECORDS. CPU TIME:     0.30 SEC, REAL TIME:     0.44 SEC

 FILE SIZES:   FILE 1:   230.8 MBYTE,  FILE 4:   356.5 MBYTE,   TOTAL:    587.4 MBYTE

 OPERATOR DM      FOR CENTER  0  COORDINATES:    0.000000    0.000000    0.000000


 **********************************************************************************************************************************
 DATASETS  * FILE   NREC   LENGTH (MB)   RECORD NAMES
              1      19      230.95       500      610      700      900      950      970     1000      129      960     1100   
                                          VAR    BASINP    GEOM    SYMINP    ZMAT    AOBASIS   BASIS     P2S    ABASIS      S 
                                         1400     1410     1200     1210     1080     1600     1650     1300     1700   
                                           T        V       H0       H01     AOSYM     SMH    MOLCAS    ERIS     OPER   

 PROGRAMS   *        TOTAL       INT
 CPU TIMES  *         2.53      2.48
 REAL TIME  *         3.50 SEC
 DISK USED  *       849.52 MB      
 GA USED    *         0.00 MB       (max)       0.00 MB       (current)
 **********************************************************************************************************************************

1PROGRAM * RHF-SCF (CLOSED SHELL)       Authors: W. Meyer, H.-J. Werner


 NUMBER OF ELECTRONS:      17+   17-
 CONVERGENCE THRESHOLDS:    1.00E-10 (Density)    1.00E-13 (Energy)
 MAX. NUMBER OF ITERATIONS:      200
 INTERPOLATION TYPE:            DIIS
 INTERPOLATION STEPS:              2 (START)      1 (STEP)
 LEVEL SHIFTS:                  0.00 (CLOSED)  0.00 (OPEN) 



 Orbital guess generated from atomic densities. Full valence occupancy:   20   6

 Molecular orbital dump at record        2100.2

 Initial alpha occupancy:  14   3
 Initial beta  occupancy:  14   3
 Wave function symmetry:    1

 ITERATION    DDIFF          GRAD             ENERGY        2-EL.EN.            DIPOLE MOMENTS         DIIS
    1      0.000D+00      0.000D+00      -224.96623344    393.000836    0.07072   -0.58330    0.00000    0
    2      0.000D+00      0.798D-02      -225.02693845    392.620356   -0.57909   -0.38452    0.00000    1
    3      0.149D-01      0.559D-02      -225.06083646    393.170950   -0.23459   -0.56281    0.00000    2
    4      0.646D-02      0.112D-02      -225.06309582    393.005961   -0.31254   -0.46509    0.00000    3
    5      0.162D-02      0.442D-03      -225.06351907    393.017360   -0.31019   -0.49465    0.00000    4
    6      0.726D-03      0.107D-03      -225.06356189    393.044862   -0.31564   -0.49164    0.00000    5
    7      0.242D-03      0.410D-04      -225.06356801    393.028638   -0.31727   -0.49167    0.00000    6
    8      0.101D-03      0.167D-04      -225.06356902    393.035105   -0.31829   -0.49157    0.00000    7
    9      0.385D-04      0.716D-05      -225.06356923    393.033962   -0.31857   -0.49126    0.00000    8
   10      0.215D-04      0.219D-05      -225.06356926    393.033671   -0.31866   -0.49109    0.00000    8
   11      0.649D-05      0.736D-06      -225.06356926    393.033777   -0.31867   -0.49100    0.00000    8
   12      0.218D-05      0.225D-06      -225.06356926    393.033740   -0.31867   -0.49097    0.00000    8
   13      0.781D-06      0.705D-07      -225.06356926    393.033734   -0.31868   -0.49097    0.00000    8
   14      0.195D-06      0.357D-07      -225.06356926    393.033736   -0.31868   -0.49097    0.00000    9
   15      0.876D-07      0.341D-08      -225.06356926    393.033736   -0.31868   -0.49097    0.00000    8
   16      0.841D-08      0.949D-09      -225.06356926    393.033736   -0.31868   -0.49097    0.00000    7
   17      0.286D-08      0.200D-09      -225.06356926    393.033736   -0.31868   -0.49097    0.00000    7
   18      0.530D-09      0.694D-10      -225.06356926    393.033736   -0.31868   -0.49097    0.00000    7
   19      0.168D-09      0.225D-10      -225.06356926    393.033736   -0.31868   -0.49097    0.00000    7
   20      0.574D-10      0.644D-11      -225.06356926    393.033736   -0.31868   -0.49097    0.00000    6
   21      0.198D-10      0.182D-11      -225.06356926    393.033736   -0.31868   -0.49097    0.00000    7
   22      0.685D-11      0.521D-12      -225.06356926    393.033736   -0.31868   -0.49097    0.00000    0

 Final occupancy:  14   3

 !RHF STATE 1.1 Energy               -225.063569258635
 Nuclear energy                       117.34113588
 One-electron energy                 -538.92157326
 Two-electron energy                  196.51686812
 Virial quotient                       -1.00223488
 !RHF STATE 1.1 Dipole moment          -0.31867529    -0.49096847     0.00000000
 Dipole moment /Debye                  -0.80993874    -1.24783566     0.00000000

 Orbital energies:

         1.1          2.1          3.1          4.1          5.1          6.1          7.1          8.1          9.1         10.1
    -20.640543   -15.714971   -15.548656   -11.271789    -1.515118    -1.140467    -1.075732    -0.861872    -0.691202    -0.675790

        11.1         12.1         13.1         14.1         15.1         16.1
     -0.623771    -0.554984    -0.428536    -0.406234     0.034986     0.046239

         1.2          2.2          3.2          4.2          5.2
     -0.635838    -0.624325    -0.534090     0.052257     0.067273


 **********************************************************************************************************************************
 DATASETS  * FILE   NREC   LENGTH (MB)   RECORD NAMES
              1      19      230.95       500      610      700      900      950      970     1000      129      960     1100   
                                          VAR    BASINP    GEOM    SYMINP    ZMAT    AOBASIS   BASIS     P2S    ABASIS      S 
                                         1400     1410     1200     1210     1080     1600     1650     1300     1700   
                                           T        V       H0       H01     AOSYM     SMH    MOLCAS    ERIS     OPER   

              2       3        0.67       700     1000     2100   
                                         GEOM     BASIS     RHF  

 PROGRAMS   *        TOTAL       RHF       INT
 CPU TIMES  *         6.11      3.59      2.48
 REAL TIME  *         7.74 SEC
 DISK USED  *       849.52 MB      
 GA USED    *         0.00 MB       (max)       0.00 MB       (current)
 **********************************************************************************************************************************


1PROGRAM * CCSD (Closed-shell coupled cluster)     Authors: C. Hampel, H.-J. Werner, 1991, M. Deegan, P.J. Knowles, 1992


 Convergence thresholds:  THRVAR = 1.00D-08  THRDEN = 1.00D-12

 CCSD(T)     terms to be evaluated (factor= 1.000)


 Number of core orbitals:           4 (   4   0 )
 Number of closed-shell orbitals:  13 (  10   3 )
 Number of external orbitals:     129 (  82  47 )

 Molecular orbitals read from record     2100.2  Type=RHF/CANONICAL (state 1.1)

 Number of N-1 electron functions:              13
 Number of N-2 electron functions:              91
 Number of singly external CSFs:               961
 Number of doubly external CSFs:            718927
 Total number of CSFs:                      719889

 Length of J-op  integral file:               0.00 MB
 Length of K-op  integral file:               0.85 MB
 Length of 3-ext integral record:             0.00 MB

 Memory could be reduced to 18.91 Mwords without degradation in triples

 Integral transformation finished. Total CPU:   0.81 sec, npass=  1  Memory used:   7.13 MW

 Reference energy:                   -225.06356926

 MP2 singlet pair energy:              -0.45142808
 MP2 triplet pair energy:              -0.26576965
 MP2 correlation energy:               -0.71719773
 MP2 total energy:                   -225.78076699

 SCS-MP2 correlation energy:           -0.70708148   (PS=  1.200000  PT=  0.333333)
 SCS-MP2 total energy:               -225.77065074

 ITER.      SQ.NORM     CORR.ENERGY   TOTAL ENERGY   ENERGY CHANGE        DEN1      VAR(S)    VAR(P)  DIIS     TIME
   1      1.24242201    -0.75095449  -225.81452375    -0.03375676    -0.00982997  0.53D-02  0.49D-02  1  1     2.19
   2      1.26431675    -0.75401720  -225.81758646    -0.00306271    -0.02117982  0.17D-03  0.87D-03  2  2     3.63
   3      1.27444100    -0.75472671  -225.81829597    -0.00070951    -0.00466062  0.12D-03  0.62D-04  3  3     5.07
   4      1.27863140    -0.75469109  -225.81826035     0.00003562    -0.00138635  0.11D-04  0.11D-04  4  4     6.51
   5      1.28031088    -0.75470919  -225.81827845    -0.00001810    -0.00036618  0.20D-05  0.17D-05  5  5     7.96
   6      1.28077854    -0.75467883  -225.81824809     0.00003036    -0.00005591  0.17D-06  0.34D-06  6  6     9.40
   7      1.28088415    -0.75467538  -225.81824464     0.00000345    -0.00000439  0.37D-07  0.92D-07  6  2    10.84
   8      1.28091137    -0.75467619  -225.81824544    -0.00000081    -0.00000066  0.53D-08  0.22D-07  6  1    12.28
   9      1.28091765    -0.75467553  -225.81824479     0.00000065     0.00000234  0.20D-08  0.33D-08  6  3    13.71
  10      1.28091231    -0.75467649  -225.81824575    -0.00000096     0.00000152  0.47D-09  0.64D-09  6  5    15.16
  11      1.28091171    -0.75467668  -225.81824593    -0.00000018     0.00000058  0.14D-09  0.68D-10  6  4    16.60
  12      1.28091074    -0.75467672  -225.81824598    -0.00000004     0.00000018  0.40D-10  0.13D-10  6  6    18.05
  13      1.28091008    -0.75467677  -225.81824603    -0.00000005     0.00000007  0.89D-11  0.35D-11  6  2    19.50
  14      1.28090957    -0.75467678  -225.81824603    -0.00000001     0.00000007  0.23D-11  0.78D-12  6  1    20.94
  15      1.28090927    -0.75467679  -225.81824605    -0.00000001     0.00000005  0.29D-12  0.20D-12  6  5    22.39
  16      1.28090911    -0.75467680  -225.81824605    -0.00000001     0.00000003  0.33D-13  0.30D-13  6  3    23.84
  17      1.28090907    -0.75467680  -225.81824606    -0.00000000     0.00000001  0.65D-14  0.69D-14  6  4    25.28
  18      1.28090906    -0.75467680  -225.81824606    -0.00000000     0.00000000  0.13D-14  0.21D-14  6  6    26.72
  19      1.28090905    -0.75467680  -225.81824606     0.00000000     0.00000000  0.13D-15  0.35D-15  6  2    28.16
  20      1.28090905    -0.75467680  -225.81824606     0.00000000     0.00000000  0.30D-16  0.59D-16  6  1    29.62
  21      1.28090905    -0.75467680  -225.81824606    -0.00000000     0.00000000  0.11D-16  0.11D-16  6  5    31.08
  22      1.28090905    -0.75467680  -225.81824606     0.00000000    -0.00000000  0.26D-17  0.27D-17  6  3    32.53
  23      1.28090905    -0.75467680  -225.81824606     0.00000000    -0.00000000  0.13D-17  0.45D-18  6  2    33.97
  24      1.28090905    -0.75467680  -225.81824606     0.00000000    -0.00000000  0.30D-18  0.77D-19  6  4    35.42
  25      1.28090905    -0.75467680  -225.81824606     0.00000000    -0.00000000  0.63D-19  0.21D-19  6  6    36.86
  26      1.28090905    -0.75467680  -225.81824606     0.00000000    -0.00000000  0.16D-19  0.44D-20  6  1    38.31
  27      1.28090905    -0.75467680  -225.81824606     0.00000000    -0.00000000  0.27D-20  0.15D-20  6  5    39.77

 Norm of t1 vector:      0.11185444      S-energy:    -0.00000000      T1 diagnostic:  0.01551142
                                                                       D1 diagnostic:  0.04951875

 Doubles amplitudes (print threshold =  0.500E-01):

         I         J         SYM. A    SYM. B    A         B      T(IJ, AB)

        11        11         2         2         3         3     -0.05283364
        13        11         2         2         3         3     -0.05302274
        13        13         2         2         3         3     -0.07475066


 Total CPU time for triples:     27.66 sec


 RESULTS
 =======

  Reference energy                   -225.063569258635
  CCSD singlet pair energy             -0.519545762878
  CCSD triplet pair energy             -0.235131034607
  CCSD correlation energy              -0.754676797485

  Triples (T) contribution             -0.026890586170
  Total correlation energy             -0.781567383655

  CCSD total energy                  -225.818246056120
  CCSD[T] energy                     -225.846767639154
  CCSD-T energy                      -225.844625141645
 !CCSD(T) total energy               -225.845136642290

 Timing summary (sec):

 STEP                 CPU(USER)    SYS     CPU(TOT)    WALL
 Transformation          0.84      0.13      0.97      0.98
 CCSD iterations        38.93      1.95     40.88     40.97
 Triples                27.66      0.79     28.45     28.44

 Program statistics:

 Available memory in ccsd:               999999224
 Min. memory needed in ccsd:               1936686
 Max. memory used in ccsd:                 2572354
 Max. memory used in cckext:               2602483 (27 integral passes)



 **********************************************************************************************************************************
 DATASETS  * FILE   NREC   LENGTH (MB)   RECORD NAMES
              1      20      300.27       500      610      700      900      950      970     1000      129      960     1100   
                                          VAR    BASINP    GEOM    SYMINP    ZMAT    AOBASIS   BASIS     P2S    ABASIS      S 
                                         1400     1410     1200     1210     1080     1600     1650     1300     1700     1380   
                                           T        V       H0       H01     AOSYM     SMH    MOLCAS    ERIS     OPER     JKOP   

              2       3        0.67       700     1000     2100   
                                         GEOM     BASIS     RHF  

 PROGRAMS   *        TOTAL   CCSD(T)       RHF       INT
 CPU TIMES  *        73.56     67.45      3.59      2.48
 REAL TIME  *        78.16 SEC
 DISK USED  *       849.52 MB      
 GA USED    *         0.00 MB       (max)       0.00 MB       (current)
 **********************************************************************************************************************************

        CCSD(T)         RHF-SCF 
   -225.84513664   -225.06356926
 **********************************************************************************************************************************
 Variable memory released
