
 Primary working directories    : /tmp/1049502.740.gen6.q
 Secondary working directories  : /tmp/1049502.740.gen6.q
 Wavefunction directory         : /home/vulcan/jj04645/wfu/
 Main file repository           : /tmp/1049502.740.gen6.q/

 ARCHNAME  : Linux/x86_64
 FC        : /opt/intel/compilers_and_libraries_2016.1.150/linux/bin/intel64/ifort
 FCVERSION : 16.0.1
 BLASLIB   : -mkl
 id        : ccgc

 Nodes     nprocs
 n086         1
 ga_uses_ma=false, calling ma_init with nominal heap.
 GA-space will be limited to   8.0 MW (determined by -G option)

 Using customized tuning parameters: mindgm=10; mindgv=16; mindgc=4; mindgr=1; noblas=0; mincuda=1000; minvec=7
 default implementation of scratch files=df  

 ***,Optimization of neopentane
 memory,1000,m
 gthresh,energy=1.0d-12,orbital=1.0d-10,oneint=1.0d-16,twoint=1.0d-16,optgrad=1.0d-6,compress=1.0d-13
 geomtyp=xyz
 
 bohr
 geometry = {
  C    0.0007773587   -0.0007773587   -0.0000000000
  C    2.3662192257   -0.0007773587   -1.6726199847
  C    0.0007773587   -2.3662192257    1.6726199847
  C    0.0007773587    2.3646645083    1.6726199847
  C   -2.3646645083   -0.0007773587   -1.6726199847
  H    2.4097173423    1.6753902526   -2.8886072822
  H   -1.6753902526   -2.4097173423    2.8886072822
  H    1.6703374212    2.4079911529    2.8838137906
  H   -2.4079911529   -1.6703374212   -2.8838137906
  H    4.0808006881   -0.0007773587   -0.5215615587
  H    0.0007773587   -4.0808006881    0.5215615587
  H    0.0007773587    4.0826354811    0.5192860619
  H   -4.0826354811   -0.0007773587   -0.5192860619
  H    2.4095887383   -1.6719893084   -2.8850121635
  H    1.6719893084   -2.4095887383    2.8850121635
  H   -1.6737383654    2.4081197569    2.8874089093
  H   -2.4081197569    1.6737383654   -2.8874089093
 }
 
 basis=VDZ
 {rhf;maxit,200}
 {ccsd(t);maxit,200}

 Variables initialized (661), CPU time= 0.00 sec
 Commands  initialized (458), CPU time= 0.01 sec, 486 directives.
 Default parameters read. Elapsed time= 0.04 sec

 Checking input...
 Passed
1


                                         ***  PROGRAM SYSTEM MOLPRO  ***
                         Copyright, University College Cardiff Consultants Limited, 2008

                                    Version 2010.1 linked May 16 2016 07:17:05


 **********************************************************************************************************************************
 LABEL *   Optimization of neopentane                                                    
 Linux-4.4.3/n086(x86_64) 64 bit mpp version                                             DATE: 30-Mar-24          TIME: 21:47:07  
 **********************************************************************************************************************************

 SHA1:             9e8077add272b0f3cad6f7df79ec5211205f459d
 **********************************************************************************************************************************

 THRESHOLDS:

 ZERO    =  1.00D-12  ONEINT  =  1.00D-16  TWOINT  =  1.00D-16  PREFAC  =  1.00D-14  LOCALI  =  1.00D-09  EORDER  =  1.00D-04
 ENERGY  =  1.00D-12  ETEST   =  0.00D+00  EDENS   =  0.00D+00  THRDEDEF=  1.00D-06  GRADIENT=  1.00D-02  STEP    =  1.00D-03
 ORBITAL =  1.00D-10  CIVEC   =  1.00D-05  COEFF   =  1.00D-04  PRINTCI =  5.00D-02  PUNCHCI =  9.90D+01  OPTGRAD =  1.00D-06
 OPTENERG=  1.00D-06  OPTSTEP =  3.00D-04  THRGRAD =  1.00D-10  COMPRESS=  1.00D-13  VARMIN  =  1.00D-07  VARMAX  =  1.00D-03
 THRDOUB =  0.00D+00  THRDIV  =  1.00D-05  THRRED  =  1.00D-07  THRPSP  =  1.00D+00  THRDC   =  1.00D-10  THRCS   =  1.00D-10
 THRNRM  =  1.00D-08  THREQ   =  0.00D+00  THRDE   =  1.00D+00  THRREF  =  1.00D-05  SPARFAC =  1.00D+00  THRDLP  =  1.00D-07
 THRDIA  =  1.00D-10  THRDLS  =  1.00D-07  THRGPS  =  0.00D+00  THRKEX  =  0.00D+00  THRDIS  =  2.00D-01  THRVAR  =  1.00D-10
 THRLOC  =  1.00D-06  THRGAP  =  1.00D-06  THRLOCT = -1.00D+00  THRGAPT = -1.00D+00  THRORB  =  1.00D-06  THRMLTP =  0.00D+00
 THRCPQCI=  1.00D-10  KEXTA   =  0.00D+00  THRCOARS=  0.00D+00  SYMTOL  =  1.00D-06  GRADTOL =  1.00D-06  THROVL  =  1.00D-08
 THRORTH =  1.00D-08  GRID    =  1.00D-06  GRIDMAX =  1.00D-03  DTMAX   =  0.00D+00

 SETTING GEOMTYP        =    XYZ
 ZUNIT=BOHR
 

 Variable memory set to 1000000000 words,  buffer space   230000 words

 SETTING BASIS          =    VDZ


 Recomputing integrals since basis changed


 Using spherical harmonics

 Library entry C      S cc-pVDZ              selected for orbital group  1
 Library entry C      P cc-pVDZ              selected for orbital group  1
 Library entry C      D cc-pVDZ              selected for orbital group  1
 Library entry H      S cc-pVDZ              selected for orbital group  2
 Library entry H      P cc-pVDZ              selected for orbital group  2

1PROGRAM * SEWARD (Integral evaluation for generally contracted gaussian basis sets)     Author: Roland Lindh, 1990

 Geometry written to block  1 of record 700


 Point group  C1  



 ATOMIC COORDINATES

 NR  ATOM    CHARGE       X              Y              Z

   1  C       6.00    0.000777359   -0.000777359    0.000000000
   2  C       6.00    2.366219226   -0.000777359   -1.672619985
   3  C       6.00    0.000777359   -2.366219226    1.672619985
   4  C       6.00    0.000777359    2.364664508    1.672619985
   5  C       6.00   -2.364664508   -0.000777359   -1.672619985
   6  H       1.00    2.409717342    1.675390253   -2.888607282
   7  H       1.00   -1.675390253   -2.409717342    2.888607282
   8  H       1.00    1.670337421    2.407991153    2.883813791
   9  H       1.00   -2.407991153   -1.670337421   -2.883813791
  10  H       1.00    4.080800688   -0.000777359   -0.521561559
  11  H       1.00    0.000777359   -4.080800688    0.521561559
  12  H       1.00    0.000777359    4.082635481    0.519286062
  13  H       1.00   -4.082635481   -0.000777359   -0.519286062
  14  H       1.00    2.409588738   -1.671989308   -2.885012163
  15  H       1.00    1.671989308   -2.409588738    2.885012163
  16  H       1.00   -1.673738365    2.408119757    2.887408909
  17  H       1.00   -2.408119757    1.673738365   -2.887408909

 Bond lengths in Bohr (Angstrom)

 1-2  2.897062795  1-3  2.897062795  1-4  2.897062795  1-5  2.897062795  2-6  2.071244808
     ( 1.533059604)     ( 1.533059604)     ( 1.533059604)     ( 1.533059604)     ( 1.096055547)

  2-10  2.065121084   2-14  2.065121084   3- 7  2.071244808   3-11  2.065121084   3-15  2.065121084
       ( 1.092815011)       ( 1.092815011)       ( 1.096055547)       ( 1.092815011)       ( 1.092815011)

  4- 8  2.063079842   4-12  2.069203567   4-16  2.069203567   5- 9  2.063079842   5-13  2.069203567
       ( 1.091734833)       ( 1.094975368)       ( 1.094975368)       ( 1.091734833)       ( 1.094975368)

  5-17  2.069203567
       ( 1.094975368)

 Bond angles

  1- 2- 6  110.86076877   1- 2-10  110.86076877   1- 2-14  110.86076877   1- 3- 7  110.86076877

  1- 3-11  110.86076877   1- 3-15  110.86076877   1- 4- 8  110.86076877   1- 4-12  110.86076877

  1- 4-16  110.86076877   1- 5- 9  110.86076877   1- 5-13  110.86076877   1- 5-17  110.86076877

  2-1-3  109.47122064   2-1-4  109.47122064   2-1-5  109.47122063   3-1-4  109.47122063

  3- 1- 5  109.47122064   4- 1- 5  109.47122064   6- 2-10  108.04663875   6- 2-14  108.04663875

  7- 3-11  108.04663875   7- 3-15  108.04663875   8- 4-12  108.04663875   8- 4-16  108.04663875

  9- 5-13  108.04663875   9- 5-17  108.04663875  10- 2-14  108.04663875  11- 3-15  108.04663875

 12- 4-16  108.04663875  13- 5-17  108.04663875

 NUCLEAR CHARGE:                   42
 NUMBER OF PRIMITIVE AOS:         219
 NUMBER OF SYMMETRY AOS:          214
 NUMBER OF CONTRACTIONS:          130   ( 130A   )
 NUMBER OF CORE ORBITALS:           5   (   5A   )
 NUMBER OF VALENCE ORBITALS:       32   (  32A   )


 NUCLEAR REPULSION ENERGY  198.59912038


 Eigenvalues of metric

         1 0.280E-02 0.504E-02 0.504E-02 0.504E-02 0.171E-01 0.189E-01 0.189E-01 0.189E-01


 Contracted 2-electron integrals neglected if value below      1.0D-16
 AO integral compression algorithm  1   Integral accuracy      1.0D-16

     295.174 MB (compressed) written to integral file ( 94.6%)

     Node minimum: 295.174 MB, node maximum: 295.174 MB


 NUMBER OF SORTED TWO-ELECTRON INTEGRALS:   36256870.     BUFFER LENGTH:  32768
 NUMBER OF SEGMENTS:   3  SEGMENT LENGTH:   15998004      RECORD LENGTH: 524288

 Memory used in sort:      16.56 MW

 SORT1 READ    38982726. AND WROTE    35251846. INTEGRALS IN    103 RECORDS. CPU TIME:     0.36 SEC, REAL TIME:     0.55 SEC
 SORT2 READ    35251846. AND WROTE    36256870. INTEGRALS IN   1126 RECORDS. CPU TIME:     0.29 SEC, REAL TIME:     0.42 SEC

 FILE SIZES:   FILE 1:   276.9 MBYTE,  FILE 4:   432.0 MBYTE,   TOTAL:    709.0 MBYTE

 OPERATOR DM      FOR CENTER  0  COORDINATES:    0.000000    0.000000    0.000000


 **********************************************************************************************************************************
 DATASETS  * FILE   NREC   LENGTH (MB)   RECORD NAMES
              1      19      277.11       500      610      700      900      950      970     1000      129      960     1100   
                                          VAR    BASINP    GEOM    SYMINP    ZMAT    AOBASIS   BASIS     P2S    ABASIS      S 
                                         1400     1410     1200     1210     1080     1600     1650     1300     1700   
                                           T        V       H0       H01     AOSYM     SMH    MOLCAS    ERIS     OPER   

 PROGRAMS   *        TOTAL       INT
 CPU TIMES  *         3.53      3.49
 REAL TIME  *         4.16 SEC
 DISK USED  *         1.01 GB      
 GA USED    *         0.01 MB       (max)       0.00 MB       (current)
 **********************************************************************************************************************************

1PROGRAM * RHF-SCF (CLOSED SHELL)       Authors: W. Meyer, H.-J. Werner


 NUMBER OF ELECTRONS:      21+   21-    SPACE SYMMETRY=1    SPIN SYMMETRY: Singlet 
 CONVERGENCE THRESHOLDS:    1.00E-10 (Density)    1.00E-13 (Energy)
 MAX. NUMBER OF ITERATIONS:      200
 INTERPOLATION TYPE:            DIIS
 INTERPOLATION STEPS:              2 (START)      1 (STEP)
 LEVEL SHIFTS:                  0.00 (CLOSED)  0.00 (OPEN) 



 Orbital guess generated from atomic densities. Full valence occupancy:   37

 Molecular orbital dump at record        2100.2

 ITERATION    DDIFF          GRAD             ENERGY        2-EL.EN.            DIPOLE MOMENTS         DIIS
    1      0.000D+00      0.000D+00      -196.27088820    527.677169   -0.00259    0.00259   -0.00000    0
    2      0.000D+00      0.467D-02      -196.33874732    521.943684    0.00259   -0.00259   -0.00000    1
    3      0.930D-02      0.177D-02      -196.34653778    524.513779    0.00189   -0.00189    0.00000    2
    4      0.346D-02      0.571D-03      -196.34768452    523.812449    0.00240   -0.00240    0.00000    3
    5      0.114D-02      0.118D-03      -196.34771910    523.878962    0.00243   -0.00243    0.00000    4
    6      0.198D-03      0.238D-04      -196.34772078    523.875204    0.00244   -0.00244    0.00000    5
    7      0.659D-04      0.226D-05      -196.34772080    523.874970    0.00244   -0.00244    0.00000    6
    8      0.684D-05      0.488D-06      -196.34772080    523.874928    0.00244   -0.00244   -0.00000    6
    9      0.137D-05      0.703D-07      -196.34772080    523.874919    0.00244   -0.00244   -0.00000    5
   10      0.244D-06      0.947D-08      -196.34772080    523.874929    0.00244   -0.00244    0.00000    5
   11      0.316D-07      0.295D-08      -196.34772080    523.874925    0.00244   -0.00244    0.00000    5
   12      0.606D-08      0.105D-08      -196.34772080    523.874926    0.00244   -0.00244    0.00000    6
   13      0.215D-08      0.832D-10      -196.34772080    523.874926    0.00244   -0.00244   -0.00000    6
   14      0.176D-09      0.227D-10      -196.34772080    523.874926    0.00244   -0.00244   -0.00000    6
   15      0.560D-10      0.754D-11      -196.34772080    523.874926    0.00244   -0.00244    0.00000    6
   16      0.210D-10      0.228D-11      -196.34772080    523.874926    0.00244   -0.00244    0.00000    7
   17      0.511D-11      0.594D-12      -196.34772080    523.874926    0.00244   -0.00244    0.00000    7
   18      0.164D-11      0.122D-12      -196.34772080    523.874926    0.00244   -0.00244    0.00000    6
   19      0.514D-12      0.375D-13      -196.34772080    523.874926    0.00244   -0.00244    0.00000    7
   20      0.172D-12      0.345D-13      -196.34772080    523.874926    0.00244   -0.00244    0.00000    8
   21      0.111D-12      0.306D-13      -196.34772080    523.874926    0.00244   -0.00244    0.00000    8
   22      0.698D-13      0.239D-13      -196.34772080    523.874926    0.00244   -0.00244    0.00000    9
   23      0.672D-13      0.269D-13      -196.34772080    523.874926    0.00244   -0.00244    0.00000    9
   24      0.591D-13      0.274D-13      -196.34772080    523.874926    0.00244   -0.00244    0.00000    9
   25      0.433D-13      0.220D-13      -196.34772080    523.874926    0.00244   -0.00244    0.00000    9
   26      0.310D-13      0.235D-13      -196.34772080    523.874926    0.00244   -0.00244    0.00000    9
   27      0.140D-13      0.199D-13      -196.34772080    523.874926    0.00244   -0.00244    0.00000    9
   28      0.116D-13      0.209D-13      -196.34772080    523.874926    0.00244   -0.00244    0.00000    9
   29      0.252D-13      0.216D-13      -196.34772080    523.874926    0.00244   -0.00244    0.00000    9
   30      0.249D-13      0.209D-13      -196.34772080    523.874926    0.00244   -0.00244    0.00000    9
   31      0.258D-13      0.253D-13      -196.34772080    523.874926    0.00244   -0.00244    0.00000    9
   32      0.335D-13      0.246D-13      -196.34772080    523.874926    0.00244   -0.00244    0.00000    9
   33      0.398D-13      0.252D-13      -196.34772080    523.874926    0.00244   -0.00244    0.00000    9
   34      0.196D-13      0.207D-13      -196.34772080    523.874926    0.00244   -0.00244    0.00000    9
   35      0.170D-13      0.221D-13      -196.34772080    523.874926    0.00244   -0.00244    0.00000    9
   36      0.162D-13      0.216D-13      -196.34772080    523.874926    0.00244   -0.00244    0.00000    9
   37      0.222D-13      0.222D-13      -196.34772080    523.874926    0.00244   -0.00244    0.00000    9
   38      0.290D-13      0.248D-13      -196.34772080    523.874926    0.00244   -0.00244    0.00000    9
   39      0.419D-13      0.191D-13      -196.34772080    523.874926    0.00244   -0.00244    0.00000    9
   40      0.411D-13      0.252D-13      -196.34772080    523.874926    0.00244   -0.00244    0.00000    9
   41      0.349D-13      0.217D-13      -196.34772080    523.874926    0.00244   -0.00244    0.00000    9
   42      0.297D-13      0.233D-13      -196.34772080    523.874926    0.00244   -0.00244    0.00000    9
   43      0.238D-13      0.200D-13      -196.34772080    523.874926    0.00244   -0.00244    0.00000    9
   44      0.133D-13      0.213D-13      -196.34772080    523.874926    0.00244   -0.00244    0.00000    9
   45      0.152D-13      0.285D-13      -196.34772080    523.874926    0.00244   -0.00244    0.00000    9
   46      0.110D-13      0.244D-13      -196.34772080    523.874926    0.00244   -0.00244    0.00000    9
   47      0.137D-13      0.289D-13      -196.34772080    523.874926    0.00244   -0.00244    0.00000    9
   48      0.293D-13      0.243D-13      -196.34772080    523.874926    0.00244   -0.00244    0.00000    9
   49      0.521D-13      0.220D-13      -196.34772080    523.874926    0.00244   -0.00244    0.00000    9
   50      0.480D-13      0.222D-13      -196.34772080    523.874926    0.00244   -0.00244    0.00000    9
   51      0.270D-13      0.236D-13      -196.34772080    523.874926    0.00244   -0.00244    0.00000    9
   52      0.307D-13      0.289D-13      -196.34772080    523.874926    0.00244   -0.00244    0.00000    9
   53      0.263D-13      0.221D-13      -196.34772080    523.874926    0.00244   -0.00244    0.00000    9
   54      0.367D-13      0.228D-13      -196.34772080    523.874926    0.00244   -0.00244    0.00000    9
   55      0.338D-13      0.244D-13      -196.34772080    523.874926    0.00244   -0.00244    0.00000    9
   56      0.392D-13      0.228D-13      -196.34772080    523.874926    0.00244   -0.00244    0.00000    9
   57      0.240D-13      0.247D-13      -196.34772080    523.874926    0.00244   -0.00244    0.00000    9
   58      0.349D-13      0.202D-13      -196.34772080    523.874926    0.00244   -0.00244    0.00000    9
   59      0.369D-13      0.228D-13      -196.34772080    523.874926    0.00244   -0.00244    0.00000    9
   60      0.498D-13      0.202D-13      -196.34772080    523.874926    0.00244   -0.00244    0.00000    9
   61      0.251D-13      0.190D-13      -196.34772080    523.874926    0.00244   -0.00244    0.00000    9
   62      0.332D-13      0.282D-13      -196.34772080    523.874926    0.00244   -0.00244    0.00000    9
   63      0.301D-13      0.240D-13      -196.34772080    523.874926    0.00244   -0.00244    0.00000    9
   64      0.241D-13      0.206D-13      -196.34772080    523.874926    0.00244   -0.00244    0.00000    0

 Final occupancy:  21

 !RHF STATE 1.1 Energy               -196.347720802747
 Nuclear energy                       198.59912038
 One-electron energy                 -656.88430397
 Two-electron energy                  261.93746278
 Virial quotient                       -1.00118114
 !RHF STATE 1.1 Dipole moment           0.00243879    -0.00243879     0.00000000
 Dipole moment /Debye                   0.00619838    -0.00619838     0.00000000

 Orbital energies:

         1.1          2.1          3.1          4.1          5.1          6.1          7.1          8.1          9.1         10.1
    -11.230714   -11.214150   -11.214132   -11.214057   -11.214028    -1.103748    -0.927589    -0.927562    -0.927535    -0.728614

        11.1         12.1         13.1         14.1         15.1         16.1         17.1         18.1         19.1         20.1
     -0.609155    -0.609078    -0.608995    -0.550491    -0.550482    -0.508161    -0.507785    -0.507416    -0.450463    -0.450333

        21.1         22.1         23.1
     -0.450203     0.170676     0.231110


 **********************************************************************************************************************************
 DATASETS  * FILE   NREC   LENGTH (MB)   RECORD NAMES
              1      19      277.11       500      610      700      900      950      970     1000      129      960     1100   
                                          VAR    BASINP    GEOM    SYMINP    ZMAT    AOBASIS   BASIS     P2S    ABASIS      S 
                                         1400     1410     1200     1210     1080     1600     1650     1300     1700   
                                           T        V       H0       H01     AOSYM     SMH    MOLCAS    ERIS     OPER   

              2       3        0.89       700     1000     2100   
                                         GEOM     BASIS     RHF  

 PROGRAMS   *        TOTAL       RHF       INT
 CPU TIMES  *        18.11     14.58      3.49
 REAL TIME  *        20.39 SEC
 DISK USED  *         1.01 GB      
 GA USED    *         0.01 MB       (max)       0.00 MB       (current)
 **********************************************************************************************************************************


1PROGRAM * CCSD (Closed-shell coupled cluster)     Authors: C. Hampel, H.-J. Werner, 1991, M. Deegan, P.J. Knowles, 1992


 Convergence thresholds:  THRVAR = 1.00D-08  THRDEN = 1.00D-12

 CCSD(T)     terms to be evaluated (factor= 1.000)


 Number of core orbitals:           5 (   5 )
 Number of closed-shell orbitals:  16 (  16 )
 Number of external orbitals:     109 ( 109 )

 Molecular orbitals read from record     2100.2  Type=RHF/CANONICAL (state 1.1)

 Number of N-1 electron functions:              16
 Number of N-2 electron functions:             136
 Number of singly external CSFs:              1744
 Number of doubly external CSFs:           1521640
 Total number of CSFs:                     1523385

 Length of J-op  integral file:               0.00 MB
 Length of K-op  integral file:               1.20 MB
 Length of 3-ext integral record:             0.00 MB

 Memory could be reduced to 28.13 Mwords without degradation in triples

 Integral transformation finished. Total CPU:   1.48 sec, npass=  1  Memory used:  22.98 MW

 Reference energy:                   -196.34772080

 MP2 singlet pair energy:              -0.48845241
 MP2 triplet pair energy:              -0.25007704
 MP2 correlation energy:               -0.73852945
 MP2 total energy:                   -197.08625025

 SCS-MP2 correlation energy:           -0.74174638   (PS=  1.200000  PT=  0.333333)
 SCS-MP2 total energy:               -197.08946719

 ITER.      SQ.NORM     CORR.ENERGY   TOTAL ENERGY   ENERGY CHANGE        DEN1      VAR(S)    VAR(P)  DIIS     TIME
   1      1.28821608    -0.80655489  -197.15427570    -0.06802545    -0.04667784  0.17D-02  0.47D-02  1  1     5.94
   2      1.31153014    -0.81148839  -197.15920919    -0.00493349    -0.02353915  0.47D-04  0.32D-03  2  2    10.45
   3      1.31553950    -0.81163824  -197.15935904    -0.00014985    -0.00243443  0.53D-05  0.22D-04  3  3    14.96
   4      1.31658361    -0.81170052  -197.15942132    -0.00006228    -0.00046366  0.25D-06  0.12D-05  4  4    19.47
   5      1.31670956    -0.81170490  -197.15942570    -0.00000438    -0.00005128  0.15D-07  0.93D-07  5  5    23.97
   6      1.31672203    -0.81170248  -197.15942328     0.00000242    -0.00000846  0.68D-09  0.61D-08  6  6    28.50
   7      1.31672059    -0.81170275  -197.15942356    -0.00000028     0.00000063  0.16D-09  0.52D-09  6  1    33.03
   8      1.31672030    -0.81170290  -197.15942371    -0.00000015     0.00000027  0.78D-11  0.30D-10  6  2    37.57
   9      1.31672001    -0.81170295  -197.15942375    -0.00000005     0.00000025  0.11D-11  0.25D-11  6  3    42.10
  10      1.31671990    -0.81170296  -197.15942376    -0.00000001     0.00000009  0.89D-13  0.22D-12  6  4    46.63
  11      1.31671984    -0.81170296  -197.15942376    -0.00000000     0.00000004  0.95D-14  0.24D-13  6  5    51.16
  12      1.31671981    -0.81170296  -197.15942377    -0.00000000     0.00000002  0.90D-15  0.12D-14  6  1    55.68
  13      1.31671980    -0.81170296  -197.15942377    -0.00000000     0.00000000  0.79D-16  0.70D-16  6  6    60.21
  14      1.31671980    -0.81170296  -197.15942377    -0.00000000     0.00000000  0.15D-16  0.96D-17  6  2    64.74
  15      1.31671980    -0.81170296  -197.15942377    -0.00000000     0.00000000  0.13D-17  0.11D-17  6  3    69.28
  16      1.31671980    -0.81170296  -197.15942377     0.00000000    -0.00000000  0.69D-19  0.91D-19  6  4    73.80
  17      1.31671980    -0.81170296  -197.15942377     0.00000000    -0.00000000  0.34D-20  0.85D-20  6  5    78.33
  18      1.31671980    -0.81170296  -197.15942377     0.00000000    -0.00000000  0.38D-21  0.12D-20  6  1    82.87
  19      1.31671980    -0.81170296  -197.15942377     0.00000000    -0.00000000  0.30D-22  0.16D-21  6  6    87.40

 Norm of t1 vector:      0.05469789      S-energy:    -0.00000000      T1 diagnostic:  0.00683724
                                                                       D1 diagnostic:  0.01260395


 Total CPU time for triples:     70.31 sec


 RESULTS
 =======

  Reference energy                   -196.347720802747
  CCSD singlet pair energy             -0.577587297263
  CCSD triplet pair energy             -0.234115665522
  CCSD correlation energy              -0.811702962785

  Triples (T) contribution             -0.023942324626
  Total correlation energy             -0.835645287410

  CCSD total energy                  -197.159423765532
  CCSD[T] energy                     -197.183825432811
  CCSD-T energy                      -197.183117428113
 !CCSD(T) total energy               -197.183366090157

 Timing summary (sec):

 STEP                 CPU(USER)    SYS     CPU(TOT)    WALL
 Transformation          1.54      0.16      1.70      1.71
 CCSD iterations        85.87      1.98     87.85     87.91
 Triples                70.31      1.41     71.72     71.73

 Program statistics:

 Available memory in ccsd:               999998876
 Min. memory needed in ccsd:               3966807
 Max. memory used in ccsd:                 5311887
 Max. memory used in cckext:               4858018 (19 integral passes)



 **********************************************************************************************************************************
 DATASETS  * FILE   NREC   LENGTH (MB)   RECORD NAMES
              1      20      388.82       500      610      700      900      950      970     1000      129      960     1100   
                                          VAR    BASINP    GEOM    SYMINP    ZMAT    AOBASIS   BASIS     P2S    ABASIS      S 
                                         1400     1410     1200     1210     1080     1600     1650     1300     1700     1380   
                                           T        V       H0       H01     AOSYM     SMH    MOLCAS    ERIS     OPER     JKOP   

              2       3        0.89       700     1000     2100   
                                         GEOM     BASIS     RHF  

 PROGRAMS   *        TOTAL   CCSD(T)       RHF       INT
 CPU TIMES  *       175.84    157.73     14.58      3.49
 REAL TIME  *       181.79 SEC
 DISK USED  *         1.01 GB      
 GA USED    *         0.01 MB       (max)       0.00 MB       (current)
 **********************************************************************************************************************************

        CCSD(T)         RHF-SCF 
   -197.18336609   -196.34772080
 **********************************************************************************************************************************
 Variable memory released
