
 Primary working directories    : /tmp/984724.165.gen4.q
 Secondary working directories  : /tmp/984724.165.gen4.q
 Wavefunction directory         : /home/vulcan/mel64643/wfu/
 Main file repository           : /tmp/984724.165.gen4.q/

 ARCHNAME  : Linux/x86_64
 FC        : /opt/intel/compilers_and_libraries_2016.1.150/linux/bin/intel64/ifort
 FCVERSION : 16.0.1
 BLASLIB   : -mkl
 id        : ccgc

 Nodes     nprocs
 n049         1
 ga_uses_ma=false, calling ma_init with nominal heap.
 GA-space will be limited to   8.0 MW (determined by -G option)

 Using customized tuning parameters: mindgm=10; mindgv=16; mindgc=4; mindgr=1; noblas=0; mincuda=1000; minvec=7
 default implementation of scratch files=df  

 ***,Optimization of formic acid
 memory,1000,m
 gthresh,energy=1.0d-12,orbital=1.0d-10,oneint=1.0d-16,twoint=1.0d-16,optgrad=1.0d-6,compress=1.0d-13
 geomtyp=xyz
 
 
 
 bohr
 geometry = {
  C   -3.5002140673   -0.8307888648   -0.0000000000
  O   -3.0893388555    1.6147276653    0.0000000000
  O   -1.8888891902   -2.4850447308   -0.0000000000
  H   -5.5204925955   -1.2686362448    0.0000000000
  H   -1.2363969831    1.9417116883    0.0000000000
  C    3.5011513076    0.8363675377   -0.0000000000
  O    3.0879329709   -1.6230956685    0.0000000000
  O    1.8898264704    2.4906234421   -0.0000000000
  H    5.5214298343    1.2742149250   -0.0000000000
  H    1.2349911084   -1.9500797494    0.0000000000
 }
 
 basis=AVDZ, H=VDZ
 {rhf;maxit,200}
 {ccsd(t);maxit,200}

 Variables initialized (661), CPU time= 0.00 sec
 Commands  initialized (458), CPU time= 0.00 sec, 486 directives.
 Default parameters read. Elapsed time= 0.05 sec

 Checking input...
 Passed
1


                                         ***  PROGRAM SYSTEM MOLPRO  ***
                         Copyright, University College Cardiff Consultants Limited, 2008

                                    Version 2010.1 linked May 16 2016 07:17:05


 **********************************************************************************************************************************
 LABEL *   Optimization of formic acid                                                   
 Linux-4.4.3/n049(x86_64) 64 bit mpp version                                             DATE: 22-Jan-24          TIME: 16:15:30  
 **********************************************************************************************************************************

 SHA1:             9e8077add272b0f3cad6f7df79ec5211205f459d
 **********************************************************************************************************************************

 THRESHOLDS:

 ZERO    =  1.00D-12  ONEINT  =  1.00D-16  TWOINT  =  1.00D-16  PREFAC  =  1.00D-14  LOCALI  =  1.00D-09  EORDER  =  1.00D-04
 ENERGY  =  1.00D-12  ETEST   =  0.00D+00  EDENS   =  0.00D+00  THRDEDEF=  1.00D-06  GRADIENT=  1.00D-02  STEP    =  1.00D-03
 ORBITAL =  1.00D-10  CIVEC   =  1.00D-05  COEFF   =  1.00D-04  PRINTCI =  5.00D-02  PUNCHCI =  9.90D+01  OPTGRAD =  1.00D-06
 OPTENERG=  1.00D-06  OPTSTEP =  3.00D-04  THRGRAD =  1.00D-10  COMPRESS=  1.00D-13  VARMIN  =  1.00D-07  VARMAX  =  1.00D-03
 THRDOUB =  0.00D+00  THRDIV  =  1.00D-05  THRRED  =  1.00D-07  THRPSP  =  1.00D+00  THRDC   =  1.00D-10  THRCS   =  1.00D-10
 THRNRM  =  1.00D-08  THREQ   =  0.00D+00  THRDE   =  1.00D+00  THRREF  =  1.00D-05  SPARFAC =  1.00D+00  THRDLP  =  1.00D-07
 THRDIA  =  1.00D-10  THRDLS  =  1.00D-07  THRGPS  =  0.00D+00  THRKEX  =  0.00D+00  THRDIS  =  2.00D-01  THRVAR  =  1.00D-10
 THRLOC  =  1.00D-06  THRGAP  =  1.00D-06  THRLOCT = -1.00D+00  THRGAPT = -1.00D+00  THRORB  =  1.00D-06  THRMLTP =  0.00D+00
 THRCPQCI=  1.00D-10  KEXTA   =  0.00D+00  THRCOARS=  0.00D+00  SYMTOL  =  1.00D-06  GRADTOL =  1.00D-06  THROVL  =  1.00D-08
 THRORTH =  1.00D-08  GRID    =  1.00D-06  GRIDMAX =  1.00D-03  DTMAX   =  0.00D+00

 SETTING GEOMTYP        =    XYZ
 ZUNIT=BOHR
 

 Variable memory set to 1000000000 words,  buffer space   230000 words

 SETTING BASIS          =    AVDZ,H=VDZ


 Recomputing integrals since basis changed


 Using spherical harmonics

 Library entry C      S aug-cc-pVDZ          selected for orbital group  1
 Library entry C      P aug-cc-pVDZ          selected for orbital group  1
 Library entry C      D aug-cc-pVDZ          selected for orbital group  1
 Library entry O      S aug-cc-pVDZ          selected for orbital group  2
 Library entry O      P aug-cc-pVDZ          selected for orbital group  2
 Library entry O      D aug-cc-pVDZ          selected for orbital group  2
 Library entry H      S cc-pVDZ              selected for orbital group  3
 Library entry H      P cc-pVDZ              selected for orbital group  3

1PROGRAM * SEWARD (Integral evaluation for generally contracted gaussian basis sets)     Author: Roland Lindh, 1990

 Geometry written to block  1 of record 700


 Point group  Cs  



 ATOMIC COORDINATES

 NR  ATOM    CHARGE       X              Y              Z

   1  C       6.00   -3.500214067   -0.830788865    0.000000000
   2  O       8.00   -3.089338855    1.614727665    0.000000000
   3  O       8.00   -1.888889190   -2.485044731    0.000000000
   4  H       1.00   -5.520492596   -1.268636245    0.000000000
   5  H       1.00   -1.236396983    1.941711688    0.000000000
   6  C       6.00    3.501151308    0.836367538    0.000000000
   7  O       8.00    3.087932971   -1.623095668    0.000000000
   8  O       8.00    1.889826470    2.490623442    0.000000000
   9  H       1.00    5.521429834    1.274214925    0.000000000
  10  H       1.00    1.234991108   -1.950079749    0.000000000

 Bond lengths in Bohr (Angstrom)

 1-2  2.479792237  1-3  2.309313822  1-4  2.067180606  2-5  1.881571719  6-7  2.493934373
     ( 1.312249535)     ( 1.222036243)     ( 1.093904864)     ( 0.995684871)     ( 1.319733231)

  6- 8  2.309313822   6- 9  2.067180607   7-10  1.881571719
       ( 1.222036243)       ( 1.093904864)       ( 0.995684871)

 Bond angles

  1-2-5  109.54509196   2-1-3  126.21591247   2-1-4  111.76566684   3-1-4  122.01842069

  6- 7-10  109.54509196   7- 6- 8  126.21591563   7- 6- 9  111.76566526   8- 6- 9  122.01841911

 NUCLEAR CHARGE:                   48
 NUMBER OF PRIMITIVE AOS:         250
 NUMBER OF SYMMETRY AOS:          238
 NUMBER OF CONTRACTIONS:          158   ( 112A'  +  46A"  )
 NUMBER OF CORE ORBITALS:           6   (   6A'  +   0A"  )
 NUMBER OF VALENCE ORBITALS:       28   (  22A'  +   6A"  )


 NUCLEAR REPULSION ENERGY  235.52969514


 Eigenvalues of metric

         1 0.780E-03 0.127E-02 0.142E-02 0.198E-02 0.274E-02 0.419E-02 0.473E-02 0.694E-02
         2 0.270E-01 0.380E-01 0.473E-01 0.520E-01 0.618E-01 0.743E-01 0.105E+00 0.138E+00


 Contracted 2-electron integrals neglected if value below      1.0D-16
 AO integral compression algorithm  1   Integral accuracy      1.0D-16

     353.370 MB (compressed) written to integral file ( 94.6%)

     Node minimum: 353.370 MB, node maximum: 353.370 MB


 NUMBER OF SORTED TWO-ELECTRON INTEGRALS:   41131481.     BUFFER LENGTH:  32768
 NUMBER OF SEGMENTS:   3  SEGMENT LENGTH:   15997996      RECORD LENGTH: 524288

 Memory used in sort:      16.56 MW

 SORT1 READ    46708508. AND WROTE    40803465. INTEGRALS IN    118 RECORDS. CPU TIME:     0.52 SEC, REAL TIME:     0.79 SEC
 SORT2 READ    40803465. AND WROTE    41131481. INTEGRALS IN   1348 RECORDS. CPU TIME:     0.39 SEC, REAL TIME:     0.55 SEC

 FILE SIZES:   FILE 1:   319.8 MBYTE,  FILE 4:   495.0 MBYTE,   TOTAL:    814.8 MBYTE

 OPERATOR DM      FOR CENTER  0  COORDINATES:    0.000000    0.000000    0.000000


 **********************************************************************************************************************************
 DATASETS  * FILE   NREC   LENGTH (MB)   RECORD NAMES
              1      19      319.96       500      610      700      900      950      970     1000      129      960     1100   
                                          VAR    BASINP    GEOM    SYMINP    ZMAT    AOBASIS   BASIS     P2S    ABASIS      S 
                                         1400     1410     1200     1210     1080     1600     1650     1300     1700   
                                           T        V       H0       H01     AOSYM     SMH    MOLCAS    ERIS     OPER   

 PROGRAMS   *        TOTAL       INT
 CPU TIMES  *         4.61      4.58
 REAL TIME  *         5.42 SEC
 DISK USED  *         1.17 GB      
 GA USED    *         0.00 MB       (max)       0.00 MB       (current)
 **********************************************************************************************************************************

1PROGRAM * RHF-SCF (CLOSED SHELL)       Authors: W. Meyer, H.-J. Werner


 NUMBER OF ELECTRONS:      24+   24-
 CONVERGENCE THRESHOLDS:    1.00E-10 (Density)    1.00E-13 (Energy)
 MAX. NUMBER OF ITERATIONS:      200
 INTERPOLATION TYPE:            DIIS
 INTERPOLATION STEPS:              2 (START)      1 (STEP)
 LEVEL SHIFTS:                  0.00 (CLOSED)  0.00 (OPEN) 



 Orbital guess generated from atomic densities. Full valence occupancy:   28   6

 Molecular orbital dump at record        2100.2

 Initial alpha occupancy:  20   4
 Initial beta  occupancy:  20   4
 Wave function symmetry:    1

 ITERATION    DDIFF          GRAD             ENERGY        2-EL.EN.            DIPOLE MOMENTS         DIIS
    1      0.000D+00      0.000D+00      -377.47422883    746.284984   -0.00087    0.02375    0.00000    0
    2      0.000D+00      0.943D-02      -377.56250981    743.498195   -0.00149    0.01098    0.00000    1
    3      0.179D-01      0.594D-02      -377.60990760    745.769509   -0.00127    0.01511    0.00000    2
    4      0.669D-02      0.848D-03      -377.61151671    745.371963   -0.00133    0.01449    0.00000    3
    5      0.130D-02      0.359D-03      -377.61179976    745.409172   -0.00141    0.01439    0.00000    4
    6      0.540D-03      0.101D-03      -377.61184355    745.460955   -0.00148    0.01443    0.00000    5
    7      0.181D-03      0.450D-04      -377.61185408    745.442956   -0.00151    0.01437    0.00000    6
    8      0.105D-03      0.142D-04      -377.61185533    745.448455   -0.00153    0.01443    0.00000    7
    9      0.386D-04      0.468D-05      -377.61185544    745.447140   -0.00152    0.01438    0.00000    8
   10      0.125D-04      0.131D-05      -377.61185545    745.447314   -0.00154    0.01443    0.00000    8
   11      0.342D-05      0.468D-06      -377.61185545    745.447321   -0.00152    0.01439    0.00000    8
   12      0.109D-05      0.209D-06      -377.61185545    745.447298   -0.00153    0.01441    0.00000    9
   13      0.343D-06      0.454D-07      -377.61185545    745.447304   -0.00153    0.01441    0.00000    8
   14      0.106D-06      0.167D-07      -377.61185545    745.447302   -0.00153    0.01441    0.00000    8
   15      0.238D-07      0.682D-08      -377.61185545    745.447303   -0.00153    0.01441    0.00000    8
   16      0.137D-07      0.198D-08      -377.61185545    745.447303   -0.00153    0.01441    0.00000    8
   17      0.414D-08      0.743D-09      -377.61185545    745.447303   -0.00153    0.01441    0.00000    8
   18      0.128D-08      0.158D-09      -377.61185545    745.447303   -0.00153    0.01441    0.00000    8
   19      0.349D-09      0.682D-10      -377.61185545    745.447303   -0.00153    0.01441    0.00000    8
   20      0.148D-09      0.171D-10      -377.61185545    745.447303   -0.00153    0.01441    0.00000    8
   21      0.401D-10      0.563D-11      -377.61185545    745.447303   -0.00153    0.01441    0.00000    8
   22      0.134D-10      0.220D-11      -377.61185545    745.447303   -0.00153    0.01441    0.00000    8
   23      0.513D-11      0.810D-12      -377.61185545    745.447303   -0.00153    0.01441    0.00000    8
   24      0.182D-11      0.338D-12      -377.61185545    745.447303   -0.00153    0.01441    0.00000    8
   25      0.938D-12      0.137D-12      -377.61185545    745.447303   -0.00153    0.01441    0.00000    0

 Final occupancy:  20   4

 !RHF STATE 1.1 Energy               -377.611855452186
 Nuclear energy                       235.52969514
 One-electron energy                 -985.86520211
 Two-electron energy                  372.72365152
 Virial quotient                       -1.00163912
 !RHF STATE 1.1 Dipole moment          -0.00153127     0.01440607     0.00000000
 Dipole moment /Debye                  -0.00389185     0.03661417     0.00000000

 Orbital energies:

         1.1          2.1          3.1          4.1          5.1          6.1          7.1          8.1          9.1         10.1
    -20.626822   -20.625891   -20.588426   -20.587069   -11.420441   -11.419478    -1.490620    -1.477590    -1.392275    -1.378281

        11.1         12.1         13.1         14.1         15.1         16.1         17.1         18.1         19.1         20.1
     -0.921973    -0.886246    -0.771396    -0.735603    -0.726780    -0.698234    -0.622457    -0.582162    -0.498126    -0.475770

        21.1         22.1
      0.069488     0.070562

         1.2          2.2          3.2          4.2          5.2          6.2
     -0.645824    -0.635301    -0.506974    -0.495212     0.080682     0.092970


 **********************************************************************************************************************************
 DATASETS  * FILE   NREC   LENGTH (MB)   RECORD NAMES
              1      19      319.96       500      610      700      900      950      970     1000      129      960     1100   
                                          VAR    BASINP    GEOM    SYMINP    ZMAT    AOBASIS   BASIS     P2S    ABASIS      S 
                                         1400     1410     1200     1210     1080     1600     1650     1300     1700   
                                           T        V       H0       H01     AOSYM     SMH    MOLCAS    ERIS     OPER   

              2       3        0.73       700     1000     2100   
                                         GEOM     BASIS     RHF  

 PROGRAMS   *        TOTAL       RHF       INT
 CPU TIMES  *        10.50      5.89      4.58
 REAL TIME  *        12.24 SEC
 DISK USED  *         1.17 GB      
 GA USED    *         0.00 MB       (max)       0.00 MB       (current)
 **********************************************************************************************************************************


1PROGRAM * CCSD (Closed-shell coupled cluster)     Authors: C. Hampel, H.-J. Werner, 1991, M. Deegan, P.J. Knowles, 1992


 Convergence thresholds:  THRVAR = 1.00D-08  THRDEN = 1.00D-12

 CCSD(T)     terms to be evaluated (factor= 1.000)


 Number of core orbitals:           6 (   6   0 )
 Number of closed-shell orbitals:  18 (  14   4 )
 Number of external orbitals:     134 (  92  42 )

 Molecular orbitals read from record     2100.2  Type=RHF/CANONICAL (state 1.1)

 Number of N-1 electron functions:              18
 Number of N-2 electron functions:             171
 Number of singly external CSFs:              1456
 Number of doubly external CSFs:           1518142
 Total number of CSFs:                     1519599

 Length of J-op  integral file:               0.00 MB
 Length of K-op  integral file:               1.05 MB
 Length of 3-ext integral record:             0.00 MB

 Memory could be reduced to 29.62 Mwords without degradation in triples

 Integral transformation finished. Total CPU:   1.59 sec, npass=  1  Memory used:  13.10 MW

 Reference energy:                   -377.61185545

 MP2 singlet pair energy:              -0.63201361
 MP2 triplet pair energy:              -0.43058603
 MP2 correlation energy:               -1.06259964
 MP2 total energy:                   -378.67445509

 SCS-MP2 correlation energy:           -1.02633652   (PS=  1.200000  PT=  0.333333)
 SCS-MP2 total energy:               -378.63819198

 ITER.      SQ.NORM     CORR.ENERGY   TOTAL ENERGY   ENERGY CHANGE        DEN1      VAR(S)    VAR(P)  DIIS     TIME
   1      1.30280719    -1.07994339  -378.69179884    -0.01734375     0.01550371  0.11D-01  0.60D-02  1  1     5.46
   2      1.32740355    -1.08104559  -378.69290104    -0.00110220    -0.02621047  0.24D-03  0.10D-02  2  2     9.43
   3      1.34058884    -1.08189921  -378.69375466    -0.00085362    -0.00594690  0.21D-03  0.45D-04  3  3    13.40
   4      1.34591522    -1.08163089  -378.69348635     0.00026832    -0.00176654  0.19D-04  0.80D-05  4  4    17.37
   5      1.34800348    -1.08154177  -378.69339723     0.00008912    -0.00046849  0.17D-05  0.73D-06  5  5    21.35
   6      1.34838598    -1.08152149  -378.69337695     0.00002028    -0.00002187  0.14D-06  0.84D-07  6  6    25.33
   7      1.34846841    -1.08151202  -378.69336748     0.00000947    -0.00000600  0.12D-07  0.12D-07  6  2    29.32
   8      1.34847419    -1.08151285  -378.69336830    -0.00000082     0.00000233  0.19D-08  0.12D-08  6  1    33.31
   9      1.34847489    -1.08151267  -378.69336812     0.00000018     0.00000127  0.31D-09  0.17D-09  6  4    37.30
  10      1.34847665    -1.08151250  -378.69336795     0.00000017    -0.00000050  0.72D-10  0.23D-10  6  3    41.29
  11      1.34847616    -1.08151262  -378.69336807    -0.00000012     0.00000022  0.16D-10  0.42D-11  6  5    45.27
  12      1.34847590    -1.08151264  -378.69336809    -0.00000002     0.00000004  0.30D-11  0.10D-11  6  6    49.26
  13      1.34847561    -1.08151267  -378.69336813    -0.00000004     0.00000011  0.49D-12  0.21D-12  6  1    53.24
  14      1.34847551    -1.08151268  -378.69336813    -0.00000001     0.00000002  0.67D-13  0.31D-13  6  2    57.22
  15      1.34847549    -1.08151268  -378.69336813    -0.00000000     0.00000000  0.12D-13  0.51D-14  6  4    61.21
  16      1.34847548    -1.08151268  -378.69336813    -0.00000000    -0.00000000  0.24D-14  0.11D-14  6  3    65.19
  17      1.34847548    -1.08151268  -378.69336813     0.00000000    -0.00000000  0.28D-15  0.18D-15  6  6    69.17
  18      1.34847548    -1.08151268  -378.69336813    -0.00000000     0.00000000  0.37D-16  0.18D-16  6  5    73.16
  19      1.34847548    -1.08151268  -378.69336813    -0.00000000     0.00000000  0.92D-17  0.28D-17  6  1    77.14
  20      1.34847548    -1.08151268  -378.69336813     0.00000000    -0.00000000  0.17D-17  0.82D-18  6  5    81.13
  21      1.34847548    -1.08151268  -378.69336813    -0.00000000     0.00000000  0.18D-18  0.94D-19  6  2    85.13
  22      1.34847548    -1.08151268  -378.69336813     0.00000000    -0.00000000  0.14D-19  0.14D-19  6  3    89.11
  23      1.34847548    -1.08151268  -378.69336813     0.00000000     0.00000000  0.25D-20  0.92D-21  6  4    93.09
  24      1.34847548    -1.08151268  -378.69336813     0.00000000     0.00000000  0.86D-21  0.21D-21  6  6    97.09

 Norm of t1 vector:      0.15402155      S-energy:    -0.00000000      T1 diagnostic:  0.01815161
                                                                       D1 diagnostic:  0.06240125

 Singles amplitudes (print threshold =  0.500E-01):

         I         SYM. A    A   T(IA)

        16         2         4     -0.05235828


 Total CPU time for triples:     89.19 sec


 RESULTS
 =======

  Reference energy                   -377.611855452186
  CCSD singlet pair energy             -0.702956094813
  CCSD triplet pair energy             -0.378556587588
  CCSD correlation energy              -1.081512682402

  Triples (T) contribution             -0.039466531561
  Total correlation energy             -1.120979213963

  CCSD total energy                  -378.693368134588
  CCSD[T] energy                     -378.736482992259
  CCSD-T energy                      -378.731579241260
 !CCSD(T) total energy               -378.732834666149

 Timing summary (sec):

 STEP                 CPU(USER)    SYS     CPU(TOT)    WALL
 Transformation          1.65      0.18      1.83      1.84
 CCSD iterations        95.44      2.78     98.22     98.27
 Triples                89.19      2.03     91.22     91.23

 Program statistics:

 Available memory in ccsd:               999998604
 Min. memory needed in ccsd:               3931458
 Max. memory used in ccsd:                 5315516
 Max. memory used in cckext:               5296012 (24 integral passes)



 **********************************************************************************************************************************
 DATASETS  * FILE   NREC   LENGTH (MB)   RECORD NAMES
              1      20      438.35       500      610      700      900      950      970     1000      129      960     1100   
                                          VAR    BASINP    GEOM    SYMINP    ZMAT    AOBASIS   BASIS     P2S    ABASIS      S 
                                         1400     1410     1200     1210     1080     1600     1650     1300     1700     1380   
                                           T        V       H0       H01     AOSYM     SMH    MOLCAS    ERIS     OPER     JKOP   

              2       3        0.73       700     1000     2100   
                                         GEOM     BASIS     RHF  

 PROGRAMS   *        TOTAL   CCSD(T)       RHF       INT
 CPU TIMES  *       196.79    186.29      5.89      4.58
 REAL TIME  *       203.63 SEC
 DISK USED  *         1.17 GB      
 GA USED    *         0.00 MB       (max)       0.00 MB       (current)
 **********************************************************************************************************************************

        CCSD(T)         RHF-SCF 
   -378.73283467   -377.61185545
 **********************************************************************************************************************************
 Variable memory released
