
 Primary working directories    : /tmp/870712.570.gen4.q
 Secondary working directories  : /tmp/870712.570.gen4.q
 Wavefunction directory         : /home/vulcan/lo21740/wfu/
 Main file repository           : /tmp/870712.570.gen4.q/

 ARCHNAME  : Linux/x86_64
 FC        : /opt/intel/compilers_and_libraries_2016.1.150/linux/bin/intel64/ifort
 FCVERSION : 16.0.1
 BLASLIB   : -mkl
 id        : ccgc

 Nodes     nprocs
 n065         1
 ga_uses_ma=false, calling ma_init with nominal heap.
 GA-space will be limited to   8.0 MW (determined by -G option)

 Using customized tuning parameters: mindgm=10; mindgv=16; mindgc=4; mindgr=1; noblas=0; mincuda=1000; minvec=7
 default implementation of scratch files=df  

 ***,Optimization of formic acid
 memory,1000,m
 gthresh,energy=1.0d-12,orbital=1.0d-10,oneint=1.0d-16,twoint=1.0d-16,optgrad=1.0d-6,compress=1.0d-13
 geomtyp=xyz
 
 bohr
 geometry = {
  C   -3.5040414543   -0.8339748729   -0.0000000000
  O   -3.0874325349    1.6200071113   -0.0000000000
  O   -1.8937303054   -2.4830385656   -0.0000000000
  H   -5.5238679637   -1.2791443827   -0.0000000000
  H   -1.2323342505    1.9504887587    0.0000000000
  C    3.5040414543    0.8339748729    0.0000000000
  O    3.0874325349   -1.6200071113   -0.0000000000
  O    1.8937303054    2.4830385656    0.0000000000
  H    5.5238679637    1.2791443827    0.0000000000
  H    1.2323342505   -1.9504887587   -0.0000000000
 }
 
 basis=AVTZ
 {rhf;maxit,200}
 {mp2}

 Variables initialized (661), CPU time= 0.00 sec
 Commands  initialized (458), CPU time= 0.01 sec, 486 directives.
 Default parameters read. Elapsed time= 0.05 sec

 Checking input...
 Passed
1


                                         ***  PROGRAM SYSTEM MOLPRO  ***
                         Copyright, University College Cardiff Consultants Limited, 2008

                                    Version 2010.1 linked May 16 2016 07:17:05


 **********************************************************************************************************************************
 LABEL *   Optimization of formic acid                                                   
 Linux-4.4.3/n065(x86_64) 64 bit mpp version                                             DATE: 12-May-23          TIME: 23:48:52  
 **********************************************************************************************************************************

 SHA1:             9e8077add272b0f3cad6f7df79ec5211205f459d
 **********************************************************************************************************************************

 THRESHOLDS:

 ZERO    =  1.00D-12  ONEINT  =  1.00D-16  TWOINT  =  1.00D-16  PREFAC  =  1.00D-14  LOCALI  =  1.00D-09  EORDER  =  1.00D-04
 ENERGY  =  1.00D-12  ETEST   =  0.00D+00  EDENS   =  0.00D+00  THRDEDEF=  1.00D-06  GRADIENT=  1.00D-02  STEP    =  1.00D-03
 ORBITAL =  1.00D-10  CIVEC   =  1.00D-05  COEFF   =  1.00D-04  PRINTCI =  5.00D-02  PUNCHCI =  9.90D+01  OPTGRAD =  1.00D-06
 OPTENERG=  1.00D-06  OPTSTEP =  3.00D-04  THRGRAD =  1.00D-10  COMPRESS=  1.00D-13  VARMIN  =  1.00D-07  VARMAX  =  1.00D-03
 THRDOUB =  0.00D+00  THRDIV  =  1.00D-05  THRRED  =  1.00D-07  THRPSP  =  1.00D+00  THRDC   =  1.00D-10  THRCS   =  1.00D-10
 THRNRM  =  1.00D-08  THREQ   =  0.00D+00  THRDE   =  1.00D+00  THRREF  =  1.00D-05  SPARFAC =  1.00D+00  THRDLP  =  1.00D-07
 THRDIA  =  1.00D-10  THRDLS  =  1.00D-07  THRGPS  =  0.00D+00  THRKEX  =  0.00D+00  THRDIS  =  2.00D-01  THRVAR  =  1.00D-10
 THRLOC  =  1.00D-06  THRGAP  =  1.00D-06  THRLOCT = -1.00D+00  THRGAPT = -1.00D+00  THRORB  =  1.00D-06  THRMLTP =  0.00D+00
 THRCPQCI=  1.00D-10  KEXTA   =  0.00D+00  THRCOARS=  0.00D+00  SYMTOL  =  1.00D-06  GRADTOL =  1.00D-06  THROVL  =  1.00D-08
 THRORTH =  1.00D-08  GRID    =  1.00D-06  GRIDMAX =  1.00D-03  DTMAX   =  0.00D+00

 SETTING GEOMTYP        =    XYZ
 ZUNIT=BOHR
 

 Variable memory set to 1000000000 words,  buffer space   230000 words

 SETTING BASIS          =    AVTZ


 Recomputing integrals since basis changed


 Using spherical harmonics

 Library entry C      S aug-cc-pVTZ          selected for orbital group  1
 Library entry C      P aug-cc-pVTZ          selected for orbital group  1
 Library entry C      D aug-cc-pVTZ          selected for orbital group  1
 Library entry C      F aug-cc-pVTZ          selected for orbital group  1
 Library entry O      S aug-cc-pVTZ          selected for orbital group  2
 Library entry O      P aug-cc-pVTZ          selected for orbital group  2
 Library entry O      D aug-cc-pVTZ          selected for orbital group  2
 Library entry O      F aug-cc-pVTZ          selected for orbital group  2
 Library entry H      S aug-cc-pVTZ          selected for orbital group  3
 Library entry H      P aug-cc-pVTZ          selected for orbital group  3
 Library entry H      D aug-cc-pVTZ          selected for orbital group  3

1PROGRAM * SEWARD (Integral evaluation for generally contracted gaussian basis sets)     Author: Roland Lindh, 1990

 Geometry written to block  1 of record 700


 Point group  C2h 



 ATOMIC COORDINATES

 NR  ATOM    CHARGE       X              Y              Z

   1  C       6.00   -3.504041454   -0.833974873    0.000000000
   2  C       6.00    3.504041454    0.833974873    0.000000000
   3  O       8.00   -3.087432535    1.620007111    0.000000000
   4  O       8.00    3.087432535   -1.620007111    0.000000000
   5  O       8.00   -1.893730305   -2.483038566    0.000000000
   6  O       8.00    1.893730305    2.483038566    0.000000000
   7  H       1.00   -5.523867964   -1.279144383    0.000000000
   8  H       1.00    5.523867964    1.279144383    0.000000000
   9  H       1.00   -1.232334250    1.950488759    0.000000000
  10  H       1.00    1.232334250   -1.950488759    0.000000000

 Bond lengths in Bohr (Angstrom)

 1-3  2.489094327  1-5  2.304888947  1-7  2.068302449  2-4  2.489094327  2-6  2.304888947
     ( 1.317171989)     ( 1.219694700)     ( 1.094498517)     ( 1.317171989)     ( 1.219694700)

  2- 8  2.068302449   3- 9  1.884305645   4-10  1.884305645
       ( 1.094498517)       ( 0.997131602)       ( 0.997131602)

 Bond angles

  1- 3- 9  109.73630215   2- 4-10  109.73630215   3- 1- 5  126.04603450   3- 1- 7  112.06442533

  4-2-6  126.04603450   4-2-8  112.06442533   5-1-7  121.88954017   6-2-8  121.88954017

 NUCLEAR CHARGE:                   48
 NUMBER OF PRIMITIVE AOS:         510
 NUMBER OF SYMMETRY AOS:          448
 NUMBER OF CONTRACTIONS:          368   ( 122Ag  +  62Au  + 122Bu  +  62Bg  )
 NUMBER OF CORE ORBITALS:           6   (   3Ag  +   0Au  +   3Bu  +   0Bg  )
 NUMBER OF VALENCE ORBITALS:       28   (  11Ag  +   3Au  +  11Bu  +   3Bg  )


 NUCLEAR REPULSION ENERGY  235.55292632


 Eigenvalues of metric

         1 0.343E-04 0.628E-04 0.169E-03 0.231E-03 0.275E-03 0.338E-03 0.535E-03 0.640E-03
         2 0.246E-02 0.344E-02 0.570E-02 0.653E-02 0.119E-01 0.136E-01 0.206E-01 0.252E-01
         3 0.375E-04 0.560E-04 0.146E-03 0.225E-03 0.261E-03 0.380E-03 0.523E-03 0.658E-03
         4 0.272E-02 0.344E-02 0.466E-02 0.745E-02 0.106E-01 0.147E-01 0.168E-01 0.291E-01


 Contracted 2-electron integrals neglected if value below      1.0D-16
 AO integral compression algorithm  1   Integral accuracy      1.0D-16

     5705.826 MB (compressed) written to integral file (100.0%)

     Node minimum: 5705.826 MB, node maximum: 5705.826 MB


 NUMBER OF SORTED TWO-ELECTRON INTEGRALS:  587928924.     BUFFER LENGTH:  32768
 NUMBER OF SEGMENTS:  19  SEGMENT LENGTH:   31998802      RECORD LENGTH: 524288

 Memory used in sort:      32.56 MW

 SORT1 READ   705587392. AND WROTE   587927063. INTEGRALS IN   1691 RECORDS. CPU TIME:    12.43 SEC, REAL TIME:    24.13 SEC
 SORT2 READ   587927063. AND WROTE   587928924. INTEGRALS IN  21766 RECORDS. CPU TIME:     5.59 SEC, REAL TIME:    25.58 SEC

 FILE SIZES:   FILE 1:  4836.1 MBYTE,  FILE 4:  7092.6 MBYTE,   TOTAL:  11928.7 MBYTE

 OPERATOR DM      FOR CENTER  0  COORDINATES:    0.000000    0.000000    0.000000


 **********************************************************************************************************************************
 DATASETS  * FILE   NREC   LENGTH (MB)   RECORD NAMES
              1      19     4836.54       500      610      700      900      950      970     1000      129      960     1100   
                                          VAR    BASINP    GEOM    SYMINP    ZMAT    AOBASIS   BASIS     P2S    ABASIS      S 
                                         1400     1410     1200     1210     1080     1600     1650     1300     1700   
                                           T        V       H0       H01     AOSYM     SMH    MOLCAS    ERIS     OPER   

 PROGRAMS   *        TOTAL       INT
 CPU TIMES  *        56.21     56.17
 REAL TIME  *        91.38 SEC
 DISK USED  *        17.64 GB      
 GA USED    *         0.00 MB       (max)       0.00 MB       (current)
 **********************************************************************************************************************************

1PROGRAM * RHF-SCF (CLOSED SHELL)       Authors: W. Meyer, H.-J. Werner


 NUMBER OF ELECTRONS:      24+   24-
 CONVERGENCE THRESHOLDS:    1.00E-10 (Density)    1.00E-13 (Energy)
 MAX. NUMBER OF ITERATIONS:      200
 INTERPOLATION TYPE:            DIIS
 INTERPOLATION STEPS:              2 (START)      1 (STEP)
 LEVEL SHIFTS:                  0.00 (CLOSED)  0.00 (OPEN) 



 Orbital guess generated from atomic densities. Full valence occupancy:   14   3  14   3

 Molecular orbital dump at record        2100.2

 Initial alpha occupancy:  10   2  10   2
 Initial beta  occupancy:  10   2  10   2
 Wave function symmetry:    1

 ITERATION    DDIFF          GRAD             ENERGY        2-EL.EN.            DIPOLE MOMENTS         DIIS
    1      0.000D+00      0.000D+00      -377.56740089    747.101912    0.00000    0.00000    0.00000    0
    2      0.000D+00      0.610D-02      -377.65530979    743.985666    0.00000    0.00000    0.00000    1
    3      0.995D-02      0.398D-02      -377.70465036    746.343123    0.00000    0.00000    0.00000    2
    4      0.388D-02      0.534D-03      -377.70622535    745.988937    0.00000    0.00000    0.00000    3
    5      0.807D-03      0.235D-03      -377.70650825    746.029539    0.00000    0.00000    0.00000    4
    6      0.312D-03      0.680D-04      -377.70655591    746.075036    0.00000    0.00000    0.00000    5
    7      0.118D-03      0.294D-04      -377.70656699    746.056104    0.00000    0.00000    0.00000    6
    8      0.641D-04      0.958D-05      -377.70656838    746.062419    0.00000    0.00000    0.00000    7
    9      0.249D-04      0.310D-05      -377.70656850    746.061014    0.00000    0.00000    0.00000    8
   10      0.766D-05      0.902D-06      -377.70656852    746.061212    0.00000    0.00000    0.00000    8
   11      0.246D-05      0.286D-06      -377.70656852    746.061176    0.00000    0.00000    0.00000    8
   12      0.791D-06      0.520D-07      -377.70656852    746.061165    0.00000    0.00000    0.00000    8
   13      0.124D-06      0.186D-07      -377.70656852    746.061169    0.00000    0.00000    0.00000    8
   14      0.399D-07      0.492D-08      -377.70656852    746.061170    0.00000    0.00000    0.00000    7
   15      0.932D-08      0.156D-08      -377.70656852    746.061169    0.00000    0.00000    0.00000    7
   16      0.276D-08      0.691D-09      -377.70656852    746.061169    0.00000    0.00000    0.00000    8
   17      0.120D-08      0.220D-09      -377.70656852    746.061169    0.00000    0.00000    0.00000    8
   18      0.361D-09      0.562D-10      -377.70656852    746.061169    0.00000    0.00000    0.00000    8
   19      0.102D-09      0.235D-10      -377.70656852    746.061169    0.00000    0.00000    0.00000    8
   20      0.508D-10      0.108D-10      -377.70656852    746.061169    0.00000    0.00000    0.00000    0

 Final occupancy:  10   2  10   2

 !RHF STATE 1.1 Energy               -377.706568517683
 Nuclear energy                       235.55292632
 One-electron energy                 -986.29007945
 Two-electron energy                  373.03058461
 Virial quotient                       -1.00181530
 !RHF STATE 1.1 Dipole moment           0.00000000     0.00000000     0.00000000
 Dipole moment /Debye                   0.00000000     0.00000000     0.00000000

 Orbital energies:

         1.1          2.1          3.1          4.1          5.1          6.1          7.1          8.1          9.1         10.1
    -20.617088   -20.577362   -11.408830    -1.485474    -1.373885    -0.918937    -0.733814    -0.695978    -0.621822    -0.498237

        11.1         12.1
      0.029628     0.054795

         1.2          2.2          3.2          4.2
     -0.645486    -0.495977     0.066529     0.127762

         1.3          2.3          3.3          4.3          5.3          6.3          7.3          8.3          9.3         10.3
    -20.617087   -20.577363   -11.408830    -1.472632    -1.387981    -0.883027    -0.769787    -0.725002    -0.581101    -0.476033

        11.3         12.3
      0.033617     0.056885

         1.4          2.4          3.4          4.4
     -0.635103    -0.507621     0.082366     0.153444


 **********************************************************************************************************************************
 DATASETS  * FILE   NREC   LENGTH (MB)   RECORD NAMES
              1      19     4836.54       500      610      700      900      950      970     1000      129      960     1100   
                                          VAR    BASINP    GEOM    SYMINP    ZMAT    AOBASIS   BASIS     P2S    ABASIS      S 
                                         1400     1410     1200     1210     1080     1600     1650     1300     1700   
                                           T        V       H0       H01     AOSYM     SMH    MOLCAS    ERIS     OPER   

              2       3        1.23       700     1000     2100   
                                         GEOM     BASIS     RHF  

 PROGRAMS   *        TOTAL       RHF       INT
 CPU TIMES  *        90.24     34.03     56.17
 REAL TIME  *       133.11 SEC
 DISK USED  *        17.64 GB      
 GA USED    *         0.00 MB       (max)       0.00 MB       (current)
 **********************************************************************************************************************************


1PROGRAM * MP2 (Closed-shell)     Authors: C. Hampel, H.-J. Werner, 1991, M. Deegan, P.J. Knowles, 1992


 Convergence thresholds:  THRVAR = 1.00D-08  THRDEN = 1.00D-12

 Number of core orbitals:           6 (   3   0   3   0 )
 Number of closed-shell orbitals:  18 (   7   2   7   2 )
 Number of external orbitals:     344 ( 112  60 112  60 )

 Molecular orbitals read from record     2100.2  Type=RHF/CANONICAL (state 1.1)

 Number of N-1 electron functions:              18
 Number of N-2 electron functions:             171
 Number of singly external CSFs:              1808
 Number of doubly external CSFs:           4930904
 Total number of CSFs:                     4932713

 Length of J-op  integral file:               0.00 MB
 Length of K-op  integral file:               2.63 MB

 Integral transformation finished. Total CPU:   6.24 sec, npass=  1  Memory used:   6.50 MW

 Memory needed for MP2:                      0.19 MW

 SCS-MP2 correlation energy:           -1.263661391739   (PS=  1.200000  PT=  0.333333)
 SCS-MP2 total energy:               -378.970229909423


  Reference energy                   -377.706568517684
  MP2 singlet pair energy              -0.794018390257
  MP2 triplet pair energy              -0.499563198372
  MP2 correlation energy               -1.293581588629

 !MP2 total energy                   -379.000150106313


 **********************************************************************************************************************************
 DATASETS  * FILE   NREC   LENGTH (MB)   RECORD NAMES
              1      20     4910.02       500      610      700      900      950      970     1000      129      960     1100   
                                          VAR    BASINP    GEOM    SYMINP    ZMAT    AOBASIS   BASIS     P2S    ABASIS      S 
                                         1400     1410     1200     1210     1080     1600     1650     1300     1700     1380   
                                           T        V       H0       H01     AOSYM     SMH    MOLCAS    ERIS     OPER     JKOP   

              2       3        1.23       700     1000     2100   
                                         GEOM     BASIS     RHF  

 PROGRAMS   *        TOTAL       MP2       RHF       INT
 CPU TIMES  *        96.67      6.42     34.03     56.17
 REAL TIME  *       140.19 SEC
 DISK USED  *        17.64 GB      
 GA USED    *         0.00 MB       (max)       0.00 MB       (current)
 **********************************************************************************************************************************

        MP2             RHF-SCF 
   -379.00015011   -377.70656852
 **********************************************************************************************************************************
 Variable memory released
