
 Primary working directories    : /tmp/1059987.978.gen6.q
 Secondary working directories  : /tmp/1059987.978.gen6.q
 Wavefunction directory         : /home/vulcan/jj04645/wfu/
 Main file repository           : /tmp/1059987.978.gen6.q/

 ARCHNAME  : Linux/x86_64
 FC        : /opt/intel/compilers_and_libraries_2016.1.150/linux/bin/intel64/ifort
 FCVERSION : 16.0.1
 BLASLIB   : -mkl
 id        : ccgc

 Nodes     nprocs
 n082         1
 ga_uses_ma=false, calling ma_init with nominal heap.
 GA-space will be limited to   8.0 MW (determined by -G option)

 Using customized tuning parameters: mindgm=10; mindgv=16; mindgc=4; mindgr=1; noblas=0; mincuda=1000; minvec=7
 default implementation of scratch files=df  

 ***,Optimization of 1_4_cyclohexadiene
 memory,1000,m
 gthresh,energy=1.0d-12,orbital=1.0d-10,oneint=1.0d-16,twoint=1.0d-16,optgrad=1.0d-6,compress=1.0d-13
 geomtyp=xyz
 
 bohr
 geometry = {
  H    4.0938400750   -0.0000000000   -1.6534658623
  C    2.8410803611    0.0000000000   -0.0009040240
  C   -1.2651099693    2.3673544424   -0.0018991963
  C   -1.2651099693   -2.3673544424   -0.0018991963
  C   -2.8410803611   -0.0000000000    0.0009040240
  C    1.2651099693   -2.3673544424    0.0018991963
  C    1.2651099693    2.3673544424    0.0018991963
  H   -2.2684187569    4.1561079354   -0.0073110906
  H    2.2684187569    4.1561079354    0.0073110906
  H   -4.0997110410   -0.0000000000   -1.6471907371
  H    2.2684187569   -4.1561079354    0.0073110906
  H   -2.2684187569   -4.1561079354   -0.0073110906
  H    4.0997110410    0.0000000000    1.6471907371
  H   -4.0938400750    0.0000000000    1.6534658623
 }
 
 basis=VDZ
 {rhf;maxit,200}
 {ccsd(t);maxit,200}

 Variables initialized (661), CPU time= 0.01 sec
 Commands  initialized (458), CPU time= 0.00 sec, 486 directives.
 Default parameters read. Elapsed time= 0.05 sec

 Checking input...
 Passed
1


                                         ***  PROGRAM SYSTEM MOLPRO  ***
                         Copyright, University College Cardiff Consultants Limited, 2008

                                    Version 2010.1 linked May 16 2016 07:17:05


 **********************************************************************************************************************************
 LABEL *   Optimization of 1_4_cyclohexadiene                                            
 Linux-4.4.3/n082(x86_64) 64 bit mpp version                                             DATE: 06-May-24          TIME: 16:19:22  
 **********************************************************************************************************************************

 SHA1:             9e8077add272b0f3cad6f7df79ec5211205f459d
 **********************************************************************************************************************************

 THRESHOLDS:

 ZERO    =  1.00D-12  ONEINT  =  1.00D-16  TWOINT  =  1.00D-16  PREFAC  =  1.00D-14  LOCALI  =  1.00D-09  EORDER  =  1.00D-04
 ENERGY  =  1.00D-12  ETEST   =  0.00D+00  EDENS   =  0.00D+00  THRDEDEF=  1.00D-06  GRADIENT=  1.00D-02  STEP    =  1.00D-03
 ORBITAL =  1.00D-10  CIVEC   =  1.00D-05  COEFF   =  1.00D-04  PRINTCI =  5.00D-02  PUNCHCI =  9.90D+01  OPTGRAD =  1.00D-06
 OPTENERG=  1.00D-06  OPTSTEP =  3.00D-04  THRGRAD =  1.00D-10  COMPRESS=  1.00D-13  VARMIN  =  1.00D-07  VARMAX  =  1.00D-03
 THRDOUB =  0.00D+00  THRDIV  =  1.00D-05  THRRED  =  1.00D-07  THRPSP  =  1.00D+00  THRDC   =  1.00D-10  THRCS   =  1.00D-10
 THRNRM  =  1.00D-08  THREQ   =  0.00D+00  THRDE   =  1.00D+00  THRREF  =  1.00D-05  SPARFAC =  1.00D+00  THRDLP  =  1.00D-07
 THRDIA  =  1.00D-10  THRDLS  =  1.00D-07  THRGPS  =  0.00D+00  THRKEX  =  0.00D+00  THRDIS  =  2.00D-01  THRVAR  =  1.00D-10
 THRLOC  =  1.00D-06  THRGAP  =  1.00D-06  THRLOCT = -1.00D+00  THRGAPT = -1.00D+00  THRORB  =  1.00D-06  THRMLTP =  0.00D+00
 THRCPQCI=  1.00D-10  KEXTA   =  0.00D+00  THRCOARS=  0.00D+00  SYMTOL  =  1.00D-06  GRADTOL =  1.00D-06  THROVL  =  1.00D-08
 THRORTH =  1.00D-08  GRID    =  1.00D-06  GRIDMAX =  1.00D-03  DTMAX   =  0.00D+00

 SETTING GEOMTYP        =    XYZ
 ZUNIT=BOHR
 

 Variable memory set to 1000000000 words,  buffer space   230000 words

 SETTING BASIS          =    VDZ


 Recomputing integrals since basis changed


 Using spherical harmonics

 Library entry H      S cc-pVDZ              selected for orbital group  1
 Library entry H      P cc-pVDZ              selected for orbital group  1
 Library entry C      S cc-pVDZ              selected for orbital group  2
 Library entry C      P cc-pVDZ              selected for orbital group  2
 Library entry C      D cc-pVDZ              selected for orbital group  2

1PROGRAM * SEWARD (Integral evaluation for generally contracted gaussian basis sets)     Author: Roland Lindh, 1990

 Geometry written to block  1 of record 700


 Point group  C2h 



 ATOMIC COORDINATES

 NR  ATOM    CHARGE       X              Y              Z

   1  H       1.00    4.093840075    0.000000000   -1.653465862
   2  H       1.00   -4.093840075    0.000000000    1.653465862
   3  C       6.00    2.841080361    0.000000000   -0.000904024
   4  C       6.00   -2.841080361    0.000000000    0.000904024
   5  C       6.00   -1.265109969    2.367354442   -0.001899196
   6  C       6.00   -1.265109969   -2.367354442   -0.001899196
   7  C       6.00    1.265109969   -2.367354442    0.001899196
   8  C       6.00    1.265109969    2.367354442    0.001899196
   9  H       1.00   -2.268418757    4.156107935   -0.007311091
  10  H       1.00    2.268418757    4.156107935    0.007311091
  11  H       1.00    2.268418757   -4.156107935    0.007311091
  12  H       1.00   -2.268418757   -4.156107935   -0.007311091
  13  H       1.00   -4.099711041    0.000000000   -1.647190737
  14  H       1.00    4.099711041    0.000000000    1.647190737

 Bond lengths in Bohr (Angstrom)

  1- 3  2.073732753   2- 4  2.073732753   3- 7  2.843951053   3- 8  2.843951053   3-14  2.073732753
       ( 1.097372110)       ( 1.097372110)       ( 1.504954081)       ( 1.504954081)       ( 1.097372110)

  4- 5  2.843951053   4- 6  2.843951053   4-13  2.073732753   5- 8  2.530222790   5- 9  2.050925857
       ( 1.504954081)       ( 1.504954081)       ( 1.097372110)       ( 1.338936234)       ( 1.085303221)

  6- 7  2.530222790   6-12  2.050925857   7-11  2.050925857   8-10  2.050925857
       ( 1.338936234)       ( 1.085303221)       ( 1.085303221)       ( 1.085303221)

 Bond angles

  1- 3- 7  109.60605774   1- 3- 8  109.60605774   1- 3-14  105.46672912   2- 4- 5  109.60605774

  2- 4- 6  109.60605774   2- 4-13  105.46672912   3- 7- 6  123.65192096   3- 7-11  117.05997423

  3- 8- 5  123.65192096   3- 8-10  117.05997423   4- 5- 8  123.65192096   4- 5- 9  117.05997423

  4- 6- 7  123.65192096   4- 6-12  117.05997423   5- 4- 6  112.69574775   5- 4-13  109.60605775

  5- 8-10  119.28810481   6- 4-13  109.60605775   6- 7-11  119.28810481   7- 3- 8  112.69574775

  7- 3-14  109.60605775   7- 6-12  119.28810481   8- 3-14  109.60605775   8- 5- 9  119.28810481

 NUCLEAR CHARGE:                   44
 NUMBER OF PRIMITIVE AOS:         218
 NUMBER OF SYMMETRY AOS:          212
 NUMBER OF CONTRACTIONS:          124   (  37Ag  +  25Au  +  37Bu  +  25Bg  )
 NUMBER OF CORE ORBITALS:           6   (   2Ag  +   1Au  +   2Bu  +   1Bg  )
 NUMBER OF VALENCE ORBITALS:       32   (  10Ag  +   6Au  +  10Bu  +   6Bg  )


 NUCLEAR REPULSION ENERGY  217.77026823


 Eigenvalues of metric

         1 0.345E-02 0.183E-01 0.226E-01 0.275E-01 0.366E-01 0.392E-01 0.436E-01 0.767E-01
         2 0.563E-02 0.257E-01 0.360E-01 0.535E-01 0.990E-01 0.124E+00 0.132E+00 0.139E+00
         3 0.670E-03 0.315E-02 0.164E-01 0.259E-01 0.320E-01 0.356E-01 0.381E-01 0.456E-01
         4 0.169E-02 0.432E-02 0.143E-01 0.312E-01 0.605E-01 0.861E-01 0.102E+00 0.123E+00


 Contracted 2-electron integrals neglected if value below      1.0D-16
 AO integral compression algorithm  1   Integral accuracy      1.0D-16

     85.459 MB (compressed) written to integral file (100.0%)

     Node minimum: 85.459 MB, node maximum: 85.459 MB


 NUMBER OF SORTED TWO-ELECTRON INTEGRALS:    7708939.     BUFFER LENGTH:  32768
 NUMBER OF SEGMENTS:   1  SEGMENT LENGTH:    7708939      RECORD LENGTH: 524288

 Memory used in sort:       8.27 MW

 SORT1 READ    10470800. AND WROTE     7708939. INTEGRALS IN     23 RECORDS. CPU TIME:     0.16 SEC, REAL TIME:     0.20 SEC
 SORT2 READ     7708939. AND WROTE     7708939. INTEGRALS IN    326 RECORDS. CPU TIME:     0.13 SEC, REAL TIME:     0.17 SEC

 FILE SIZES:   FILE 1:    65.9 MBYTE,  FILE 4:    96.5 MBYTE,   TOTAL:    162.4 MBYTE

 OPERATOR DM      FOR CENTER  0  COORDINATES:    0.000000    0.000000    0.000000


 **********************************************************************************************************************************
 DATASETS  * FILE   NREC   LENGTH (MB)   RECORD NAMES
              1      19       65.98       500      610      700      900      950      970     1000      129      960     1100   
                                          VAR    BASINP    GEOM    SYMINP    ZMAT    AOBASIS   BASIS     P2S    ABASIS      S 
                                         1400     1410     1200     1210     1080     1600     1650     1300     1700   
                                           T        V       H0       H01     AOSYM     SMH    MOLCAS    ERIS     OPER   

 PROGRAMS   *        TOTAL       INT
 CPU TIMES  *         1.94      1.90
 REAL TIME  *         2.24 SEC
 DISK USED  *       248.83 MB      
 GA USED    *         0.00 MB       (max)       0.00 MB       (current)
 **********************************************************************************************************************************

1PROGRAM * RHF-SCF (CLOSED SHELL)       Authors: W. Meyer, H.-J. Werner


 NUMBER OF ELECTRONS:      22+   22-
 CONVERGENCE THRESHOLDS:    1.00E-10 (Density)    1.00E-13 (Energy)
 MAX. NUMBER OF ITERATIONS:      200
 INTERPOLATION TYPE:            DIIS
 INTERPOLATION STEPS:              2 (START)      1 (STEP)
 LEVEL SHIFTS:                  0.00 (CLOSED)  0.00 (OPEN) 



 Orbital guess generated from atomic densities. Full valence occupancy:   12   7  12   7

 Molecular orbital dump at record        2100.2

 Initial alpha occupancy:   7   4   7   4
 Initial beta  occupancy:   7   4   7   4
 Wave function symmetry:    1

 ITERATION    DDIFF          GRAD             ENERGY        2-EL.EN.            DIPOLE MOMENTS         DIIS
    1      0.000D+00      0.000D+00      -231.78153404    590.507790    0.00000    0.00000    0.00000    0
    2      0.000D+00      0.879D-02      -231.84387677    585.654978    0.00000    0.00000    0.00000    1
    3      0.179D-01      0.345D-02      -231.85142111    587.977692    0.00000    0.00000    0.00000    2
    4      0.661D-02      0.118D-02      -231.85266204    587.367497    0.00000    0.00000    0.00000    3
    5      0.245D-02      0.120D-03      -231.85268033    587.372558    0.00000    0.00000    0.00000    4
    6      0.451D-03      0.255D-04      -231.85268092    587.369477    0.00000    0.00000    0.00000    5
    7      0.629D-04      0.850D-05      -231.85268098    587.370518    0.00000    0.00000    0.00000    6
    8      0.244D-04      0.167D-05      -231.85268098    587.370400    0.00000    0.00000    0.00000    7
    9      0.576D-05      0.340D-06      -231.85268098    587.370439    0.00000    0.00000    0.00000    6
   10      0.128D-05      0.708D-07      -231.85268098    587.370432    0.00000    0.00000    0.00000    6
   11      0.272D-06      0.103D-07      -231.85268098    587.370435    0.00000    0.00000    0.00000    6
   12      0.302D-07      0.262D-08      -231.85268098    587.370433    0.00000    0.00000    0.00000    6
   13      0.798D-08      0.897D-09      -231.85268098    587.370434    0.00000    0.00000    0.00000    6
   14      0.213D-08      0.234D-09      -231.85268098    587.370434    0.00000    0.00000    0.00000    6
   15      0.699D-09      0.507D-10      -231.85268098    587.370434    0.00000    0.00000    0.00000    6
   16      0.116D-09      0.205D-10      -231.85268098    587.370434    0.00000    0.00000    0.00000    7
   17      0.505D-10      0.613D-11      -231.85268098    587.370434    0.00000    0.00000    0.00000    0

 Final occupancy:   7   4   7   4

 !RHF STATE 1.1 Energy               -231.852680984524
 Nuclear energy                       217.77026823
 One-electron energy                 -743.30816604
 Two-electron energy                  293.68521682
 Virial quotient                       -1.00115177
 !RHF STATE 1.1 Dipole moment           0.00000000     0.00000000     0.00000000
 Dipole moment /Debye                   0.00000000     0.00000000     0.00000000

 Orbital energies:

         1.1          2.1          3.1          4.1          5.1          6.1          7.1          8.1          9.1
    -11.233754   -11.229157    -1.122189    -0.861794    -0.678179    -0.562458    -0.490344     0.180782     0.193716

         1.2          2.2          3.2          4.2          5.2          6.2
    -11.229217    -1.008368    -0.597573    -0.561482     0.174463     0.223646

         1.3          2.3          3.3          4.3          5.3          6.3          7.3          8.3          9.3
    -11.233754   -11.227554    -1.004928    -0.654328    -0.595868    -0.531317    -0.329848     0.217664     0.256809

         1.4          2.4          3.4          4.4          5.4          6.4
    -11.227588    -0.784610    -0.445778    -0.358778     0.257962     0.428228


 **********************************************************************************************************************************
 DATASETS  * FILE   NREC   LENGTH (MB)   RECORD NAMES
              1      19       65.98       500      610      700      900      950      970     1000      129      960     1100   
                                          VAR    BASINP    GEOM    SYMINP    ZMAT    AOBASIS   BASIS     P2S    ABASIS      S 
                                         1400     1410     1200     1210     1080     1600     1650     1300     1700   
                                           T        V       H0       H01     AOSYM     SMH    MOLCAS    ERIS     OPER   

              2       3        0.58       700     1000     2100   
                                         GEOM     BASIS     RHF  

 PROGRAMS   *        TOTAL       RHF       INT
 CPU TIMES  *         2.25      0.31      1.90
 REAL TIME  *         2.63 SEC
 DISK USED  *       248.83 MB      
 GA USED    *         0.00 MB       (max)       0.00 MB       (current)
 **********************************************************************************************************************************


1PROGRAM * CCSD (Closed-shell coupled cluster)     Authors: C. Hampel, H.-J. Werner, 1991, M. Deegan, P.J. Knowles, 1992


 Convergence thresholds:  THRVAR = 1.00D-08  THRDEN = 1.00D-12

 CCSD(T)     terms to be evaluated (factor= 1.000)


 Number of core orbitals:           6 (   2   1   2   1 )
 Number of closed-shell orbitals:  16 (   5   3   5   3 )
 Number of external orbitals:     102 (  30  21  30  21 )

 Molecular orbitals read from record     2100.2  Type=RHF/CANONICAL (state 1.1)

 Number of N-1 electron functions:              16
 Number of N-2 electron functions:             136
 Number of singly external CSFs:               426
 Number of doubly external CSFs:            334392
 Total number of CSFs:                      334819

 Length of J-op  integral file:               0.00 MB
 Length of K-op  integral file:               0.31 MB
 Length of 3-ext integral record:             0.00 MB

 Memory could be reduced to 6.08 Mwords without degradation in triples

 Integral transformation finished. Total CPU:   0.15 sec, npass=  1  Memory used:   1.81 MW

 Reference energy:                   -231.85268098

 MP2 singlet pair energy:              -0.50639857
 MP2 triplet pair energy:              -0.29377514
 MP2 correlation energy:               -0.80017371
 MP2 total energy:                   -232.65285470

 SCS-MP2 correlation energy:           -0.79047171   (PS=  1.200000  PT=  0.333333)
 SCS-MP2 total energy:               -232.64315269

 ITER.      SQ.NORM     CORR.ENERGY   TOTAL ENERGY   ENERGY CHANGE        DEN1      VAR(S)    VAR(P)  DIIS     TIME
   1      1.31821272    -0.85462850  -232.70730948    -0.05445479    -0.03136274  0.31D-02  0.54D-02  1  1     0.48
   2      1.34641444    -0.86045595  -232.71313693    -0.00582745    -0.02421074  0.68D-04  0.70D-03  2  2     0.82
   3      1.35480044    -0.86076820  -232.71344918    -0.00031225    -0.00386551  0.20D-04  0.69D-04  3  3     1.16
   4      1.35834483    -0.86088920  -232.71357019    -0.00012101    -0.00107833  0.10D-05  0.68D-05  4  4     1.51
   5      1.35918018    -0.86090104  -232.71358202    -0.00001184    -0.00017821  0.50D-07  0.65D-06  5  5     1.85
   6      1.35933767    -0.86089338  -232.71357436     0.00000766    -0.00002581  0.49D-08  0.36D-07  6  6     2.20
   7      1.35935310    -0.86089404  -232.71357503    -0.00000067     0.00000108  0.17D-08  0.32D-08  6  2     2.54
   8      1.35935776    -0.86089391  -232.71357489     0.00000014    -0.00000094  0.56D-10  0.35D-09  6  1     2.88
   9      1.35935780    -0.86089398  -232.71357496    -0.00000007     0.00000044  0.18D-10  0.52D-10  6  3     3.23
  10      1.35935773    -0.86089401  -232.71357500    -0.00000004     0.00000017  0.80D-12  0.82D-11  6  4     3.58
  11      1.35935718    -0.86089404  -232.71357503    -0.00000003     0.00000022  0.84D-13  0.11D-11  6  6     3.92
  12      1.35935707    -0.86089405  -232.71357504    -0.00000001     0.00000005  0.19D-13  0.98D-13  6  5     4.27
  13      1.35935706    -0.86089405  -232.71357504     0.00000000    -0.00000000  0.76D-14  0.15D-13  6  2     4.62
  14      1.35935709    -0.86089405  -232.71357503     0.00000000    -0.00000001  0.55D-15  0.13D-14  6  1     4.96
  15      1.35935709    -0.86089405  -232.71357503     0.00000000    -0.00000000  0.17D-15  0.15D-15  6  3     5.30
  16      1.35935709    -0.86089405  -232.71357503     0.00000000    -0.00000000  0.19D-16  0.24D-16  6  4     5.64
  17      1.35935709    -0.86089405  -232.71357503    -0.00000000     0.00000000  0.34D-17  0.38D-17  6  6     5.98
  18      1.35935709    -0.86089405  -232.71357503    -0.00000000     0.00000000  0.23D-18  0.65D-18  6  5     6.33
  19      1.35935709    -0.86089405  -232.71357503     0.00000000     0.00000000  0.29D-19  0.15D-18  6  2     6.67
  20      1.35935709    -0.86089405  -232.71357503     0.00000000    -0.00000000  0.66D-21  0.26D-19  6  1     7.01
  21      1.35935709    -0.86089405  -232.71357503     0.00000000    -0.00000000  0.14D-21  0.18D-20  6  4     7.36
  22      1.35935709    -0.86089405  -232.71357503     0.00000000    -0.00000000  0.16D-22  0.84D-22  6  3     7.71

 Norm of t1 vector:      0.07884282      S-energy:     0.00000000      T1 diagnostic:  0.00985535
                                                                       D1 diagnostic:  0.02885361

 Doubles amplitudes (print threshold =  0.500E-01):

         I         J         SYM. A    SYM. B    A         B      T(IJ, AB)

        13        13         1         1         2         2     -0.05811723
        16        16         2         2         1         1     -0.07472753
        16        13         2         1         1         2     -0.06111260


 Total CPU time for triples:      6.13 sec


 RESULTS
 =======

  Reference energy                   -231.852680984524
  CCSD singlet pair energy             -0.593577951162
  CCSD triplet pair energy             -0.267316098644
  CCSD correlation energy              -0.860894049805

  Triples (T) contribution             -0.032223800042
  Total correlation energy             -0.893117849848

  CCSD total energy                  -232.713575034329
  CCSD[T] energy                     -232.746531972248
  CCSD-T energy                      -232.745480134633
 !CCSD(T) total energy               -232.745798834371

 Timing summary (sec):

 STEP                 CPU(USER)    SYS     CPU(TOT)    WALL
 Transformation          0.15      0.04      0.19      0.19
 CCSD iterations         7.56      0.40      7.96      8.01
 Triples                 6.13      0.19      6.32      6.32

 Program statistics:

 Available memory in ccsd:               999998876
 Min. memory needed in ccsd:                897719
 Max. memory used in ccsd:                 1198177
 Max. memory used in cckext:               1174639 (22 integral passes)



 **********************************************************************************************************************************
 DATASETS  * FILE   NREC   LENGTH (MB)   RECORD NAMES
              1      20       89.71       500      610      700      900      950      970     1000      129      960     1100   
                                          VAR    BASINP    GEOM    SYMINP    ZMAT    AOBASIS   BASIS     P2S    ABASIS      S 
                                         1400     1410     1200     1210     1080     1600     1650     1300     1700     1380   
                                           T        V       H0       H01     AOSYM     SMH    MOLCAS    ERIS     OPER     JKOP   

              2       3        0.58       700     1000     2100   
                                         GEOM     BASIS     RHF  

 PROGRAMS   *        TOTAL   CCSD(T)       RHF       INT
 CPU TIMES  *        16.10     13.85      0.31      1.90
 REAL TIME  *        17.18 SEC
 DISK USED  *       248.83 MB      
 GA USED    *         0.00 MB       (max)       0.00 MB       (current)
 **********************************************************************************************************************************

        CCSD(T)         RHF-SCF 
   -232.74579883   -231.85268098
 **********************************************************************************************************************************
 Variable memory released
