
    -----------------------------------------------------------------------
          Psi4: An Open-Source Ab Initio Electronic Structure Package
                               Psi4 1.4a2.dev629 

                         Git: Rev {master} 2938fc2 dirty


    D. G. A. Smith, L. A. Burns, A. C. Simmonett, R. M. Parrish,
    M. C. Schieber, R. Galvelis, P. Kraus, H. Kruse, R. Di Remigio,
    A. Alenaizan, A. M. James, S. Lehtola, J. P. Misiewicz, M. Scheurer,
    R. A. Shaw, J. B. Schriber, Y. Xie, Z. L. Glick, D. A. Sirianni,
    J. S. O'Brien, J. M. Waldrop, A. Kumar, E. G. Hohenstein,
    B. P. Pritchard, B. R. Brooks, H. F. Schaefer III, A. Yu. Sokolov,
    K. Patkowski, A. E. DePrince III, U. Bozkaya, R. A. King,
    F. A. Evangelista, J. M. Turney, T. D. Crawford, C. D. Sherrill,
    J. Chem. Phys. 152(18) 184108 (2020). https://doi.org/10.1063/5.0006002

                            Additional Code Authors
    E. T. Seidl, C. L. Janssen, E. F. Valeev, M. L. Leininger,
    J. F. Gonthier, R. M. Richard, H. R. McAlexander, M. Saitow, X. Wang,
    P. Verma, and M. H. Lechner

             Previous Authors, Complete List of Code Contributors,
                       and Citations for Specific Modules
    https://github.com/psi4/psi4/blob/master/codemeta.json
    https://github.com/psi4/psi4/graphs/contributors
    http://psicode.org/psi4manual/master/introduction.html#citing-psifour

    -----------------------------------------------------------------------


    Psi4 started on: Sunday, 14 November 2021 12:46PM

    Process ID: 84591
    Host:       n073
    PSIDATADIR: /opt/psi/4/master/share/psi4
    Memory:     500.0 MiB
    Threads:    4
    
  ==> Input File <==

--------------------------------------------------------------------------
import os
memory 14 GB 
 
molecule {
 C   -2.1449931129   -0.0000000098    0.5937957138
 C    2.1466444276    0.0000000102    0.5956517546
 C   -0.0024050296   -1.4197008296   -0.6020702502
 C   -0.0024050297    1.4197008291   -0.6020702498
 H   -0.0039828511   -2.6813968992   -2.1911887290
 H   -0.0039829511    2.6813968975   -2.1911887273
 H   -2.3035591134   -0.0000000098    2.6435358934
 H   -3.9293077960   -0.0000000094   -0.4085849454
 H    2.3100720287    0.0000000103    2.6528147007
 H    3.9339194277    0.0000000106   -0.4057065408
units bohr
}

basis {

assign 6-31g_2dfp_

[ 6-31g_2dfp_ ]

spherical

!----------------------------------------------------------------------
! Basis Set Exchange
! Version v0.8.13
! https://www.basissetexchange.org
!----------------------------------------------------------------------
!   Basis set: 6-31G(2df,p)
! Description: 6-31G(2df,p)
!        Role: orbital
!     Version: 0  (Data from the original Basis Set Exchange)
!----------------------------------------------------------------------


****
H     0
S    3   1.00
     18.7311370              0.03349460
      2.8253937              0.23472695
      0.6401217              0.81375733
S    1   1.00
      0.1612778              1.00000000
P    1   1.00
      1.5000000              1.0000000
P    1   1.00
      0.3750000              1.0000000
****
B     0
S    6   1.00
   2068.8823000              0.0018663
    310.6495700              0.0142515
     70.6830330              0.0695516
     19.8610800              0.2325729
      6.2993048              0.4670787
      2.1270270              0.3634314
SP   3   1.00
      4.7279710             -0.1303938              0.0745976
      1.1903377             -0.1307889              0.3078467
      0.3594117              1.1309444              0.7434568
SP   1   1.00
      0.1267512              1.0000000              1.0000000
D    1   1.00
      0.8020000              1.0000000
D    1   1.00
      0.2005000              1.0000000
F    1   1.00
      0.5000000              1.0000000
****
C     0
S    6   1.00
   3047.5249000              0.0018347
    457.3695100              0.0140373
    103.9486900              0.0688426
     29.2101550              0.2321844
      9.2866630              0.4679413
      3.1639270              0.3623120
SP   3   1.00
      7.8682724             -0.1193324              0.0689991
      1.8812885             -0.1608542              0.3164240
      0.5442493              1.1434564              0.7443083
SP   1   1.00
      0.1687144              1.0000000              1.0000000
D    1   1.00
      1.2520000              1.0000000
D    1   1.00
      0.3130000              1.0000000
F    1   1.00
      0.8000000              1.0000000
****
N     0
S    6   1.00
   4173.5110000              0.0018348
    627.4579000              0.0139950
    142.9021000              0.0685870
     40.2343300              0.2322410
     12.8202100              0.4690700
      4.3904370              0.3604550
SP   3   1.00
     11.6263580             -0.1149610              0.0675800
      2.7162800             -0.1691180              0.3239070
      0.7722180              1.1458520              0.7408950
SP   1   1.00
      0.2120313              1.0000000              1.0000000
D    1   1.00
      1.8260000              1.0000000
D    1   1.00
      0.4565000              1.0000000
F    1   1.00
      1.0000000              1.0000000
****
O     0
S    6   1.00
   5484.6717000              0.0018311
    825.2349500              0.0139501
    188.0469600              0.0684451
     52.9645000              0.2327143
     16.8975700              0.4701930
      5.7996353              0.3585209
SP   3   1.00
     15.5396160             -0.1107775              0.0708743
      3.5999336             -0.1480263              0.3397528
      1.0137618              1.1307670              0.7271586
SP   1   1.00
      0.2700058              1.0000000              1.0000000
D    1   1.00
      2.5840000              1.0000000
D    1   1.00
      0.6460000              1.0000000
F    1   1.00
      1.4000000              1.0000000
****
F     0
S    6   1.00
   7001.7130900              0.0018196169
   1051.3660900              0.0139160796
    239.2856900              0.0684053245
     67.3974453              0.233185760
     21.5199573              0.471267439
      7.40310130             0.356618546
SP   3   1.00
     20.8479528             -0.108506975            0.0716287243
      4.80830834            -0.146451658            0.3459121030
      1.34406986             1.128688580            0.7224699570
SP   1   1.00
      0.358151393            1.0000000              1.0000000
D    1   1.00
      3.5000000              1.0000000
D    1   1.00
      0.8750000              1.0000000
F    1   1.00
      1.8500000              1.0000000
****
Al     0
S    6   1.00
  13983.1000000              0.00194267
   2098.7500000              0.0148599
    477.7050000              0.0728494
    134.3600000              0.2468300
     42.8709000              0.4872580
     14.5189000              0.3234960
SP   6   1.00
    239.6680000             -0.00292619             0.00460285
     57.4419000             -0.0374080              0.0331990
     18.2859000             -0.1144870              0.1362820
      6.5991400              0.1156350              0.3304760
      2.4904900              0.6125950              0.4491460
      0.9445400              0.3937990              0.2657040
SP   3   1.00
      1.2779000             -0.2276060             -0.0175130
      0.3975900              0.00144583             0.2445330
      0.1600950              1.0927900              0.8049340
SP   1   1.00
      0.0556577              1.0000000              1.0000000
D    1   1.00
      0.6500000              1.0000000
D    1   1.00
      0.1625000              1.0000000
F    1   1.00
      0.2500000              1.0000000
****
Si     0
S    6   1.00
  16115.9000000              0.00195948
   2425.5800000              0.01492880
    553.8670000              0.07284780
    156.3400000              0.24613000
     50.0683000              0.48591400
     17.0178000              0.32500200
SP   6   1.00
    292.7180000             -0.00278094             0.00443826
     69.8731000             -0.03571460             0.03266790
     22.3363000             -0.11498500             0.13472100
      8.1503900              0.09356340             0.32867800
      3.1345800              0.60301700             0.44964000
      1.2254300              0.41895900             0.26137200
SP   3   1.00
      1.7273800             -0.24463000            -0.01779510
      0.5729220              0.00431572             0.25353900
      0.2221920              1.09818000             0.80066900
SP   1   1.00
      0.0778369              1.00000000             1.00000000
D    1   1.00
      0.9000000              1.0000000
D    1   1.00
      0.2250000              1.0000000
F    1   1.00
      0.3200000              1.0000000
****
P     0
S    6   1.00
  19413.3000000              0.0018516
   2909.4200000              0.0142062
    661.3640000              0.0699995
    185.7590000              0.2400790
     59.1943000              0.4847620
     20.0310000              0.3352000
SP   6   1.00
    339.4780000             -0.00278217             0.00456462
     81.0101000             -0.0360499              0.03369360
     25.8780000             -0.1166310              0.13975500
      9.4522100              0.0968328              0.33936200
      3.6656600              0.6144180              0.45092100
      1.4674600              0.4037980              0.23858600
SP   3   1.00
      2.1562300             -0.2529230             -0.01776530
      0.7489970              0.0328517              0.27405800
      0.2831450              1.0812500              0.78542100
SP   1   1.00
      0.0998317              1.0000000              1.00000000
D    1   1.00
      1.1000000              1.0000000
D    1   1.00
      0.2750000              1.0000000
F    1   1.00
      0.4500000              1.0000000
****
S     0
S    6   1.00
  21917.1000000              0.0018690
   3301.4900000              0.0142300
    754.1460000              0.0696960
    212.7110000              0.2384870
     67.9896000              0.4833070
     23.0515000              0.3380740
SP   6   1.00
    423.7350000             -0.0023767              0.0040610
    100.7100000             -0.0316930              0.0306810
     32.1599000             -0.1133170              0.1304520
     11.8079000              0.0560900              0.3272050
      4.6311000              0.5922550              0.4528510
      1.8702500              0.4550060              0.2560420
SP   3   1.00
      2.6158400             -0.2503740             -0.0145110
      0.9221670              0.0669570              0.3102630
      0.3412870              1.0545100              0.7544830
SP   1   1.00
      0.1171670              1.0000000              1.0000000
D    1   1.00
      1.3000000              1.0000000
D    1   1.00
      0.3250000              1.0000000
F    1   1.00
      0.5500000              1.0000000
****
Cl     0
S    6   1.00
  25180.1000000              0.0018330
   3780.3500000              0.0140340
    860.4740000              0.0690970
    242.1450000              0.2374520
     77.3349000              0.4830340
     26.2470000              0.3398560
SP   6   1.00
    491.7650000             -0.0022974              0.0039894
    116.9840000             -0.0307140              0.0303180
     37.4153000             -0.1125280              0.1298800
     13.7834000              0.0450160              0.3279510
      5.4521500              0.5893530              0.4535270
      2.2258800              0.4652060              0.2521540
SP   3   1.00
      3.1864900             -0.2518300             -0.0142990
      1.1442700              0.0615890              0.3235720
      0.4203770              1.0601800              0.7435070
SP   1   1.00
      0.1426570              1.0000000              1.0000000
D    1   1.00
      1.5000000              1.0000000
D    1   1.00
      0.3750000              1.0000000
F    1   1.00
      0.7000000              1.0000000
****
}


set {
reference rhf                          
freeze_core true
e_convergence 10                       
d_convergence 10                      
dft_spherical_points 1202
dft_radial_points 99
}

e = energy('b3lyp')

print_out('Grab this energy {0}'.format(e))
--------------------------------------------------------------------------

  Memory set to  13.039 GiB by Python driver.

Scratch directory: /tmp/

*** tstart() called on n073
*** at Sun Nov 14 12:46:32 2021

   => Loading Basis Set <=

    Name: ANONYMOUS0802602C
    Role: ORBITAL
    Keyword: BASIS
    atoms 1-4  entry C          line    48 inputblock 6-31g_2dfp_ 
    atoms 5-10 entry H          line    15 inputblock 6-31g_2dfp_ 


         ---------------------------------------------------------
                                   SCF
               by Justin Turney, Rob Parrish, Andy Simmonett
                          and Daniel G. A. Smith
                              RKS Reference
                        4 Threads,  13351 MiB Core
         ---------------------------------------------------------

  ==> Geometry <==

    Molecular point group: c1
    Full point group: C1

    Geometry (in Bohr), charge = 0, multiplicity = 1:

       Center              X                  Y                   Z               Mass       
    ------------   -----------------  -----------------  -----------------  -----------------
         C           -2.144350681218    -0.000000009778     0.595199210486    12.000000000000
         C            2.147286859282     0.000000010222     0.597055251286    12.000000000000
         C           -0.001762597918    -1.419700829578    -0.600666753514    12.000000000000
         C           -0.001762598018     1.419700829122    -0.600666753114    12.000000000000
         H           -0.003340419418    -2.681396899178    -2.189785232314     1.007825032230
         H           -0.003340519418     2.681396897522    -2.189785230614     1.007825032230
         H           -2.302916681718    -0.000000009778     2.644939390086     1.007825032230
         H           -3.928665364318    -0.000000009378    -0.407181448714     1.007825032230
         H            2.310714460382     0.000000010322     2.654218197386     1.007825032230
         H            3.934561859382     0.000000010622    -0.404303044114     1.007825032230

  Running in c1 symmetry.

  Rotational constants: A =      0.57773  B =      0.31074  C =      0.27966 [cm^-1]
  Rotational constants: A =  17319.80992  B =   9315.85229  C =   8384.08359 [MHz]
  Nuclear repulsion =  116.222781821663034

  Charge       = 0
  Multiplicity = 1
  Electrons    = 30
  Nalpha       = 15
  Nbeta        = 15

  ==> Algorithm <==

  SCF Algorithm Type is DF.
  DIIS enabled.
  MOM disabled.
  Fractional occupation disabled.
  Guess Type is SAD.
  Energy threshold   = 1.00e-10
  Density threshold  = 1.00e-10
  Integral threshold = 0.00e+00

  ==> Primary Basis <==

  Basis Set: ANONYMOUS0802602C
    Blend: 6-31G_2DFP_
    Number of shells: 56
    Number of basis function: 152
    Number of Cartesian functions: 172
    Spherical Harmonics?: true
    Max angular momentum: 3

  ==> DFT Potential <==

   => Composite Functional: B3LYP <= 

    B3LYP Hyb-GGA Exchange-Correlation Functional

    P. J. Stephens, F. J. Devlin, C. F. Chabalowski, and M. J. Frisch, J. Phys. Chem. 98, 11623 (1994)

    Deriv               =              1
    GGA                 =           TRUE
    Meta                =          FALSE

    Exchange Hybrid     =           TRUE
    MP2 Hybrid          =          FALSE

   => Exchange Functionals <=

    0.0800   Slater exchange
    0.7200         Becke 88

   => Exact (HF) Exchange <=

    0.2000               HF 

   => Correlation Functionals <=

    0.1900   Vosko, Wilk & Nusair (VWN5_RPA)
    0.8100   Lee, Yang & Parr

   => Molecular Quadrature <=

    Radial Scheme          =       TREUTLER
    Pruning Scheme         =           NONE
    Nuclear Scheme         =       TREUTLER

    BS radius alpha        =              1
    Pruning alpha          =              1
    Radial Points          =             99
    Spherical Points       =           1202
    Total Points           =        1110308
    Total Blocks           =           7411
    Max Points             =            256
    Max Functions          =            152
    Weights Tolerance      =       1.00E-15

   => Loading Basis Set <=

    Name: (ANONYMOUS0802602C AUX)
    Role: JKFIT
    Keyword: DF_BASIS_SCF
    atoms 1-4  entry C          line   198 file /opt/psi/4/master/share/psi4/basis/def2-universal-jkfit.gbs 
    atoms 5-10 entry H          line    18 file /opt/psi/4/master/share/psi4/basis/def2-universal-jkfit.gbs 

  ==> Integral Setup <==

  DFHelper Memory: AOs need 0.077 GiB; user supplied 5.515 GiB. Using in-core AOs.

  ==> MemDFJK: Density-Fitted J/K Matrices <==

    J tasked:                   Yes
    K tasked:                   Yes
    wK tasked:                   No
    OpenMP threads:               4
    Memory [MiB]:              5647
    Algorithm:                 Core
    Schwarz Cutoff:           1E-12
    Mask sparsity (%):       0.3289
    Fitting Condition:        1E-10

   => Auxiliary Basis Set <=

  Basis Set: (ANONYMOUS0802602C AUX)
    Blend: DEF2-UNIVERSAL-JKFIT
    Number of shells: 136
    Number of basis function: 408
    Number of Cartesian functions: 476
    Spherical Harmonics?: true
    Max angular momentum: 4

  Cached 100.0% of DFT collocation blocks in 4.264 [GiB].

  Minimum eigenvalue in the overlap matrix is 9.3805449034E-04.
  Reciprocal condition number of the overlap matrix is 1.4473581142E-04.
    Using symmetric orthogonalization.

  ==> Pre-Iterations <==

  SCF Guess: Superposition of Atomic Densities via on-the-fly atomic UHF (no occupation information).

   -------------------------
    Irrep   Nso     Nmo    
   -------------------------
     A        152     152 
   -------------------------
    Total     152     152
   -------------------------

  ==> Iterations <==

                           Total Energy        Delta E     RMS |[F,P]|

   @DF-RKS iter SAD:  -155.76918561407808   -1.55769e+02   0.00000e+00 
   @DF-RKS iter   1:  -155.67608083057809    9.31048e-02   4.70040e-03 DIIS
   @DF-RKS iter   2:  -155.51501928722908    1.61062e-01   6.00913e-03 DIIS
   @DF-RKS iter   3:  -155.95972407927965   -4.44705e-01   2.71626e-04 DIIS
   @DF-RKS iter   4:  -155.96027310141875   -5.49022e-04   1.34168e-04 DIIS
   @DF-RKS iter   5:  -155.96045020726339   -1.77106e-04   4.75187e-05 DIIS
   @DF-RKS iter   6:  -155.96047530670936   -2.50994e-05   6.35512e-06 DIIS
   @DF-RKS iter   7:  -155.96047580532897   -4.98620e-07   1.04164e-06 DIIS
   @DF-RKS iter   8:  -155.96047581867870   -1.33497e-08   1.15851e-07 DIIS
   @DF-RKS iter   9:  -155.96047581878014   -1.01437e-10   7.35012e-08 DIIS
   @DF-RKS iter  10:  -155.96047581884136   -6.12204e-11   1.40784e-08 DIIS
   @DF-RKS iter  11:  -155.96047581884366   -2.30216e-12   8.06583e-10 DIIS
   @DF-RKS iter  12:  -155.96047581884361    5.68434e-14   8.72267e-11 DIIS
  Energy and wave function converged.


  ==> Post-Iterations <==

    Orbital Energies [Eh]
    ---------------------

    Doubly Occupied:                                                      

       1A    -10.190445     2A    -10.190165     3A    -10.189993  
       4A    -10.189452     5A     -0.911755     6A     -0.680923  
       7A     -0.571608     8A     -0.569259     9A     -0.511721  
      10A     -0.425915    11A     -0.419320    12A     -0.363626  
      13A     -0.321672    14A     -0.307151    15A     -0.237812  

    Virtual:                                                              

      16A      0.091489    17A      0.096883    18A      0.118855  
      19A      0.132002    20A      0.144165    21A      0.174090  
      22A      0.185955    23A      0.186565    24A      0.240986  
      25A      0.249019    26A      0.256542    27A      0.392042  
      28A      0.416009    29A      0.439889    30A      0.454334  
      31A      0.455480    32A      0.472440    33A      0.500300  
      34A      0.509591    35A      0.545500    36A      0.550606  
      37A      0.559659    38A      0.582879    39A      0.624501  
      40A      0.643390    41A      0.647775    42A      0.650713  
      43A      0.651773    44A      0.661525    45A      0.668661  
      46A      0.812732    47A      0.837137    48A      0.858336  
      49A      0.894658    50A      0.922220    51A      0.933520  
      52A      0.976694    53A      0.996841    54A      1.092513  
      55A      1.092759    56A      1.103553    57A      1.118811  
      58A      1.168121    59A      1.181366    60A      1.195887  
      61A      1.214501    62A      1.222491    63A      1.226130  
      64A      1.294175    65A      1.300161    66A      1.346891  
      67A      1.351629    68A      1.371402    69A      1.410297  
      70A      1.419151    71A      1.459483    72A      1.520242  
      73A      1.522229    74A      1.588917    75A      1.599170  
      76A      1.629179    77A      1.635404    78A      1.690325  
      79A      1.762462    80A      1.865466    81A      1.925489  
      82A      2.044904    83A      2.162192    84A      2.180909  
      85A      2.231837    86A      2.483453    87A      2.491295  
      88A      2.738133    89A      2.750099    90A      2.823318  
      91A      2.831067    92A      2.839264    93A      2.881299  
      94A      2.884673    95A      2.917539    96A      2.963556  
      97A      3.031232    98A      3.047404    99A      3.061745  
     100A      3.103775   101A      3.178933   102A      3.192222  
     103A      3.223177   104A      3.300335   105A      3.382598  
     106A      3.387341   107A      3.418775   108A      3.427798  
     109A      3.457814   110A      3.515551   111A      3.522854  
     112A      3.541758   113A      3.543636   114A      3.562969  
     115A      3.664840   116A      3.668061   117A      3.690979  
     118A      3.765562   119A      3.786129   120A      3.818426  
     121A      3.903777   122A      3.926492   123A      3.967047  
     124A      3.982600   125A      3.998016   126A      4.078796  
     127A      4.087700   128A      4.159607   129A      4.174740  
     130A      4.218828   131A      4.267442   132A      4.320281  
     133A      4.324566   134A      4.325911   135A      4.334641  
     136A      4.335846   137A      4.433939   138A      4.596662  
     139A      4.600405   140A      4.617364   141A      4.713701  
     142A      4.744860   143A      4.807850   144A      4.974649  
     145A      5.013300   146A      5.080867   147A      5.121016  
     148A      5.146268   149A      5.274389   150A      5.322235  
     151A      5.352161   152A      5.388977  

    Final Occupation by Irrep:
              A 
    DOCC [    15 ]

  @DF-RKS Final Energy:  -155.96047581884361

   => Energetics <=

    Nuclear Repulsion Energy =            116.2227818216630340
    One-Electron Energy =                -438.2596822204608884
    Two-Electron Energy =                 185.4737123400255712
    DFT Exchange-Correlation Energy =     -19.3972877600713218
    Empirical Dispersion Energy =           0.0000000000000000
    VV10 Nonlocal Energy =                  0.0000000000000000
    Total Energy =                       -155.9604758188436051

Computation Completed


Properties will be evaluated at   0.000000,   0.000000,   0.000000 [a0]

Properties computed using the SCF density matrix

  Nuclear Dipole Moment: [e a0]
     X:     0.0035      Y:     0.0000      Z:     0.0536

  Electronic Dipole Moment: [e a0]
     X:    -0.0048      Y:     0.0000      Z:    -0.3189

  Dipole Moment: [e a0]
     X:    -0.0013      Y:     0.0000      Z:    -0.2653     Total:     0.2653

  Dipole Moment: [D]
     X:    -0.0033      Y:     0.0000      Z:    -0.6743     Total:     0.6743


*** tstop() called on n073 at Sun Nov 14 12:46:52 2021
Module time:
	user time   =      76.74 seconds =       1.28 minutes
	system time =       1.46 seconds =       0.02 minutes
	total time  =         20 seconds =       0.33 minutes
Total time:
	user time   =      76.74 seconds =       1.28 minutes
	system time =       1.46 seconds =       0.02 minutes
	total time  =         20 seconds =       0.33 minutes
Grab this energy -155.9604758188436
    Psi4 stopped on: Sunday, 14 November 2021 12:46PM
    Psi4 wall time for execution: 0:00:20.18

*** Psi4 exiting successfully. Buy a developer a beer!
