
    -----------------------------------------------------------------------
          Psi4: An Open-Source Ab Initio Electronic Structure Package
                               Psi4 1.4a2.dev629 

                         Git: Rev {master} 2938fc2 dirty


    D. G. A. Smith, L. A. Burns, A. C. Simmonett, R. M. Parrish,
    M. C. Schieber, R. Galvelis, P. Kraus, H. Kruse, R. Di Remigio,
    A. Alenaizan, A. M. James, S. Lehtola, J. P. Misiewicz, M. Scheurer,
    R. A. Shaw, J. B. Schriber, Y. Xie, Z. L. Glick, D. A. Sirianni,
    J. S. O'Brien, J. M. Waldrop, A. Kumar, E. G. Hohenstein,
    B. P. Pritchard, B. R. Brooks, H. F. Schaefer III, A. Yu. Sokolov,
    K. Patkowski, A. E. DePrince III, U. Bozkaya, R. A. King,
    F. A. Evangelista, J. M. Turney, T. D. Crawford, C. D. Sherrill,
    J. Chem. Phys. 152(18) 184108 (2020). https://doi.org/10.1063/5.0006002

                            Additional Code Authors
    E. T. Seidl, C. L. Janssen, E. F. Valeev, M. L. Leininger,
    J. F. Gonthier, R. M. Richard, H. R. McAlexander, M. Saitow, X. Wang,
    P. Verma, and M. H. Lechner

             Previous Authors, Complete List of Code Contributors,
                       and Citations for Specific Modules
    https://github.com/psi4/psi4/blob/master/codemeta.json
    https://github.com/psi4/psi4/graphs/contributors
    http://psicode.org/psi4manual/master/introduction.html#citing-psifour

    -----------------------------------------------------------------------


    Psi4 started on: Sunday, 14 November 2021 12:39PM

    Process ID: 4837
    Host:       n032
    PSIDATADIR: /opt/psi/4/master/share/psi4
    Memory:     500.0 MiB
    Threads:    4
    
  ==> Input File <==

--------------------------------------------------------------------------
import os
memory 14 GB 
 
molecule {
 C   -2.1449023276   -0.0000000100    0.5928921343
 C    2.1467336674    0.0000000100    0.5965575107
 C    0.0000545546   -1.4197011144   -0.6020703694
 C    0.0000545545    1.4197011144   -0.6020703693
 H   -0.0003314632   -2.6813969152   -2.1911897969
 H   -0.0003315632    2.6813969152   -2.1911897969
 H   -2.3070706954   -0.0000000101    2.6483736384
 H   -3.9319897811   -0.0000000100   -0.4064442663
 H    2.3065544174    0.0000000100    2.6479812016
 H    3.9312286367    0.0000000099   -0.4078512661
units bohr
}

basis {

assign 6-31g_2dfp_

[ 6-31g_2dfp_ ]

spherical

!----------------------------------------------------------------------
! Basis Set Exchange
! Version v0.8.13
! https://www.basissetexchange.org
!----------------------------------------------------------------------
!   Basis set: 6-31G(2df,p)
! Description: 6-31G(2df,p)
!        Role: orbital
!     Version: 0  (Data from the original Basis Set Exchange)
!----------------------------------------------------------------------


****
H     0
S    3   1.00
     18.7311370              0.03349460
      2.8253937              0.23472695
      0.6401217              0.81375733
S    1   1.00
      0.1612778              1.00000000
P    1   1.00
      1.5000000              1.0000000
P    1   1.00
      0.3750000              1.0000000
****
B     0
S    6   1.00
   2068.8823000              0.0018663
    310.6495700              0.0142515
     70.6830330              0.0695516
     19.8610800              0.2325729
      6.2993048              0.4670787
      2.1270270              0.3634314
SP   3   1.00
      4.7279710             -0.1303938              0.0745976
      1.1903377             -0.1307889              0.3078467
      0.3594117              1.1309444              0.7434568
SP   1   1.00
      0.1267512              1.0000000              1.0000000
D    1   1.00
      0.8020000              1.0000000
D    1   1.00
      0.2005000              1.0000000
F    1   1.00
      0.5000000              1.0000000
****
C     0
S    6   1.00
   3047.5249000              0.0018347
    457.3695100              0.0140373
    103.9486900              0.0688426
     29.2101550              0.2321844
      9.2866630              0.4679413
      3.1639270              0.3623120
SP   3   1.00
      7.8682724             -0.1193324              0.0689991
      1.8812885             -0.1608542              0.3164240
      0.5442493              1.1434564              0.7443083
SP   1   1.00
      0.1687144              1.0000000              1.0000000
D    1   1.00
      1.2520000              1.0000000
D    1   1.00
      0.3130000              1.0000000
F    1   1.00
      0.8000000              1.0000000
****
N     0
S    6   1.00
   4173.5110000              0.0018348
    627.4579000              0.0139950
    142.9021000              0.0685870
     40.2343300              0.2322410
     12.8202100              0.4690700
      4.3904370              0.3604550
SP   3   1.00
     11.6263580             -0.1149610              0.0675800
      2.7162800             -0.1691180              0.3239070
      0.7722180              1.1458520              0.7408950
SP   1   1.00
      0.2120313              1.0000000              1.0000000
D    1   1.00
      1.8260000              1.0000000
D    1   1.00
      0.4565000              1.0000000
F    1   1.00
      1.0000000              1.0000000
****
O     0
S    6   1.00
   5484.6717000              0.0018311
    825.2349500              0.0139501
    188.0469600              0.0684451
     52.9645000              0.2327143
     16.8975700              0.4701930
      5.7996353              0.3585209
SP   3   1.00
     15.5396160             -0.1107775              0.0708743
      3.5999336             -0.1480263              0.3397528
      1.0137618              1.1307670              0.7271586
SP   1   1.00
      0.2700058              1.0000000              1.0000000
D    1   1.00
      2.5840000              1.0000000
D    1   1.00
      0.6460000              1.0000000
F    1   1.00
      1.4000000              1.0000000
****
F     0
S    6   1.00
   7001.7130900              0.0018196169
   1051.3660900              0.0139160796
    239.2856900              0.0684053245
     67.3974453              0.233185760
     21.5199573              0.471267439
      7.40310130             0.356618546
SP   3   1.00
     20.8479528             -0.108506975            0.0716287243
      4.80830834            -0.146451658            0.3459121030
      1.34406986             1.128688580            0.7224699570
SP   1   1.00
      0.358151393            1.0000000              1.0000000
D    1   1.00
      3.5000000              1.0000000
D    1   1.00
      0.8750000              1.0000000
F    1   1.00
      1.8500000              1.0000000
****
Al     0
S    6   1.00
  13983.1000000              0.00194267
   2098.7500000              0.0148599
    477.7050000              0.0728494
    134.3600000              0.2468300
     42.8709000              0.4872580
     14.5189000              0.3234960
SP   6   1.00
    239.6680000             -0.00292619             0.00460285
     57.4419000             -0.0374080              0.0331990
     18.2859000             -0.1144870              0.1362820
      6.5991400              0.1156350              0.3304760
      2.4904900              0.6125950              0.4491460
      0.9445400              0.3937990              0.2657040
SP   3   1.00
      1.2779000             -0.2276060             -0.0175130
      0.3975900              0.00144583             0.2445330
      0.1600950              1.0927900              0.8049340
SP   1   1.00
      0.0556577              1.0000000              1.0000000
D    1   1.00
      0.6500000              1.0000000
D    1   1.00
      0.1625000              1.0000000
F    1   1.00
      0.2500000              1.0000000
****
Si     0
S    6   1.00
  16115.9000000              0.00195948
   2425.5800000              0.01492880
    553.8670000              0.07284780
    156.3400000              0.24613000
     50.0683000              0.48591400
     17.0178000              0.32500200
SP   6   1.00
    292.7180000             -0.00278094             0.00443826
     69.8731000             -0.03571460             0.03266790
     22.3363000             -0.11498500             0.13472100
      8.1503900              0.09356340             0.32867800
      3.1345800              0.60301700             0.44964000
      1.2254300              0.41895900             0.26137200
SP   3   1.00
      1.7273800             -0.24463000            -0.01779510
      0.5729220              0.00431572             0.25353900
      0.2221920              1.09818000             0.80066900
SP   1   1.00
      0.0778369              1.00000000             1.00000000
D    1   1.00
      0.9000000              1.0000000
D    1   1.00
      0.2250000              1.0000000
F    1   1.00
      0.3200000              1.0000000
****
P     0
S    6   1.00
  19413.3000000              0.0018516
   2909.4200000              0.0142062
    661.3640000              0.0699995
    185.7590000              0.2400790
     59.1943000              0.4847620
     20.0310000              0.3352000
SP   6   1.00
    339.4780000             -0.00278217             0.00456462
     81.0101000             -0.0360499              0.03369360
     25.8780000             -0.1166310              0.13975500
      9.4522100              0.0968328              0.33936200
      3.6656600              0.6144180              0.45092100
      1.4674600              0.4037980              0.23858600
SP   3   1.00
      2.1562300             -0.2529230             -0.01776530
      0.7489970              0.0328517              0.27405800
      0.2831450              1.0812500              0.78542100
SP   1   1.00
      0.0998317              1.0000000              1.00000000
D    1   1.00
      1.1000000              1.0000000
D    1   1.00
      0.2750000              1.0000000
F    1   1.00
      0.4500000              1.0000000
****
S     0
S    6   1.00
  21917.1000000              0.0018690
   3301.4900000              0.0142300
    754.1460000              0.0696960
    212.7110000              0.2384870
     67.9896000              0.4833070
     23.0515000              0.3380740
SP   6   1.00
    423.7350000             -0.0023767              0.0040610
    100.7100000             -0.0316930              0.0306810
     32.1599000             -0.1133170              0.1304520
     11.8079000              0.0560900              0.3272050
      4.6311000              0.5922550              0.4528510
      1.8702500              0.4550060              0.2560420
SP   3   1.00
      2.6158400             -0.2503740             -0.0145110
      0.9221670              0.0669570              0.3102630
      0.3412870              1.0545100              0.7544830
SP   1   1.00
      0.1171670              1.0000000              1.0000000
D    1   1.00
      1.3000000              1.0000000
D    1   1.00
      0.3250000              1.0000000
F    1   1.00
      0.5500000              1.0000000
****
Cl     0
S    6   1.00
  25180.1000000              0.0018330
   3780.3500000              0.0140340
    860.4740000              0.0690970
    242.1450000              0.2374520
     77.3349000              0.4830340
     26.2470000              0.3398560
SP   6   1.00
    491.7650000             -0.0022974              0.0039894
    116.9840000             -0.0307140              0.0303180
     37.4153000             -0.1125280              0.1298800
     13.7834000              0.0450160              0.3279510
      5.4521500              0.5893530              0.4535270
      2.2258800              0.4652060              0.2521540
SP   3   1.00
      3.1864900             -0.2518300             -0.0142990
      1.1442700              0.0615890              0.3235720
      0.4203770              1.0601800              0.7435070
SP   1   1.00
      0.1426570              1.0000000              1.0000000
D    1   1.00
      1.5000000              1.0000000
D    1   1.00
      0.3750000              1.0000000
F    1   1.00
      0.7000000              1.0000000
****
}


set {
reference rhf                          
freeze_core true
e_convergence 10                       
d_convergence 10                      
dft_spherical_points 1202
dft_radial_points 99
}

e = energy('b3lyp')

print_out('Grab this energy {0}'.format(e))
--------------------------------------------------------------------------

  Memory set to  13.039 GiB by Python driver.

Scratch directory: /tmp/

*** tstart() called on n032
*** at Sun Nov 14 12:39:48 2021

   => Loading Basis Set <=

    Name: ANONYMOUSD96B356F
    Role: ORBITAL
    Keyword: BASIS
    atoms 1-4  entry C          line    48 inputblock 6-31g_2dfp_ 
    atoms 5-10 entry H          line    15 inputblock 6-31g_2dfp_ 


         ---------------------------------------------------------
                                   SCF
               by Justin Turney, Rob Parrish, Andy Simmonett
                          and Daniel G. A. Smith
                              RKS Reference
                        4 Threads,  13351 MiB Core
         ---------------------------------------------------------

  ==> Geometry <==

    Molecular point group: c1
    Full point group: C1

    Geometry (in Bohr), charge = 0, multiplicity = 1:

       Center              X                  Y                   Z               Mass       
    ------------   -----------------  -----------------  -----------------  -----------------
         C           -2.145296979913    -0.000000009996     0.594295236850    12.000000000000
         C            2.146339015087     0.000000010004     0.597960613250    12.000000000000
         C           -0.000340097713    -1.419701114396    -0.600667266850    12.000000000000
         C           -0.000340097813     1.419701114404    -0.600667266750    12.000000000000
         H           -0.000726115513    -2.681396915196    -2.189786694350     1.007825032230
         H           -0.000726215513     2.681396915204    -2.189786694350     1.007825032230
         H           -2.307465347713    -0.000000010096     2.649776740950     1.007825032230
         H           -3.932384433413    -0.000000009996    -0.405041163750     1.007825032230
         H            2.306159765087     0.000000010004     2.649384304150     1.007825032230
         H            3.930833984387     0.000000009904    -0.406448163550     1.007825032230

  Running in c1 symmetry.

  Rotational constants: A =      0.57773  B =      0.31074  C =      0.27966 [cm^-1]
  Rotational constants: A =  17319.76946  B =   9315.86568  C =   8384.10239 [MHz]
  Nuclear repulsion =  116.222715852607408

  Charge       = 0
  Multiplicity = 1
  Electrons    = 30
  Nalpha       = 15
  Nbeta        = 15

  ==> Algorithm <==

  SCF Algorithm Type is DF.
  DIIS enabled.
  MOM disabled.
  Fractional occupation disabled.
  Guess Type is SAD.
  Energy threshold   = 1.00e-10
  Density threshold  = 1.00e-10
  Integral threshold = 0.00e+00

  ==> Primary Basis <==

  Basis Set: ANONYMOUSD96B356F
    Blend: 6-31G_2DFP_
    Number of shells: 56
    Number of basis function: 152
    Number of Cartesian functions: 172
    Spherical Harmonics?: true
    Max angular momentum: 3

  ==> DFT Potential <==

   => Composite Functional: B3LYP <= 

    B3LYP Hyb-GGA Exchange-Correlation Functional

    P. J. Stephens, F. J. Devlin, C. F. Chabalowski, and M. J. Frisch, J. Phys. Chem. 98, 11623 (1994)

    Deriv               =              1
    GGA                 =           TRUE
    Meta                =          FALSE

    Exchange Hybrid     =           TRUE
    MP2 Hybrid          =          FALSE

   => Exchange Functionals <=

    0.0800   Slater exchange
    0.7200         Becke 88

   => Exact (HF) Exchange <=

    0.2000               HF 

   => Correlation Functionals <=

    0.1900   Vosko, Wilk & Nusair (VWN5_RPA)
    0.8100   Lee, Yang & Parr

   => Molecular Quadrature <=

    Radial Scheme          =       TREUTLER
    Pruning Scheme         =           NONE
    Nuclear Scheme         =       TREUTLER

    BS radius alpha        =              1
    Pruning alpha          =              1
    Radial Points          =             99
    Spherical Points       =           1202
    Total Points           =        1110300
    Total Blocks           =           7404
    Max Points             =            256
    Max Functions          =            152
    Weights Tolerance      =       1.00E-15

   => Loading Basis Set <=

    Name: (ANONYMOUSD96B356F AUX)
    Role: JKFIT
    Keyword: DF_BASIS_SCF
    atoms 1-4  entry C          line   198 file /opt/psi/4/master/share/psi4/basis/def2-universal-jkfit.gbs 
    atoms 5-10 entry H          line    18 file /opt/psi/4/master/share/psi4/basis/def2-universal-jkfit.gbs 

  ==> Integral Setup <==

  DFHelper Memory: AOs need 0.077 GiB; user supplied 5.517 GiB. Using in-core AOs.

  ==> MemDFJK: Density-Fitted J/K Matrices <==

    J tasked:                   Yes
    K tasked:                   Yes
    wK tasked:                   No
    OpenMP threads:               4
    Memory [MiB]:              5648
    Algorithm:                 Core
    Schwarz Cutoff:           1E-12
    Mask sparsity (%):       0.3289
    Fitting Condition:        1E-10

   => Auxiliary Basis Set <=

  Basis Set: (ANONYMOUSD96B356F AUX)
    Blend: DEF2-UNIVERSAL-JKFIT
    Number of shells: 136
    Number of basis function: 408
    Number of Cartesian functions: 476
    Spherical Harmonics?: true
    Max angular momentum: 4

  Cached 100.0% of DFT collocation blocks in 4.262 [GiB].

  Minimum eigenvalue in the overlap matrix is 9.3804614441E-04.
  Reciprocal condition number of the overlap matrix is 1.4473506060E-04.
    Using symmetric orthogonalization.

  ==> Pre-Iterations <==

  SCF Guess: Superposition of Atomic Densities via on-the-fly atomic UHF (no occupation information).

   -------------------------
    Irrep   Nso     Nmo    
   -------------------------
     A        152     152 
   -------------------------
    Total     152     152
   -------------------------

  ==> Iterations <==

                           Total Energy        Delta E     RMS |[F,P]|

   @DF-RKS iter SAD:  -155.76918096917336   -1.55769e+02   0.00000e+00 
   @DF-RKS iter   1:  -155.67609320729153    9.30878e-02   4.70036e-03 DIIS
   @DF-RKS iter   2:  -155.51503571487603    1.61057e-01   6.00907e-03 DIIS
   @DF-RKS iter   3:  -155.95973228336882   -4.44697e-01   2.71619e-04 DIIS
   @DF-RKS iter   4:  -155.96028128591328   -5.49003e-04   1.34160e-04 DIIS
   @DF-RKS iter   5:  -155.96045836736670   -1.77081e-04   4.75187e-05 DIIS
   @DF-RKS iter   6:  -155.96048346710108   -2.50997e-05   6.35425e-06 DIIS
   @DF-RKS iter   7:  -155.96048396565510   -4.98554e-07   1.03930e-06 DIIS
   @DF-RKS iter   8:  -155.96048397898747   -1.33324e-08   9.97264e-08 DIIS
   @DF-RKS iter   9:  -155.96048397908081   -9.33369e-11   5.10257e-08 DIIS
   @DF-RKS iter  10:  -155.96048397910806   -2.72564e-11   1.74247e-08 DIIS
   @DF-RKS iter  11:  -155.96048397911153   -3.46745e-12   8.51132e-10 DIIS
   @DF-RKS iter  12:  -155.96048397911139    1.42109e-13   8.72733e-11 DIIS
  Energy and wave function converged.


  ==> Post-Iterations <==

    Orbital Energies [Eh]
    ---------------------

    Doubly Occupied:                                                      

       1A    -10.190356     2A    -10.189993     3A    -10.189932  
       4A    -10.189774     5A     -0.911753     6A     -0.680924  
       7A     -0.571607     8A     -0.569259     9A     -0.511720  
      10A     -0.425895    11A     -0.419342    12A     -0.363626  
      13A     -0.321666    14A     -0.307157    15A     -0.237812  

    Virtual:                                                              

      16A      0.091491    17A      0.096884    18A      0.118864  
      19A      0.131993    20A      0.144166    21A      0.174091  
      22A      0.185954    23A      0.186567    24A      0.240984  
      25A      0.249018    26A      0.256547    27A      0.392041  
      28A      0.416008    29A      0.439890    30A      0.454321  
      31A      0.455492    32A      0.472440    33A      0.500300  
      34A      0.509600    35A      0.545499    36A      0.550587  
      37A      0.559658    38A      0.582877    39A      0.624511  
      40A      0.643382    41A      0.647786    42A      0.650701  
      43A      0.651795    44A      0.661505    45A      0.668654  
      46A      0.812735    47A      0.837138    48A      0.858334  
      49A      0.894659    50A      0.922222    51A      0.933522  
      52A      0.976694    53A      0.996840    54A      1.092249  
      55A      1.093020    56A      1.103551    57A      1.118813  
      58A      1.168123    59A      1.181364    60A      1.195882  
      61A      1.214522    62A      1.222499    63A      1.226113  
      64A      1.294172    65A      1.300161    66A      1.346891  
      67A      1.351623    68A      1.371406    69A      1.410331  
      70A      1.419111    71A      1.459490    72A      1.520294  
      73A      1.522163    74A      1.588921    75A      1.599174  
      76A      1.629181    77A      1.635396    78A      1.690328  
      79A      1.762456    80A      1.865515    81A      1.925441  
      82A      2.044909    83A      2.162192    84A      2.180909  
      85A      2.231833    86A      2.483516    87A      2.491222  
      88A      2.738132    89A      2.750100    90A      2.823308  
      91A      2.831068    92A      2.839261    93A      2.881318  
      94A      2.884661    95A      2.917528    96A      2.963554  
      97A      3.031238    98A      3.047405    99A      3.061731  
     100A      3.103773   101A      3.178935   102A      3.192220  
     103A      3.223187   104A      3.300332   105A      3.382605  
     106A      3.387341   107A      3.418777   108A      3.427820  
     109A      3.457809   110A      3.515600   111A      3.522853  
     112A      3.541782   113A      3.543653   114A      3.562887  
     115A      3.664821   116A      3.668061   117A      3.691008  
     118A      3.765533   119A      3.786126   120A      3.818421  
     121A      3.903790   122A      3.926494   123A      3.967143  
     124A      3.982504   125A      3.997991   126A      4.078803  
     127A      4.087692   128A      4.159644   129A      4.174815  
     130A      4.218743   131A      4.267420   132A      4.320497  
     133A      4.324711   134A      4.325917   135A      4.334332  
     136A      4.335825   137A      4.433925   138A      4.596588  
     139A      4.600430   140A      4.617363   141A      4.713782  
     142A      4.744856   143A      4.807712   144A      4.974645  
     145A      5.013315   146A      5.080923   147A      5.120975  
     148A      5.146363   149A      5.274382   150A      5.322153  
     151A      5.352169   152A      5.388909  

    Final Occupation by Irrep:
              A 
    DOCC [    15 ]

  @DF-RKS Final Energy:  -155.96048397911139

   => Energetics <=

    Nuclear Repulsion Energy =            116.2227158526074078
    One-Electron Energy =                -438.2595721699754563
    Two-Electron Energy =                 185.4736565302439431
    DFT Exchange-Correlation Energy =     -19.3972841919872785
    Empirical Dispersion Energy =           0.0000000000000000
    VV10 Nonlocal Energy =                  0.0000000000000000
    Total Energy =                       -155.9604839791113875

Computation Completed


Properties will be evaluated at   0.000000,   0.000000,   0.000000 [a0]

Properties computed using the SCF density matrix

  Nuclear Dipole Moment: [e a0]
     X:    -0.0021      Y:    -0.0000      Z:     0.0536

  Electronic Dipole Moment: [e a0]
     X:     0.0026      Y:     0.0000      Z:    -0.3189

  Dipole Moment: [e a0]
     X:     0.0005      Y:    -0.0000      Z:    -0.2653     Total:     0.2653

  Dipole Moment: [D]
     X:     0.0012      Y:    -0.0000      Z:    -0.6743     Total:     0.6743


*** tstop() called on n032 at Sun Nov 14 12:40:15 2021
Module time:
	user time   =     104.94 seconds =       1.75 minutes
	system time =       1.08 seconds =       0.02 minutes
	total time  =         27 seconds =       0.45 minutes
Total time:
	user time   =     104.94 seconds =       1.75 minutes
	system time =       1.08 seconds =       0.02 minutes
	total time  =         27 seconds =       0.45 minutes
Grab this energy -155.9604839791114
    Psi4 stopped on: Sunday, 14 November 2021 12:40PM
    Psi4 wall time for execution: 0:00:27.18

*** Psi4 exiting successfully. Buy a developer a beer!
