
 Primary working directories    : /tmp/880701.421.gen6.q
 Secondary working directories  : /tmp/880701.421.gen6.q
 Wavefunction directory         : /home/vulcan/lo21740/wfu/
 Main file repository           : /tmp/880701.421.gen6.q/

 ARCHNAME  : Linux/x86_64
 FC        : /opt/intel/compilers_and_libraries_2016.1.150/linux/bin/intel64/ifort
 FCVERSION : 16.0.1
 BLASLIB   : -mkl
 id        : ccgc

 Nodes     nprocs
 n077         1
 ga_uses_ma=false, calling ma_init with nominal heap.
 GA-space will be limited to   8.0 MW (determined by -G option)

 Using customized tuning parameters: mindgm=10; mindgv=16; mindgc=4; mindgr=1; noblas=0; mincuda=1000; minvec=7
 default implementation of scratch files=df  

 ***,Optimization of formamide
 memory,1000,m
 gthresh,energy=1.0d-12,orbital=1.0d-10,oneint=1.0d-16,twoint=1.0d-16,optgrad=1.0d-6,compress=1.0d-13
 geomtyp=xyz
 
 bohr
 geometry = {
  C   -3.8197301994    0.0855685065    0.0000000000
  O   -2.7265478027    2.1410945331   -0.0000000000
  N   -2.6767118190   -2.1780998659    0.0000000000
  H   -3.7367310609   -3.7563383700   -0.0000000000
  H   -0.7506610115   -2.3093209488    0.0000000000
  H   -5.8925105992   -0.0169732450    0.0000000000
  C    3.8197301994   -0.0855685065    0.0000000000
  O    2.7265478027   -2.1410945331    0.0000000000
  N    2.6767118190    2.1780998659   -0.0000000000
  H    3.7367310609    3.7563383700   -0.0000000000
  H    0.7506610115    2.3093209488   -0.0000000000
  H    5.8925105992    0.0169732450    0.0000000000
 }
 
 basis=AVDZ
 {rhf;maxit,200}
 {ccsd(t);maxit,200}

 Variables initialized (661), CPU time= 0.00 sec
 Commands  initialized (458), CPU time= 0.01 sec, 486 directives.
 Default parameters read. Elapsed time= 0.04 sec

 Checking input...
 Passed
1


                                         ***  PROGRAM SYSTEM MOLPRO  ***
                         Copyright, University College Cardiff Consultants Limited, 2008

                                    Version 2010.1 linked May 16 2016 07:17:05


 **********************************************************************************************************************************
 LABEL *   Optimization of formamide                                                     
 Linux-4.4.3/n077(x86_64) 64 bit mpp version                                             DATE: 24-May-23          TIME: 22:27:53  
 **********************************************************************************************************************************

 SHA1:             9e8077add272b0f3cad6f7df79ec5211205f459d
 **********************************************************************************************************************************

 THRESHOLDS:

 ZERO    =  1.00D-12  ONEINT  =  1.00D-16  TWOINT  =  1.00D-16  PREFAC  =  1.00D-14  LOCALI  =  1.00D-09  EORDER  =  1.00D-04
 ENERGY  =  1.00D-12  ETEST   =  0.00D+00  EDENS   =  0.00D+00  THRDEDEF=  1.00D-06  GRADIENT=  1.00D-02  STEP    =  1.00D-03
 ORBITAL =  1.00D-10  CIVEC   =  1.00D-05  COEFF   =  1.00D-04  PRINTCI =  5.00D-02  PUNCHCI =  9.90D+01  OPTGRAD =  1.00D-06
 OPTENERG=  1.00D-06  OPTSTEP =  3.00D-04  THRGRAD =  1.00D-10  COMPRESS=  1.00D-13  VARMIN  =  1.00D-07  VARMAX  =  1.00D-03
 THRDOUB =  0.00D+00  THRDIV  =  1.00D-05  THRRED  =  1.00D-07  THRPSP  =  1.00D+00  THRDC   =  1.00D-10  THRCS   =  1.00D-10
 THRNRM  =  1.00D-08  THREQ   =  0.00D+00  THRDE   =  1.00D+00  THRREF  =  1.00D-05  SPARFAC =  1.00D+00  THRDLP  =  1.00D-07
 THRDIA  =  1.00D-10  THRDLS  =  1.00D-07  THRGPS  =  0.00D+00  THRKEX  =  0.00D+00  THRDIS  =  2.00D-01  THRVAR  =  1.00D-10
 THRLOC  =  1.00D-06  THRGAP  =  1.00D-06  THRLOCT = -1.00D+00  THRGAPT = -1.00D+00  THRORB  =  1.00D-06  THRMLTP =  0.00D+00
 THRCPQCI=  1.00D-10  KEXTA   =  0.00D+00  THRCOARS=  0.00D+00  SYMTOL  =  1.00D-06  GRADTOL =  1.00D-06  THROVL  =  1.00D-08
 THRORTH =  1.00D-08  GRID    =  1.00D-06  GRIDMAX =  1.00D-03  DTMAX   =  0.00D+00

 SETTING GEOMTYP        =    XYZ
 ZUNIT=BOHR
 

 Variable memory set to 1000000000 words,  buffer space   230000 words

 SETTING BASIS          =    AVDZ


 Recomputing integrals since basis changed


 Using spherical harmonics

 Library entry C      S aug-cc-pVDZ          selected for orbital group  1
 Library entry C      P aug-cc-pVDZ          selected for orbital group  1
 Library entry C      D aug-cc-pVDZ          selected for orbital group  1
 Library entry O      S aug-cc-pVDZ          selected for orbital group  2
 Library entry O      P aug-cc-pVDZ          selected for orbital group  2
 Library entry O      D aug-cc-pVDZ          selected for orbital group  2
 Library entry N      S aug-cc-pVDZ          selected for orbital group  3
 Library entry N      P aug-cc-pVDZ          selected for orbital group  3
 Library entry N      D aug-cc-pVDZ          selected for orbital group  3
 Library entry H      S aug-cc-pVDZ          selected for orbital group  4
 Library entry H      P aug-cc-pVDZ          selected for orbital group  4

1PROGRAM * SEWARD (Integral evaluation for generally contracted gaussian basis sets)     Author: Roland Lindh, 1990

 Geometry written to block  1 of record 700


 Point group  C2h 



 ATOMIC COORDINATES

 NR  ATOM    CHARGE       X              Y              Z

   1  C       6.00   -3.819730199    0.085568507    0.000000000
   2  C       6.00    3.819730199   -0.085568507    0.000000000
   3  O       8.00   -2.726547803    2.141094533    0.000000000
   4  O       8.00    2.726547803   -2.141094533    0.000000000
   5  N       7.00   -2.676711819   -2.178099866    0.000000000
   6  N       7.00    2.676711819    2.178099866    0.000000000
   7  H       1.00   -3.736731061   -3.756338370    0.000000000
   8  H       1.00    3.736731061    3.756338370    0.000000000
   9  H       1.00   -0.750661011   -2.309320949    0.000000000
  10  H       1.00    0.750661011    2.309320949    0.000000000
  11  H       1.00   -5.892510599   -0.016973245    0.000000000
  12  H       1.00    5.892510599    0.016973245    0.000000000

 Bond lengths in Bohr (Angstrom)

  1- 3  2.328139815   1- 5  2.535879634   1-11  2.075315252   2- 4  2.328139815   2- 6  2.535879634
       ( 1.231998529)       ( 1.341929707)       ( 1.098209533)       ( 1.231998529)       ( 1.341929707)

  2-12  2.075315252   5- 7  1.901177942   5- 9  1.930515653   6- 8  1.901177942   6-10  1.930515653
       ( 1.098209533)       ( 1.006060037)       ( 1.021584885)       ( 1.006060037)       ( 1.021584885)

 Bond angles

  1- 5- 7  119.32176262   1- 5- 9  120.68858615   2- 6- 8  119.32176262   2- 6-10  120.68858615

  3- 1- 5  125.20371871   3- 1-11  120.83736056   4- 2- 6  125.20371871   4- 2-12  120.83736056

  5- 1-11  113.95892073   6- 2-12  113.95892073   7- 5- 9  119.98965123   8- 6-10  119.98965123

 NUCLEAR CHARGE:                   48
 NUMBER OF PRIMITIVE AOS:         288
 NUMBER OF SYMMETRY AOS:          276
 NUMBER OF CONTRACTIONS:          192   (  69Ag  +  27Au  +  69Bu  +  27Bg  )
 NUMBER OF CORE ORBITALS:           6   (   3Ag  +   0Au  +   3Bu  +   0Bg  )
 NUMBER OF VALENCE ORBITALS:       30   (  12Ag  +   3Au  +  12Bu  +   3Bg  )


 NUCLEAR REPULSION ENERGY  230.63928752


 Eigenvalues of metric

         1 0.231E-03 0.526E-03 0.699E-03 0.711E-03 0.855E-03 0.217E-02 0.278E-02 0.326E-02
         2 0.197E-01 0.282E-01 0.338E-01 0.451E-01 0.700E-01 0.792E-01 0.124E+00 0.184E+00
         3 0.269E-03 0.523E-03 0.561E-03 0.713E-03 0.120E-02 0.133E-02 0.231E-02 0.319E-02
         4 0.181E-01 0.282E-01 0.334E-01 0.415E-01 0.552E-01 0.887E-01 0.166E+00 0.172E+00


 Contracted 2-electron integrals neglected if value below      1.0D-16
 AO integral compression algorithm  1   Integral accuracy      1.0D-16

     455.868 MB (compressed) written to integral file (100.0%)

     Node minimum: 455.868 MB, node maximum: 455.868 MB


 NUMBER OF SORTED TWO-ELECTRON INTEGRALS:   45269976.     BUFFER LENGTH:  32768
 NUMBER OF SEGMENTS:   3  SEGMENT LENGTH:   15999984      RECORD LENGTH: 524288

 Memory used in sort:      16.56 MW

 SORT1 READ    55745328. AND WROTE    45269974. INTEGRALS IN    130 RECORDS. CPU TIME:     0.78 SEC, REAL TIME:     1.08 SEC
 SORT2 READ    45269974. AND WROTE    45269976. INTEGRALS IN   1739 RECORDS. CPU TIME:     0.46 SEC, REAL TIME:     0.66 SEC

 FILE SIZES:   FILE 1:   375.6 MBYTE,  FILE 4:   545.3 MBYTE,   TOTAL:    920.9 MBYTE

 OPERATOR DM      FOR CENTER  0  COORDINATES:    0.000000    0.000000    0.000000


 **********************************************************************************************************************************
 DATASETS  * FILE   NREC   LENGTH (MB)   RECORD NAMES
              1      19      375.74       500      610      700      900      950      970     1000      129      960     1100   
                                          VAR    BASINP    GEOM    SYMINP    ZMAT    AOBASIS   BASIS     P2S    ABASIS      S 
                                         1400     1410     1200     1210     1080     1600     1650     1300     1700   
                                           T        V       H0       H01     AOSYM     SMH    MOLCAS    ERIS     OPER   

 PROGRAMS   *        TOTAL       INT
 CPU TIMES  *         4.32      4.28
 REAL TIME  *         5.19 SEC
 DISK USED  *         1.38 GB      
 GA USED    *         0.00 MB       (max)       0.00 MB       (current)
 **********************************************************************************************************************************

1PROGRAM * RHF-SCF (CLOSED SHELL)       Authors: W. Meyer, H.-J. Werner


 NUMBER OF ELECTRONS:      24+   24-
 CONVERGENCE THRESHOLDS:    1.00E-10 (Density)    1.00E-13 (Energy)
 MAX. NUMBER OF ITERATIONS:      200
 INTERPOLATION TYPE:            DIIS
 INTERPOLATION STEPS:              2 (START)      1 (STEP)
 LEVEL SHIFTS:                  0.00 (CLOSED)  0.00 (OPEN) 



 Orbital guess generated from atomic densities. Full valence occupancy:   15   3  15   3

 Molecular orbital dump at record        2100.2

 Initial alpha occupancy:  10   2  10   2
 Initial beta  occupancy:  10   2  10   2
 Wave function symmetry:    1

 ITERATION    DDIFF          GRAD             ENERGY        2-EL.EN.            DIPOLE MOMENTS         DIIS
    1      0.000D+00      0.000D+00      -337.80587395    704.970477    0.00000    0.00000    0.00000    0
    2      0.000D+00      0.103D-01      -337.88338392    699.346248    0.00000    0.00000    0.00000    1
    3      0.194D-01      0.748D-02      -337.94124943    702.086744    0.00000    0.00000    0.00000    2
    4      0.791D-02      0.987D-03      -337.94346180    701.992319    0.00000    0.00000    0.00000    3
    5      0.189D-02      0.339D-03      -337.94372870    701.924707    0.00000    0.00000    0.00000    4
    6      0.643D-03      0.111D-03      -337.94378944    701.950261    0.00000    0.00000    0.00000    5
    7      0.283D-03      0.493D-04      -337.94380036    701.941528    0.00000    0.00000    0.00000    6
    8      0.135D-03      0.146D-04      -337.94380131    701.946947    0.00000    0.00000    0.00000    7
    9      0.425D-04      0.439D-05      -337.94380138    701.944493    0.00000    0.00000    0.00000    8
   10      0.110D-04      0.154D-05      -337.94380139    701.945051    0.00000    0.00000    0.00000    7
   11      0.463D-05      0.369D-06      -337.94380139    701.944976    0.00000    0.00000    0.00000    8
   12      0.107D-05      0.556D-07      -337.94380139    701.944983    0.00000    0.00000    0.00000    7
   13      0.157D-06      0.129D-07      -337.94380139    701.944983    0.00000    0.00000    0.00000    7
   14      0.397D-07      0.231D-08      -337.94380139    701.944983    0.00000    0.00000    0.00000    6
   15      0.617D-08      0.745D-09      -337.94380139    701.944984    0.00000    0.00000    0.00000    6
   16      0.165D-08      0.335D-09      -337.94380139    701.944984    0.00000    0.00000    0.00000    6
   17      0.612D-09      0.908D-10      -337.94380139    701.944984    0.00000    0.00000    0.00000    7
   18      0.213D-09      0.254D-10      -337.94380139    701.944984    0.00000    0.00000    0.00000    7
   19      0.677D-10      0.847D-11      -337.94380139    701.944984    0.00000    0.00000    0.00000    7
   20      0.221D-10      0.314D-11      -337.94380139    701.944984    0.00000    0.00000    0.00000    7
   21      0.954D-11      0.745D-12      -337.94380139    701.944984    0.00000    0.00000    0.00000    8
   22      0.510D-11      0.300D-12      -337.94380139    701.944984    0.00000    0.00000    0.00000    8
   23      0.455D-11      0.143D-12      -337.94380139    701.944984    0.00000    0.00000    0.00000    0

 Final occupancy:  10   2  10   2

 !RHF STATE 1.1 Energy               -337.943801389030
 Nuclear energy                       230.63928752
 One-electron energy                 -919.55558067
 Two-electron energy                  350.97249176
 Virial quotient                       -1.00169619
 !RHF STATE 1.1 Dipole moment           0.00000000     0.00000000     0.00000000
 Dipole moment /Debye                   0.00000000     0.00000000     0.00000000

 Orbital energies:

         1.1          2.1          3.1          4.1          5.1          6.1          7.1          8.1          9.1         10.1
    -20.540794   -15.589043   -11.367388    -1.388793    -1.212847    -0.861733    -0.749892    -0.645587    -0.619034    -0.454299

        11.1         12.1
      0.033345     0.059186

         1.2          2.2          3.2          4.2
     -0.573679    -0.409730     0.092356     0.150962

         1.3          2.3          3.3          4.3          5.3          6.3          7.3          8.3          9.3         10.3
    -20.540793   -15.589042   -11.367388    -1.383982    -1.219151    -0.836378    -0.740927    -0.706569    -0.593377    -0.428914

        11.3         12.3
      0.036330     0.052526

         1.4          2.4          3.4          4.4
     -0.565536    -0.420425     0.103440     0.181864


 **********************************************************************************************************************************
 DATASETS  * FILE   NREC   LENGTH (MB)   RECORD NAMES
              1      19      375.74       500      610      700      900      950      970     1000      129      960     1100   
                                          VAR    BASINP    GEOM    SYMINP    ZMAT    AOBASIS   BASIS     P2S    ABASIS      S 
                                         1400     1410     1200     1210     1080     1600     1650     1300     1700   
                                           T        V       H0       H01     AOSYM     SMH    MOLCAS    ERIS     OPER   

              2       3        0.70       700     1000     2100   
                                         GEOM     BASIS     RHF  

 PROGRAMS   *        TOTAL       RHF       INT
 CPU TIMES  *         7.01      2.69      4.28
 REAL TIME  *         8.51 SEC
 DISK USED  *         1.38 GB      
 GA USED    *         0.00 MB       (max)       0.00 MB       (current)
 **********************************************************************************************************************************


1PROGRAM * CCSD (Closed-shell coupled cluster)     Authors: C. Hampel, H.-J. Werner, 1991, M. Deegan, P.J. Knowles, 1992


 Convergence thresholds:  THRVAR = 1.00D-08  THRDEN = 1.00D-12

 CCSD(T)     terms to be evaluated (factor= 1.000)


 Number of core orbitals:           6 (   3   0   3   0 )
 Number of closed-shell orbitals:  18 (   7   2   7   2 )
 Number of external orbitals:     168 (  59  25  59  25 )

 Molecular orbitals read from record     2100.2  Type=RHF/CANONICAL (state 1.1)

 Number of N-1 electron functions:              18
 Number of N-2 electron functions:             171
 Number of singly external CSFs:               926
 Number of doubly external CSFs:           1202384
 Total number of CSFs:                     1203311

 Length of J-op  integral file:               0.00 MB
 Length of K-op  integral file:               0.79 MB
 Length of 3-ext integral record:             0.00 MB

 Memory could be reduced to 28.44 Mwords without degradation in triples

 Integral transformation finished. Total CPU:   1.07 sec, npass=  1  Memory used:   8.50 MW

 Reference energy:                   -337.94380139

 MP2 singlet pair energy:              -0.62267040
 MP2 triplet pair energy:              -0.40615867
 MP2 correlation energy:               -1.02882907
 MP2 total energy:                   -338.97263046

 SCS-MP2 correlation energy:           -0.99992543   (PS=  1.200000  PT=  0.333333)
 SCS-MP2 total energy:               -338.94372682

 ITER.      SQ.NORM     CORR.ENERGY   TOTAL ENERGY   ENERGY CHANGE        DEN1      VAR(S)    VAR(P)  DIIS     TIME
   1      1.31921478    -1.05734502  -339.00114641    -0.02851595     0.00278753  0.10D-01  0.60D-02  1  1     2.78
   2      1.34470767    -1.05922250  -339.00302389    -0.00187747    -0.02594779  0.22D-03  0.11D-02  2  2     4.59
   3      1.35734018    -1.06011556  -339.00391695    -0.00089307    -0.00556063  0.22D-03  0.52D-04  3  3     6.43
   4      1.36255301    -1.05985095  -339.00365234     0.00026461    -0.00169440  0.22D-04  0.96D-05  4  4     8.24
   5      1.36470585    -1.05979336  -339.00359475     0.00005760    -0.00045010  0.27D-05  0.12D-05  5  5    10.06
   6      1.36522825    -1.05976465  -339.00356604     0.00002870    -0.00004980  0.28D-06  0.19D-06  6  6    11.88
   7      1.36535582    -1.05975230  -339.00355368     0.00001236    -0.00000192  0.35D-07  0.23D-07  6  1    13.72
   8      1.36539323    -1.05975109  -339.00355247     0.00000121    -0.00000702  0.77D-08  0.33D-08  6  2    15.56
   9      1.36539475    -1.05975125  -339.00355264    -0.00000016     0.00000267  0.13D-08  0.49D-09  6  3    17.39
  10      1.36539953    -1.05975069  -339.00355208     0.00000056    -0.00000110  0.33D-09  0.70D-10  6  4    19.22
  11      1.36539928    -1.05975094  -339.00355233    -0.00000025     0.00000047  0.60D-10  0.13D-10  6  5    21.04
  12      1.36539928    -1.05975092  -339.00355230     0.00000003     0.00000002  0.42D-11  0.36D-11  6  6    22.87
  13      1.36539899    -1.05975096  -339.00355235    -0.00000004     0.00000012  0.11D-11  0.38D-12  6  1    24.69
  14      1.36539890    -1.05975097  -339.00355235    -0.00000001     0.00000004  0.86D-13  0.71D-13  6  2    26.53
  15      1.36539887    -1.05975096  -339.00355235     0.00000000     0.00000001  0.17D-13  0.12D-13  6  3    28.35
  16      1.36539887    -1.05975097  -339.00355235    -0.00000000     0.00000000  0.42D-14  0.18D-14  6  4    30.19
  17      1.36539887    -1.05975097  -339.00355235     0.00000000    -0.00000000  0.52D-15  0.33D-15  6  5    32.02
  18      1.36539887    -1.05975096  -339.00355235     0.00000000    -0.00000000  0.13D-15  0.57D-16  6  6    33.86
  19      1.36539887    -1.05975096  -339.00355235    -0.00000000    -0.00000000  0.24D-16  0.94D-17  6  1    35.70
  20      1.36539888    -1.05975096  -339.00355235     0.00000000    -0.00000000  0.39D-17  0.22D-17  6  2    37.52
  21      1.36539888    -1.05975096  -339.00355235    -0.00000000     0.00000000  0.95D-18  0.38D-18  6  3    39.33
  22      1.36539888    -1.05975096  -339.00355235    -0.00000000     0.00000000  0.10D-18  0.62D-19  6  4    41.17
  23      1.36539888    -1.05975096  -339.00355235     0.00000000     0.00000000  0.21D-19  0.12D-19  6  5    43.01
  24      1.36539888    -1.05975096  -339.00355235    -0.00000000     0.00000000  0.51D-20  0.22D-20  6  6    44.84
  25      1.36539888    -1.05975096  -339.00355235    -0.00000000     0.00000000  0.71D-21  0.48D-21  6  1    46.66
  26      1.36539888    -1.05975096  -339.00355235     0.00000000    -0.00000000  0.30D-21  0.94D-22  6  2    48.49

 Norm of t1 vector:      0.14834001      S-energy:    -0.00000000      T1 diagnostic:  0.01748204
                                                                       D1 diagnostic:  0.05910971


 Total CPU time for triples:     53.21 sec


 RESULTS
 =======

  Reference energy                   -337.943801389029
  CCSD singlet pair energy             -0.699560357055
  CCSD triplet pair energy             -0.360190607813
  CCSD correlation energy              -1.059750964868

  Triples (T) contribution             -0.039928361383
  Total correlation energy             -1.099679326252

  CCSD total energy                  -339.003552353897
  CCSD[T] energy                     -339.046705275549
  CCSD-T energy                      -339.042357753987
 !CCSD(T) total energy               -339.043480715281

 Timing summary (sec):

 STEP                 CPU(USER)    SYS     CPU(TOT)    WALL
 Transformation          1.09      0.16      1.25      1.25
 CCSD iterations        47.40      2.32     49.72     49.78
 Triples                53.21      1.85     55.06     55.07

 Program statistics:

 Available memory in ccsd:               999998604
 Min. memory needed in ccsd:               3014206
 Max. memory used in ccsd:                 4106384
 Max. memory used in cckext:               3788489 (26 integral passes)



 **********************************************************************************************************************************
 DATASETS  * FILE   NREC   LENGTH (MB)   RECORD NAMES
              1      20      485.26       500      610      700      900      950      970     1000      129      960     1100   
                                          VAR    BASINP    GEOM    SYMINP    ZMAT    AOBASIS   BASIS     P2S    ABASIS      S 
                                         1400     1410     1200     1210     1080     1600     1650     1300     1700     1380   
                                           T        V       H0       H01     AOSYM     SMH    MOLCAS    ERIS     OPER     JKOP   

              2       3        0.70       700     1000     2100   
                                         GEOM     BASIS     RHF  

 PROGRAMS   *        TOTAL   CCSD(T)       RHF       INT
 CPU TIMES  *       108.73    101.72      2.69      4.28
 REAL TIME  *       114.66 SEC
 DISK USED  *         1.38 GB      
 GA USED    *         0.00 MB       (max)       0.00 MB       (current)
 **********************************************************************************************************************************

        CCSD(T)         RHF-SCF 
   -339.04348072   -337.94380139
 **********************************************************************************************************************************
 Variable memory released
