
 Primary working directories    : /tmp/943419.392.gen6.q
 Secondary working directories  : /tmp/943419.392.gen6.q
 Wavefunction directory         : /home/vulcan/mel64643/wfu/
 Main file repository           : /tmp/943419.392.gen6.q/

 ARCHNAME  : Linux/x86_64
 FC        : /opt/intel/compilers_and_libraries_2016.1.150/linux/bin/intel64/ifort
 FCVERSION : 16.0.1
 BLASLIB   : -mkl
 id        : ccgc

 Nodes     nprocs
 n081         1
 ga_uses_ma=false, calling ma_init with nominal heap.
 GA-space will be limited to   8.0 MW (determined by -G option)

 Using customized tuning parameters: mindgm=10; mindgv=16; mindgc=4; mindgr=1; noblas=0; mincuda=1000; minvec=7
 default implementation of scratch files=df  

 ***,Optimization of nh3_nitrosmethane
 memory,1000,m
 gthresh,energy=1.0d-12,orbital=1.0d-10,oneint=1.0d-16,twoint=1.0d-16,optgrad=1.0d-6,compress=1.0d-13
 geomtyp=xyz
 
 bohr
 geometry = {
  N   -5.2233816953   -0.1848569243   -0.0049963747
  H   -6.3044716273    0.2291849774   -1.5348166384
  H   -3.7594269949    1.0586491876    0.0043095144
  H   -6.2911879182    0.2307298790    1.5337088134
  H   -0.9251824658   -2.3992437485    0.0000535242
  H    1.8819506959   -3.4339608411   -1.6663172588
  H    1.8815644810   -3.4339799262    1.6670628988
  C    1.1353273417   -2.4696630636    0.0002918576
  N    2.2661960037    0.0979818469    0.0004375841
  O    0.7027306691    1.7822156217    0.0002660796
 }
 
 basis=aug-cc-pvtz
 {rhf;maxit,200}
 {mp2}

 Variables initialized (661), CPU time= 0.00 sec
 Commands  initialized (458), CPU time= 0.01 sec, 486 directives.
 Default parameters read. Elapsed time= 0.05 sec

 Checking input...
 Passed
1


                                         ***  PROGRAM SYSTEM MOLPRO  ***
                         Copyright, University College Cardiff Consultants Limited, 2008

                                    Version 2010.1 linked May 16 2016 07:17:05


 **********************************************************************************************************************************
 LABEL *   Optimization of nh3_nitrosmethane                                             
 Linux-4.4.3/n081(x86_64) 64 bit mpp version                                             DATE: 26-Oct-23          TIME: 02:13:49  
 **********************************************************************************************************************************

 SHA1:             9e8077add272b0f3cad6f7df79ec5211205f459d
 **********************************************************************************************************************************

 THRESHOLDS:

 ZERO    =  1.00D-12  ONEINT  =  1.00D-16  TWOINT  =  1.00D-16  PREFAC  =  1.00D-14  LOCALI  =  1.00D-09  EORDER  =  1.00D-04
 ENERGY  =  1.00D-12  ETEST   =  0.00D+00  EDENS   =  0.00D+00  THRDEDEF=  1.00D-06  GRADIENT=  1.00D-02  STEP    =  1.00D-03
 ORBITAL =  1.00D-10  CIVEC   =  1.00D-05  COEFF   =  1.00D-04  PRINTCI =  5.00D-02  PUNCHCI =  9.90D+01  OPTGRAD =  1.00D-06
 OPTENERG=  1.00D-06  OPTSTEP =  3.00D-04  THRGRAD =  1.00D-10  COMPRESS=  1.00D-13  VARMIN  =  1.00D-07  VARMAX  =  1.00D-03
 THRDOUB =  0.00D+00  THRDIV  =  1.00D-05  THRRED  =  1.00D-07  THRPSP  =  1.00D+00  THRDC   =  1.00D-10  THRCS   =  1.00D-10
 THRNRM  =  1.00D-08  THREQ   =  0.00D+00  THRDE   =  1.00D+00  THRREF  =  1.00D-05  SPARFAC =  1.00D+00  THRDLP  =  1.00D-07
 THRDIA  =  1.00D-10  THRDLS  =  1.00D-07  THRGPS  =  0.00D+00  THRKEX  =  0.00D+00  THRDIS  =  2.00D-01  THRVAR  =  1.00D-10
 THRLOC  =  1.00D-06  THRGAP  =  1.00D-06  THRLOCT = -1.00D+00  THRGAPT = -1.00D+00  THRORB  =  1.00D-06  THRMLTP =  0.00D+00
 THRCPQCI=  1.00D-10  KEXTA   =  0.00D+00  THRCOARS=  0.00D+00  SYMTOL  =  1.00D-06  GRADTOL =  1.00D-06  THROVL  =  1.00D-08
 THRORTH =  1.00D-08  GRID    =  1.00D-06  GRIDMAX =  1.00D-03  DTMAX   =  0.00D+00

 SETTING GEOMTYP        =    XYZ
 ZUNIT=BOHR
 

 Variable memory set to 1000000000 words,  buffer space   230000 words

 SETTING BASIS          =    AUG-CC-PVTZ


 Recomputing integrals since basis changed


 Using spherical harmonics

 Library entry N      S aug-cc-pVTZ          selected for orbital group  1
 Library entry N      P aug-cc-pVTZ          selected for orbital group  1
 Library entry N      D aug-cc-pVTZ          selected for orbital group  1
 Library entry N      F aug-cc-pVTZ          selected for orbital group  1
 Library entry H      S aug-cc-pVTZ          selected for orbital group  2
 Library entry H      P aug-cc-pVTZ          selected for orbital group  2
 Library entry H      D aug-cc-pVTZ          selected for orbital group  2
 Library entry C      S aug-cc-pVTZ          selected for orbital group  3
 Library entry C      P aug-cc-pVTZ          selected for orbital group  3
 Library entry C      D aug-cc-pVTZ          selected for orbital group  3
 Library entry C      F aug-cc-pVTZ          selected for orbital group  3
 Library entry O      S aug-cc-pVTZ          selected for orbital group  5
 Library entry O      P aug-cc-pVTZ          selected for orbital group  5
 Library entry O      D aug-cc-pVTZ          selected for orbital group  5
 Library entry O      F aug-cc-pVTZ          selected for orbital group  5

1PROGRAM * SEWARD (Integral evaluation for generally contracted gaussian basis sets)     Author: Roland Lindh, 1990

 Geometry written to block  1 of record 700


 Point group  C1  



 ATOMIC COORDINATES

 NR  ATOM    CHARGE       X              Y              Z

   1  N       7.00   -5.223381695   -0.184856924   -0.004996375
   2  H       1.00   -6.304471627    0.229184977   -1.534816638
   3  H       1.00   -3.759426995    1.058649188    0.004309514
   4  H       1.00   -6.291187918    0.230729879    1.533708813
   5  H       1.00   -0.925182466   -2.399243748    0.000053524
   6  H       1.00    1.881950696   -3.433960841   -1.666317259
   7  H       1.00    1.881564481   -3.433979926    1.667062899
   8  C       6.00    1.135327342   -2.469663064    0.000291858
   9  N       7.00    2.266196004    0.097981847    0.000437584
  10  O       8.00    0.702730669    1.782215622    0.000266080

 Bond lengths in Bohr (Angstrom)

 1-2  1.918472355  1-3  1.920822067  1-4  1.918472355  5-8  2.061712784  6-8  2.065164057
     ( 1.015211846)     ( 1.016455261)     ( 1.015211846)     ( 1.091011417)     ( 1.092837752)

  7- 8  2.065164057   8- 9  2.805648648   9-10  2.298057286
       ( 1.092837752)       ( 1.484685321)       ( 1.216079541)

 Bond angles

  2-1-3  107.07540288   2-1-4  106.21038516   3-1-4  106.26512609   5-8-6  112.15889786

  5-8-7  112.15889786   5-8-9  111.81278752   6-8-7  107.61735053   6-8-9  106.35838670

  7- 8- 9  106.35838670   8- 9-10  113.35946297

 NUCLEAR CHARGE:                   34
 NUMBER OF PRIMITIVE AOS:         430
 NUMBER OF SYMMETRY AOS:          382
 NUMBER OF CONTRACTIONS:          322   ( 322A   )
 NUMBER OF CORE ORBITALS:           4   (   4A   )
 NUMBER OF VALENCE ORBITALS:       22   (  22A   )


 NUCLEAR REPULSION ENERGY  117.39092814


 Eigenvalues of metric

         1 0.332E-04 0.530E-04 0.821E-04 0.106E-03 0.118E-03 0.169E-03 0.233E-03 0.237E-03


 Contracted 2-electron integrals neglected if value below      1.0D-16
 AO integral compression algorithm  1   Integral accuracy      1.0D-16

     9599.975 MB (compressed) written to integral file ( 79.7%)

     Node minimum: 9599.975 MB, node maximum: 9599.975 MB


 NUMBER OF SORTED TWO-ELECTRON INTEGRALS: 1352182006.     BUFFER LENGTH:  32768
 NUMBER OF SEGMENTS:  43  SEGMENT LENGTH:   31998710      RECORD LENGTH: 524288

 Memory used in sort:      32.56 MW

 SORT1 READ  1506454996. AND WROTE  1291827218. INTEGRALS IN   3717 RECORDS. CPU TIME:    14.84 SEC, REAL TIME:    41.40 SEC
 SORT2 READ  1291827218. AND WROTE  1352182006. INTEGRALS IN  36621 RECORDS. CPU TIME:     8.58 SEC, REAL TIME:    43.12 SEC

 FILE SIZES:   FILE 1:  8728.0 MBYTE,  FILE 4: 15590.3 MBYTE,   TOTAL:  24318.3 MBYTE

 OPERATOR DM      FOR CENTER  0  COORDINATES:    0.000000    0.000000    0.000000


 **********************************************************************************************************************************
 DATASETS  * FILE   NREC   LENGTH (MB)   RECORD NAMES
              1      19     8729.25       500      610      700      900      950      970     1000      129      960     1100   
                                          VAR    BASINP    GEOM    SYMINP    ZMAT    AOBASIS   BASIS     P2S    ABASIS      S 
                                         1400     1410     1200     1210     1080     1600     1650     1300     1700   
                                           T        V       H0       H01     AOSYM     SMH    MOLCAS    ERIS     OPER   

 PROGRAMS   *        TOTAL       INT
 CPU TIMES  *        55.84     55.80
 REAL TIME  *       122.66 SEC
 DISK USED  *        33.92 GB      
 GA USED    *         0.00 MB       (max)       0.00 MB       (current)
 **********************************************************************************************************************************

1PROGRAM * RHF-SCF (CLOSED SHELL)       Authors: W. Meyer, H.-J. Werner


 NUMBER OF ELECTRONS:      17+   17-    SPACE SYMMETRY=1    SPIN SYMMETRY: Singlet 
 CONVERGENCE THRESHOLDS:    1.00E-10 (Density)    1.00E-13 (Energy)
 MAX. NUMBER OF ITERATIONS:      200
 INTERPOLATION TYPE:            DIIS
 INTERPOLATION STEPS:              2 (START)      1 (STEP)
 LEVEL SHIFTS:                  0.00 (CLOSED)  0.00 (OPEN) 



 Orbital guess generated from atomic densities. Full valence occupancy:   26

 Molecular orbital dump at record        2100.2

 ITERATION    DDIFF          GRAD             ENERGY        2-EL.EN.            DIPOLE MOMENTS         DIIS
    1      0.000D+00      0.000D+00      -225.01765405    393.500922    0.07171   -0.60762    0.00524    0
    2      0.000D+00      0.279D-02      -225.07805336    392.925616   -0.57734   -0.38128    0.00175    1
    3      0.488D-02      0.202D-02      -225.11360190    393.531428   -0.23292   -0.56113    0.00266    2
    4      0.205D-02      0.389D-03      -225.11586195    393.388762   -0.30889   -0.46338    0.00283    3
    5      0.554D-03      0.159D-03      -225.11630232    393.397831   -0.30576   -0.49177    0.00271    4
    6      0.234D-03      0.389D-04      -225.11635016    393.423140   -0.31166   -0.48806    0.00273    5
    7      0.831D-04      0.148D-04      -225.11635709    393.407438   -0.31352   -0.48806    0.00273    6
    8      0.341D-04      0.604D-05      -225.11635821    393.414150   -0.31458   -0.48792    0.00273    7
    9      0.133D-04      0.267D-05      -225.11635847    393.412671   -0.31490   -0.48760    0.00273    8
   10      0.734D-05      0.820D-06      -225.11635850    393.412373   -0.31502   -0.48739    0.00273    8
   11      0.240D-05      0.270D-06      -225.11635850    393.412493   -0.31503   -0.48729    0.00274    8
   12      0.748D-06      0.871D-07      -225.11635850    393.412443   -0.31504   -0.48726    0.00274    8
   13      0.293D-06      0.298D-07      -225.11635850    393.412437   -0.31504   -0.48726    0.00274    8
   14      0.733D-07      0.144D-07      -225.11635850    393.412440   -0.31504   -0.48726    0.00274    9
   15      0.319D-07      0.206D-08      -225.11635850    393.412440   -0.31504   -0.48726    0.00274    8
   16      0.532D-08      0.123D-08      -225.11635850    393.412440   -0.31504   -0.48726    0.00274    7
   17      0.403D-08      0.888D-09      -225.11635850    393.412440   -0.31504   -0.48726    0.00274    8
   18      0.499D-08      0.534D-09      -225.11635850    393.412440   -0.31504   -0.48726    0.00274    8
   19      0.496D-08      0.158D-09      -225.11635850    393.412440   -0.31504   -0.48726    0.00274    9
   20      0.129D-08      0.354D-10      -225.11635850    393.412440   -0.31504   -0.48726    0.00274    9
   21      0.163D-09      0.118D-10      -225.11635850    393.412440   -0.31504   -0.48726    0.00274    9
   22      0.330D-10      0.436D-11      -225.11635850    393.412440   -0.31504   -0.48726    0.00274    9
   23      0.215D-10      0.145D-11      -225.11635850    393.412440   -0.31504   -0.48726    0.00274    9
   24      0.144D-10      0.544D-12      -225.11635850    393.412440   -0.31504   -0.48726    0.00274    9
   25      0.117D-10      0.304D-12      -225.11635850    393.412440   -0.31504   -0.48726    0.00274    9
   26      0.144D-10      0.233D-12      -225.11635850    393.412440   -0.31504   -0.48726    0.00274    9
   27      0.804D-11      0.155D-12      -225.11635850    393.412440   -0.31504   -0.48726    0.00274    9
   28      0.525D-11      0.146D-12      -225.11635850    393.412440   -0.31504   -0.48726    0.00274    9
   29      0.403D-11      0.143D-12      -225.11635850    393.412440   -0.31504   -0.48726    0.00274    9
   30      0.281D-11      0.239D-12      -225.11635850    393.412440   -0.31504   -0.48726    0.00274    9
   31      0.225D-11      0.176D-12      -225.11635850    393.412440   -0.31504   -0.48726    0.00274    9
   32      0.134D-11      0.146D-12      -225.11635850    393.412440   -0.31504   -0.48726    0.00274    9
   33      0.116D-11      0.133D-12      -225.11635850    393.412440   -0.31504   -0.48726    0.00274    9
   34      0.978D-12      0.124D-12      -225.11635850    393.412440   -0.31504   -0.48726    0.00274    9
   35      0.116D-11      0.177D-12      -225.11635850    393.412440   -0.31504   -0.48726    0.00274    9
   36      0.104D-11      0.139D-12      -225.11635850    393.412440   -0.31504   -0.48726    0.00274    9
   37      0.146D-11      0.129D-12      -225.11635850    393.412440   -0.31504   -0.48726    0.00274    9
   38      0.233D-11      0.138D-12      -225.11635850    393.412440   -0.31504   -0.48726    0.00274    9
   39      0.222D-11      0.185D-12      -225.11635850    393.412440   -0.31504   -0.48726    0.00274    9
   40      0.225D-11      0.139D-12      -225.11635850    393.412440   -0.31504   -0.48726    0.00274    9
   41      0.116D-11      0.133D-12      -225.11635850    393.412440   -0.31504   -0.48726    0.00274    9
   42      0.133D-11      0.131D-12      -225.11635850    393.412440   -0.31504   -0.48726    0.00274    9
   43      0.141D-11      0.200D-12      -225.11635850    393.412440   -0.31504   -0.48726    0.00274    9
   44      0.194D-11      0.133D-12      -225.11635850    393.412440   -0.31504   -0.48726    0.00274    9
   45      0.222D-11      0.134D-12      -225.11635850    393.412440   -0.31504   -0.48726    0.00274    9
   46      0.166D-11      0.137D-12      -225.11635850    393.412440   -0.31504   -0.48726    0.00274    9
   47      0.153D-11      0.168D-12      -225.11635850    393.412440   -0.31504   -0.48726    0.00274    9
   48      0.264D-11      0.127D-12      -225.11635850    393.412440   -0.31504   -0.48726    0.00274    9
   49      0.226D-11      0.138D-12      -225.11635850    393.412440   -0.31504   -0.48726    0.00274    9
   50      0.806D-12      0.124D-12      -225.11635850    393.412440   -0.31504   -0.48726    0.00274    9
   51      0.127D-11      0.158D-12      -225.11635850    393.412440   -0.31504   -0.48726    0.00274    9
   52      0.191D-11      0.138D-12      -225.11635850    393.412440   -0.31504   -0.48726    0.00274    9
   53      0.164D-11      0.124D-12      -225.11635850    393.412440   -0.31504   -0.48726    0.00274    9
   54      0.215D-11      0.134D-12      -225.11635850    393.412440   -0.31504   -0.48726    0.00274    9
   55      0.194D-11      0.124D-12      -225.11635850    393.412440   -0.31504   -0.48726    0.00274    9
   56      0.140D-11      0.144D-12      -225.11635850    393.412440   -0.31504   -0.48726    0.00274    9
   57      0.122D-11      0.125D-12      -225.11635850    393.412440   -0.31504   -0.48726    0.00274    9
   58      0.121D-11      0.115D-12      -225.11635850    393.412440   -0.31504   -0.48726    0.00274    9
   59      0.125D-11      0.189D-12      -225.11635850    393.412440   -0.31504   -0.48726    0.00274    0

 Final occupancy:  17

 !RHF STATE 1.1 Energy               -225.116358499390
 Nuclear energy                       117.39092814
 One-electron energy                 -539.21350672
 Two-electron energy                  196.70622009
 Virial quotient                       -1.00202871
 !RHF STATE 1.1 Dipole moment          -0.31503750    -0.48725720     0.00273579
 Dipole moment /Debye                  -0.80069302    -1.23840317     0.00695322

 Orbital energies:

         1.1          2.1          3.1          4.1          5.1          6.1          7.1          8.1          9.1         10.1
    -20.631001   -15.706140   -15.538935   -11.264000    -1.509512    -1.138830    -1.073864    -0.860842    -0.691315    -0.675043

        11.1         12.1         13.1         14.1         15.1         16.1         17.1         18.1         19.1
     -0.635976    -0.625104    -0.623079    -0.556380    -0.534573    -0.429259    -0.406681     0.028801     0.038554


 **********************************************************************************************************************************
 DATASETS  * FILE   NREC   LENGTH (MB)   RECORD NAMES
              1      19     8729.25       500      610      700      900      950      970     1000      129      960     1100   
                                          VAR    BASINP    GEOM    SYMINP    ZMAT    AOBASIS   BASIS     P2S    ABASIS      S 
                                         1400     1410     1200     1210     1080     1600     1650     1300     1700   
                                           T        V       H0       H01     AOSYM     SMH    MOLCAS    ERIS     OPER   

              2       3        2.54       700     1000     2100   
                                         GEOM     BASIS     RHF  

 PROGRAMS   *        TOTAL       RHF       INT
 CPU TIMES  *       600.84    545.00     55.80
 REAL TIME  *       712.92 SEC
 DISK USED  *        33.92 GB      
 GA USED    *         0.00 MB       (max)       0.00 MB       (current)
 **********************************************************************************************************************************


1PROGRAM * MP2 (Closed-shell)     Authors: C. Hampel, H.-J. Werner, 1991, M. Deegan, P.J. Knowles, 1992


 Convergence thresholds:  THRVAR = 1.00D-08  THRDEN = 1.00D-12

 Number of core orbitals:           4 (   4 )
 Number of closed-shell orbitals:  13 (  13 )
 Number of external orbitals:     305 ( 305 )

 Molecular orbitals read from record     2100.2  Type=RHF/CANONICAL (state 1.1)

 Number of N-1 electron functions:              13
 Number of N-2 electron functions:              91
 Number of singly external CSFs:              3965
 Number of doubly external CSFs:           7862595
 Total number of CSFs:                     7866561

 Length of J-op  integral file:               0.00 MB
 Length of K-op  integral file:               7.17 MB

 Integral transformation finished. Total CPU:  18.63 sec, npass=  1  Memory used:  17.90 MW

 Memory needed for MP2:                      0.51 MW

 SCS-MP2 correlation energy:           -0.859104152834   (PS=  1.200000  PT=  0.333333)
 SCS-MP2 total energy:               -225.975462652224


  Reference energy                   -225.116358499390
  MP2 singlet pair energy              -0.557131108233
  MP2 triplet pair energy              -0.306235965462
  MP2 correlation energy               -0.863367073695

 !MP2 total energy                   -225.979725573085


 **********************************************************************************************************************************
 DATASETS  * FILE   NREC   LENGTH (MB)   RECORD NAMES
              1      20     8844.50       500      610      700      900      950      970     1000      129      960     1100   
                                          VAR    BASINP    GEOM    SYMINP    ZMAT    AOBASIS   BASIS     P2S    ABASIS      S 
                                         1400     1410     1200     1210     1080     1600     1650     1300     1700     1380   
                                           T        V       H0       H01     AOSYM     SMH    MOLCAS    ERIS     OPER     JKOP   

              2       3        2.54       700     1000     2100   
                                         GEOM     BASIS     RHF  

 PROGRAMS   *        TOTAL       MP2       RHF       INT
 CPU TIMES  *       620.11     19.26    545.00     55.80
 REAL TIME  *       733.19 SEC
 DISK USED  *        33.92 GB      
 GA USED    *         0.00 MB       (max)       0.00 MB       (current)
 **********************************************************************************************************************************

        MP2             RHF-SCF 
   -225.97972557   -225.11635850
 **********************************************************************************************************************************
 Variable memory released
