
 Primary working directories    : /tmp/943417.47.gen6.q
 Secondary working directories  : /tmp/943417.47.gen6.q
 Wavefunction directory         : /home/vulcan/mel64643/wfu/
 Main file repository           : /tmp/943417.47.gen6.q/

 ARCHNAME  : Linux/x86_64
 FC        : /opt/intel/compilers_and_libraries_2016.1.150/linux/bin/intel64/ifort
 FCVERSION : 16.0.1
 BLASLIB   : -mkl
 id        : ccgc

 Nodes     nprocs
 n079         1
 ga_uses_ma=false, calling ma_init with nominal heap.
 GA-space will be limited to   8.0 MW (determined by -G option)

 Using customized tuning parameters: mindgm=10; mindgv=16; mindgc=4; mindgr=1; noblas=0; mincuda=1000; minvec=7
 default implementation of scratch files=df  

 ***,Optimization of nh3_nitrosmethane
 memory,1000,m
 gthresh,energy=1.0d-12,orbital=1.0d-10,oneint=1.0d-16,twoint=1.0d-16,optgrad=1.0d-6,compress=1.0d-13
 geomtyp=xyz
 
 bohr
 geometry = {
  N   -5.2223621454   -0.1835460570   -0.0041536920
  H   -6.2914687170    0.2414068347   -1.5321730217
  H   -3.7629342943    1.0563537349    0.0072416399
  H   -6.2957828778    0.2183687575    1.5270710825
  H   -0.9260610925   -2.3993191299    0.0075837860
  H    1.8760911419   -3.4361403584   -1.6658474466
  H    1.8859131975   -3.4312384663    1.6675146982
  C    1.1344489826   -2.4694776159    0.0016154863
  N    2.2649766468    0.0983076214   -0.0054917925
  O    0.7012976481    1.7823416881   -0.0033607401
 }
 
 basis=cc-pvdz
 {rhf;maxit,200}
 {ccsd(t);maxit,200}

 Variables initialized (661), CPU time= 0.00 sec
 Commands  initialized (458), CPU time= 0.01 sec, 486 directives.
 Default parameters read. Elapsed time= 0.04 sec

 Checking input...
 Passed
1


                                         ***  PROGRAM SYSTEM MOLPRO  ***
                         Copyright, University College Cardiff Consultants Limited, 2008

                                    Version 2010.1 linked May 16 2016 07:17:05


 **********************************************************************************************************************************
 LABEL *   Optimization of nh3_nitrosmethane                                             
 Linux-4.4.3/n079(x86_64) 64 bit mpp version                                             DATE: 25-Oct-23          TIME: 16:30:18  
 **********************************************************************************************************************************

 SHA1:             9e8077add272b0f3cad6f7df79ec5211205f459d
 **********************************************************************************************************************************

 THRESHOLDS:

 ZERO    =  1.00D-12  ONEINT  =  1.00D-16  TWOINT  =  1.00D-16  PREFAC  =  1.00D-14  LOCALI  =  1.00D-09  EORDER  =  1.00D-04
 ENERGY  =  1.00D-12  ETEST   =  0.00D+00  EDENS   =  0.00D+00  THRDEDEF=  1.00D-06  GRADIENT=  1.00D-02  STEP    =  1.00D-03
 ORBITAL =  1.00D-10  CIVEC   =  1.00D-05  COEFF   =  1.00D-04  PRINTCI =  5.00D-02  PUNCHCI =  9.90D+01  OPTGRAD =  1.00D-06
 OPTENERG=  1.00D-06  OPTSTEP =  3.00D-04  THRGRAD =  1.00D-10  COMPRESS=  1.00D-13  VARMIN  =  1.00D-07  VARMAX  =  1.00D-03
 THRDOUB =  0.00D+00  THRDIV  =  1.00D-05  THRRED  =  1.00D-07  THRPSP  =  1.00D+00  THRDC   =  1.00D-10  THRCS   =  1.00D-10
 THRNRM  =  1.00D-08  THREQ   =  0.00D+00  THRDE   =  1.00D+00  THRREF  =  1.00D-05  SPARFAC =  1.00D+00  THRDLP  =  1.00D-07
 THRDIA  =  1.00D-10  THRDLS  =  1.00D-07  THRGPS  =  0.00D+00  THRKEX  =  0.00D+00  THRDIS  =  2.00D-01  THRVAR  =  1.00D-10
 THRLOC  =  1.00D-06  THRGAP  =  1.00D-06  THRLOCT = -1.00D+00  THRGAPT = -1.00D+00  THRORB  =  1.00D-06  THRMLTP =  0.00D+00
 THRCPQCI=  1.00D-10  KEXTA   =  0.00D+00  THRCOARS=  0.00D+00  SYMTOL  =  1.00D-06  GRADTOL =  1.00D-06  THROVL  =  1.00D-08
 THRORTH =  1.00D-08  GRID    =  1.00D-06  GRIDMAX =  1.00D-03  DTMAX   =  0.00D+00

 SETTING GEOMTYP        =    XYZ
 ZUNIT=BOHR
 

 Variable memory set to 1000000000 words,  buffer space   230000 words

 SETTING BASIS          =    CC-PVDZ


 Recomputing integrals since basis changed


 Using spherical harmonics

 Library entry N      S cc-pVDZ              selected for orbital group  1
 Library entry N      P cc-pVDZ              selected for orbital group  1
 Library entry N      D cc-pVDZ              selected for orbital group  1
 Library entry H      S cc-pVDZ              selected for orbital group  2
 Library entry H      P cc-pVDZ              selected for orbital group  2
 Library entry C      S cc-pVDZ              selected for orbital group  3
 Library entry C      P cc-pVDZ              selected for orbital group  3
 Library entry C      D cc-pVDZ              selected for orbital group  3
 Library entry O      S cc-pVDZ              selected for orbital group  5
 Library entry O      P cc-pVDZ              selected for orbital group  5
 Library entry O      D cc-pVDZ              selected for orbital group  5

1PROGRAM * SEWARD (Integral evaluation for generally contracted gaussian basis sets)     Author: Roland Lindh, 1990

 Geometry written to block  1 of record 700


 Point group  C1  



 ATOMIC COORDINATES

 NR  ATOM    CHARGE       X              Y              Z

   1  N       7.00   -5.222362145   -0.183546057   -0.004153692
   2  H       1.00   -6.291468717    0.241406835   -1.532173022
   3  H       1.00   -3.762934294    1.056353735    0.007241640
   4  H       1.00   -6.295782878    0.218368758    1.527071083
   5  H       1.00   -0.926061093   -2.399319130    0.007583786
   6  H       1.00    1.876091142   -3.436140358   -1.665847447
   7  H       1.00    1.885913198   -3.431238466    1.667514698
   8  C       6.00    1.134448983   -2.469477616    0.001615486
   9  N       7.00    2.264976647    0.098307621   -0.005491793
  10  O       8.00    0.701297648    1.782341688   -0.003360740

 Bond lengths in Bohr (Angstrom)

 1-2  1.912698851  1-3  1.915048563  1-4  1.912698852  5-8  2.061712784  6-8  2.065164057
     ( 1.012156639)     ( 1.013400054)     ( 1.012156640)     ( 1.091011417)     ( 1.092837752)

  7- 8  2.065164057   8- 9  2.805648648   9-10  2.298057286
       ( 1.092837752)       ( 1.484685321)       ( 1.216079541)

 Bond angles

  2-1-3  106.67095157   2-1-4  106.21107824   3-1-4  106.67095176   5-8-6  112.15889684

  5-8-7  112.15889729   5-8-9  111.81278676   6-8-7  107.61735241   6-8-9  106.35838692

  7- 8- 9  106.35838715   8- 9-10  113.35946296

 NUCLEAR CHARGE:                   34
 NUMBER OF PRIMITIVE AOS:         150
 NUMBER OF SYMMETRY AOS:          146
 NUMBER OF CONTRACTIONS:           86   (  86A   )
 NUMBER OF CORE ORBITALS:           4   (   4A   )
 NUMBER OF VALENCE ORBITALS:       22   (  22A   )


 NUCLEAR REPULSION ENERGY  117.43776176


 Eigenvalues of metric

         1 0.629E-02 0.972E-02 0.151E-01 0.180E-01 0.298E-01 0.370E-01 0.392E-01 0.404E-01


 Contracted 2-electron integrals neglected if value below      1.0D-16
 AO integral compression algorithm  1   Integral accuracy      1.0D-16

     52.953 MB (compressed) written to integral file ( 82.8%)

     Node minimum: 52.953 MB, node maximum: 52.953 MB


 NUMBER OF SORTED TWO-ELECTRON INTEGRALS:    6999411.     BUFFER LENGTH:  32768
 NUMBER OF SEGMENTS:   1  SEGMENT LENGTH:    6999411      RECORD LENGTH: 524288

 Memory used in sort:       7.56 MW

 SORT1 READ     8004718. AND WROTE     6871305. INTEGRALS IN     20 RECORDS. CPU TIME:     0.07 SEC, REAL TIME:     0.11 SEC
 SORT2 READ     6871305. AND WROTE     6999411. INTEGRALS IN    202 RECORDS. CPU TIME:     0.09 SEC, REAL TIME:     0.11 SEC

 FILE SIZES:   FILE 1:    48.7 MBYTE,  FILE 4:    83.9 MBYTE,   TOTAL:    132.6 MBYTE

 OPERATOR DM      FOR CENTER  0  COORDINATES:    0.000000    0.000000    0.000000


 **********************************************************************************************************************************
 DATASETS  * FILE   NREC   LENGTH (MB)   RECORD NAMES
              1      19       48.79       500      610      700      900      950      970     1000      129      960     1100   
                                          VAR    BASINP    GEOM    SYMINP    ZMAT    AOBASIS   BASIS     P2S    ABASIS      S 
                                         1400     1410     1200     1210     1080     1600     1650     1300     1700   
                                           T        V       H0       H01     AOSYM     SMH    MOLCAS    ERIS     OPER   

 PROGRAMS   *        TOTAL       INT
 CPU TIMES  *         0.76      0.72
 REAL TIME  *         1.04 SEC
 DISK USED  *       186.35 MB      
 GA USED    *         0.00 MB       (max)       0.00 MB       (current)
 **********************************************************************************************************************************

1PROGRAM * RHF-SCF (CLOSED SHELL)       Authors: W. Meyer, H.-J. Werner


 NUMBER OF ELECTRONS:      17+   17-    SPACE SYMMETRY=1    SPIN SYMMETRY: Singlet 
 CONVERGENCE THRESHOLDS:    1.00E-10 (Density)    1.00E-13 (Energy)
 MAX. NUMBER OF ITERATIONS:      200
 INTERPOLATION TYPE:            DIIS
 INTERPOLATION STEPS:              2 (START)      1 (STEP)
 LEVEL SHIFTS:                  0.00 (CLOSED)  0.00 (OPEN) 



 Orbital guess generated from atomic densities. Full valence occupancy:   26

 Molecular orbital dump at record        2100.2

 ITERATION    DDIFF          GRAD             ENERGY        2-EL.EN.            DIPOLE MOMENTS         DIIS
    1      0.000D+00      0.000D+00      -224.94601692    393.885135    0.10292   -0.57278    0.00688    0
    2      0.000D+00      0.101D-01      -225.00738548    393.331423   -0.59331   -0.30298    0.00601    1
    3      0.189D-01      0.693D-02      -225.04005571    393.847567   -0.25049   -0.51486    0.00571    2
    4      0.826D-02      0.139D-02      -225.04222086    393.739693   -0.32964   -0.42303    0.00591    3
    5      0.217D-02      0.531D-03      -225.04259798    393.735736   -0.33100   -0.44955    0.00588    4
    6      0.909D-03      0.128D-03      -225.04263444    393.757760   -0.33588   -0.44776    0.00590    5
    7      0.304D-03      0.510D-04      -225.04264023    393.745693   -0.33749   -0.44798    0.00590    6
    8      0.124D-03      0.197D-04      -225.04264108    393.751238   -0.33826   -0.44796    0.00591    7
    9      0.432D-04      0.821D-05      -225.04264125    393.749872   -0.33844   -0.44766    0.00590    8
   10      0.224D-04      0.229D-05      -225.04264126    393.749705   -0.33849   -0.44750    0.00591    8
   11      0.656D-05      0.690D-06      -225.04264126    393.749753   -0.33851   -0.44743    0.00591    8
   12      0.186D-05      0.220D-06      -225.04264126    393.749716   -0.33851   -0.44741    0.00591    8
   13      0.750D-06      0.697D-07      -225.04264126    393.749711   -0.33852   -0.44740    0.00591    8
   14      0.180D-06      0.347D-07      -225.04264126    393.749712   -0.33852   -0.44740    0.00591    8
   15      0.906D-07      0.832D-08      -225.04264126    393.749712   -0.33852   -0.44740    0.00591    8
   16      0.167D-07      0.484D-08      -225.04264126    393.749712   -0.33852   -0.44740    0.00591    8
   17      0.137D-07      0.356D-08      -225.04264126    393.749712   -0.33852   -0.44740    0.00591    8
   18      0.232D-07      0.176D-08      -225.04264126    393.749712   -0.33852   -0.44740    0.00591    8
   19      0.154D-07      0.604D-09      -225.04264126    393.749712   -0.33852   -0.44740    0.00591    9
   20      0.489D-08      0.122D-09      -225.04264126    393.749712   -0.33852   -0.44740    0.00591    9
   21      0.402D-09      0.329D-10      -225.04264126    393.749712   -0.33852   -0.44740    0.00591    9
   22      0.995D-10      0.756D-11      -225.04264126    393.749712   -0.33852   -0.44740    0.00591    8
   23      0.211D-10      0.256D-11      -225.04264126    393.749712   -0.33852   -0.44740    0.00591    9
   24      0.676D-11      0.102D-11      -225.04264126    393.749712   -0.33852   -0.44740    0.00591    0

 Final occupancy:  17

 !RHF STATE 1.1 Energy               -225.042641262623
 Nuclear energy                       117.43776176
 One-electron energy                 -539.35525889
 Two-electron energy                  196.87485586
 Virial quotient                       -1.00149683
 !RHF STATE 1.1 Dipole moment          -0.33851535    -0.44740336     0.00590609
 Dipole moment /Debye                  -0.86036384    -1.13711144     0.01501079

 Orbital energies:

         1.1          2.1          3.1          4.1          5.1          6.1          7.1          8.1          9.1         10.1
    -20.625996   -15.699044   -15.536325   -11.265756    -1.506705    -1.132271    -1.070037    -0.855353    -0.684644    -0.667595

        11.1         12.1         13.1         14.1         15.1         16.1         17.1         18.1         19.1
     -0.630859    -0.616269    -0.615036    -0.550642    -0.527750    -0.420309    -0.398185     0.109554     0.187298


 **********************************************************************************************************************************
 DATASETS  * FILE   NREC   LENGTH (MB)   RECORD NAMES
              1      19       48.79       500      610      700      900      950      970     1000      129      960     1100   
                                          VAR    BASINP    GEOM    SYMINP    ZMAT    AOBASIS   BASIS     P2S    ABASIS      S 
                                         1400     1410     1200     1210     1080     1600     1650     1300     1700   
                                           T        V       H0       H01     AOSYM     SMH    MOLCAS    ERIS     OPER   

              2       3        0.57       700     1000     2100   
                                         GEOM     BASIS     RHF  

 PROGRAMS   *        TOTAL       RHF       INT
 CPU TIMES  *         1.86      1.10      0.72
 REAL TIME  *         2.29 SEC
 DISK USED  *       186.35 MB      
 GA USED    *         0.00 MB       (max)       0.00 MB       (current)
 **********************************************************************************************************************************


1PROGRAM * CCSD (Closed-shell coupled cluster)     Authors: C. Hampel, H.-J. Werner, 1991, M. Deegan, P.J. Knowles, 1992


 Convergence thresholds:  THRVAR = 1.00D-08  THRDEN = 1.00D-12

 CCSD(T)     terms to be evaluated (factor= 1.000)


 Number of core orbitals:           4 (   4 )
 Number of closed-shell orbitals:  13 (  13 )
 Number of external orbitals:      69 (  69 )

 Molecular orbitals read from record     2100.2  Type=RHF/CANONICAL (state 1.1)

 Number of N-1 electron functions:              13
 Number of N-2 electron functions:              91
 Number of singly external CSFs:               897
 Number of doubly external CSFs:            402753
 Total number of CSFs:                      403651

 Length of J-op  integral file:               0.00 MB
 Length of K-op  integral file:               0.54 MB
 Length of 3-ext integral record:             0.00 MB

 Memory could be reduced to 6.46 Mwords without degradation in triples

 Integral transformation finished. Total CPU:   0.25 sec, npass=  1  Memory used:   5.81 MW

 Reference energy:                   -225.04264126

 MP2 singlet pair energy:              -0.42972719
 MP2 triplet pair energy:              -0.25001838
 MP2 correlation energy:               -0.67974557
 MP2 total energy:                   -225.72238683

 SCS-MP2 correlation energy:           -0.67123962   (PS=  1.200000  PT=  0.333333)
 SCS-MP2 total energy:               -225.71388088

 ITER.      SQ.NORM     CORR.ENERGY   TOTAL ENERGY   ENERGY CHANGE        DEN1      VAR(S)    VAR(P)  DIIS     TIME
   1      1.22658797    -0.71552724  -225.75816850    -0.03578167    -0.01325528  0.44D-02  0.46D-02  1  1     0.93
   2      1.24723199    -0.71882759  -225.76146885    -0.00330035    -0.02055897  0.13D-03  0.82D-03  2  2     1.61
   3      1.25617708    -0.71951317  -225.76215443    -0.00068558    -0.00429918  0.10D-03  0.59D-04  3  3     2.29
   4      1.25989817    -0.71950372  -225.76214498     0.00000945    -0.00126677  0.77D-05  0.10D-04  4  4     2.97
   5      1.26133069    -0.71952329  -225.76216455    -0.00001956    -0.00032463  0.14D-05  0.17D-05  5  5     3.65
   6      1.26172943    -0.71949566  -225.76213692     0.00002763    -0.00004685  0.78D-07  0.36D-06  6  6     4.34
   7      1.26181966    -0.71949383  -225.76213509     0.00000182    -0.00000207  0.20D-07  0.96D-07  6  2     5.02
   8      1.26184200    -0.71949391  -225.76213518    -0.00000008     0.00000227  0.86D-08  0.24D-07  6  5     5.70
   9      1.26183721    -0.71949478  -225.76213604    -0.00000087     0.00000161  0.17D-08  0.27D-08  6  1     6.38
  10      1.26183716    -0.71949505  -225.76213631    -0.00000026    -0.00000145  0.39D-09  0.30D-09  6  3     7.07
  11      1.26183565    -0.71949531  -225.76213657    -0.00000027     0.00000088  0.77D-10  0.49D-10  6  4     7.75
  12      1.26183492    -0.71949537  -225.76213664    -0.00000006     0.00000022  0.19D-10  0.10D-10  6  6     8.43
  13      1.26183419    -0.71949541  -225.76213667    -0.00000003     0.00000017  0.35D-11  0.17D-11  6  2     9.12
  14      1.26183382    -0.71949543  -225.76213669    -0.00000002     0.00000012  0.73D-12  0.47D-12  6  1     9.81
  15      1.26183355    -0.71949544  -225.76213670    -0.00000001     0.00000005  0.10D-12  0.74D-13  6  5    10.49
  16      1.26183349    -0.71949544  -225.76213670    -0.00000000     0.00000001  0.46D-13  0.28D-13  6  3    11.18
  17      1.26183346    -0.71949544  -225.76213670    -0.00000000     0.00000001  0.25D-13  0.94D-14  6  4    11.87
  18      1.26183345    -0.71949544  -225.76213670    -0.00000000    -0.00000000  0.16D-13  0.29D-14  6  6    12.55
  19      1.26183345    -0.71949544  -225.76213670     0.00000000    -0.00000000  0.10D-13  0.12D-14  6  4    13.23
  20      1.26183345    -0.71949544  -225.76213670     0.00000000    -0.00000000  0.42D-14  0.72D-15  6  2    13.91
  21      1.26183345    -0.71949544  -225.76213670     0.00000000     0.00000000  0.16D-14  0.48D-15  6  1    14.59
  22      1.26183345    -0.71949544  -225.76213670    -0.00000000     0.00000000  0.35D-15  0.20D-15  6  5    15.28
  23      1.26183345    -0.71949544  -225.76213670     0.00000000    -0.00000000  0.40D-16  0.64D-16  6  4    15.96
  24      1.26183345    -0.71949544  -225.76213670    -0.00000000    -0.00000000  0.32D-17  0.52D-17  6  3    16.64
  25      1.26183345    -0.71949544  -225.76213670     0.00000000    -0.00000000  0.71D-18  0.93D-18  6  6    17.33
  26      1.26183345    -0.71949544  -225.76213670     0.00000000    -0.00000000  0.12D-18  0.13D-18  6  5    18.01
  27      1.26183345    -0.71949544  -225.76213670     0.00000000    -0.00000000  0.31D-19  0.11D-19  6  3    18.70
  28      1.26183345    -0.71949544  -225.76213670     0.00000000    -0.00000000  0.10D-19  0.34D-20  6  2    19.38

 Norm of t1 vector:      0.10002589      S-energy:    -0.00000000      T1 diagnostic:  0.01387110
                                                                       D1 diagnostic:  0.05074940

 Doubles amplitudes (print threshold =  0.500E-01):

         I         J         SYM. A    SYM. B    A         B      T(IJ, AB)

         7         7         1         1         1         1     -0.06078633
        11         7         1         1         1         1     -0.06595096
        11        11         1         1         1         1     -0.09635705


 Total CPU time for triples:      6.17 sec


 RESULTS
 =======

  Reference energy                   -225.042641262623
  CCSD singlet pair energy             -0.498802491712
  CCSD triplet pair energy             -0.220692949587
  CCSD correlation energy              -0.719495441301

  Triples (T) contribution             -0.021651821126
  Total correlation energy             -0.741147262427

  CCSD total energy                  -225.762136703924
  CCSD[T] energy                     -225.785162074376
  CCSD-T energy                      -225.783385674775
 !CCSD(T) total energy               -225.783788525050

 Timing summary (sec):

 STEP                 CPU(USER)    SYS     CPU(TOT)    WALL
 Transformation          0.27      0.03      0.30      0.31
 CCSD iterations        19.11      0.65     19.76     19.80
 Triples                 6.17      0.16      6.33      6.33

 Program statistics:

 Available memory in ccsd:               999999224
 Min. memory needed in ccsd:               1143606
 Max. memory used in ccsd:                 1480488
 Max. memory used in cckext:               1471436 (28 integral passes)



 **********************************************************************************************************************************
 DATASETS  * FILE   NREC   LENGTH (MB)   RECORD NAMES
              1      20       74.41       500      610      700      900      950      970     1000      129      960     1100   
                                          VAR    BASINP    GEOM    SYMINP    ZMAT    AOBASIS   BASIS     P2S    ABASIS      S 
                                         1400     1410     1200     1210     1080     1600     1650     1300     1700     1380   
                                           T        V       H0       H01     AOSYM     SMH    MOLCAS    ERIS     OPER     JKOP   

              2       3        0.57       700     1000     2100   
                                         GEOM     BASIS     RHF  

 PROGRAMS   *        TOTAL   CCSD(T)       RHF       INT
 CPU TIMES  *        27.43     25.57      1.10      0.72
 REAL TIME  *        28.76 SEC
 DISK USED  *       198.99 MB      
 GA USED    *         0.00 MB       (max)       0.00 MB       (current)
 **********************************************************************************************************************************

        CCSD(T)         RHF-SCF 
   -225.78378853   -225.04264126
 **********************************************************************************************************************************
 Variable memory released
