
 Primary working directories    : /tmp/943183.520.gen5.q
 Secondary working directories  : /tmp/943183.520.gen5.q
 Wavefunction directory         : /home/vulcan/mel64643/wfu/
 Main file repository           : /tmp/943183.520.gen5.q/

 ARCHNAME  : Linux/x86_64
 FC        : /opt/intel/compilers_and_libraries_2016.1.150/linux/bin/intel64/ifort
 FCVERSION : 16.0.1
 BLASLIB   : -mkl
 id        : ccgc

 Nodes     nprocs
 n073         1
 ga_uses_ma=false, calling ma_init with nominal heap.
 GA-space will be limited to   8.0 MW (determined by -G option)

 Using customized tuning parameters: mindgm=10; mindgv=16; mindgc=4; mindgr=1; noblas=0; mincuda=1000; minvec=7
 default implementation of scratch files=df  

 ***,Optimization of h2o_2
 memory,1000,m
 gthresh,energy=1.0d-12,orbital=1.0d-10,oneint=1.0d-16,twoint=1.0d-16,optgrad=1.0d-6,compress=1.0d-13
 geomtyp=xyz
 
 bohr
 geometry = {
  C   -0.0041462675   -3.4227369458    0.0003874002
  H   -0.9795365312   -2.7234552262   -1.6737316432
  H   -0.9760433781   -2.7515992844    1.6880028478
  H    1.9336252237   -2.7241101595    0.0042227047
  H    0.0053265400   -5.4824547512   -0.0168661677
  C    0.0007267847    3.4207591132   -0.0015989873
  H   -0.0113263457    5.4804880212   -0.0156114451
  H    0.9855081495    2.7351111971   -1.6758594861
  H    0.9785065772    2.7579405055    1.6859061531
  H   -1.9326407526    2.7100575302    0.0051486235
 }
 
 basis=AVDZ, H=VDZ
 {rhf;maxit,200}
 {ccsd(t);maxit,200}

 Variables initialized (661), CPU time= 0.00 sec
 Commands  initialized (458), CPU time= 0.01 sec, 486 directives.
 Default parameters read. Elapsed time= 0.05 sec

 Checking input...
 Passed
1


                                         ***  PROGRAM SYSTEM MOLPRO  ***
                         Copyright, University College Cardiff Consultants Limited, 2008

                                    Version 2010.1 linked May 16 2016 07:17:05


 **********************************************************************************************************************************
 LABEL *   Optimization of h2o_2                                                         
 Linux-4.4.3/n073(x86_64) 64 bit mpp version                                             DATE: 23-Oct-23          TIME: 12:01:19  
 **********************************************************************************************************************************

 SHA1:             9e8077add272b0f3cad6f7df79ec5211205f459d
 **********************************************************************************************************************************

 THRESHOLDS:

 ZERO    =  1.00D-12  ONEINT  =  1.00D-16  TWOINT  =  1.00D-16  PREFAC  =  1.00D-14  LOCALI  =  1.00D-09  EORDER  =  1.00D-04
 ENERGY  =  1.00D-12  ETEST   =  0.00D+00  EDENS   =  0.00D+00  THRDEDEF=  1.00D-06  GRADIENT=  1.00D-02  STEP    =  1.00D-03
 ORBITAL =  1.00D-10  CIVEC   =  1.00D-05  COEFF   =  1.00D-04  PRINTCI =  5.00D-02  PUNCHCI =  9.90D+01  OPTGRAD =  1.00D-06
 OPTENERG=  1.00D-06  OPTSTEP =  3.00D-04  THRGRAD =  1.00D-10  COMPRESS=  1.00D-13  VARMIN  =  1.00D-07  VARMAX  =  1.00D-03
 THRDOUB =  0.00D+00  THRDIV  =  1.00D-05  THRRED  =  1.00D-07  THRPSP  =  1.00D+00  THRDC   =  1.00D-10  THRCS   =  1.00D-10
 THRNRM  =  1.00D-08  THREQ   =  0.00D+00  THRDE   =  1.00D+00  THRREF  =  1.00D-05  SPARFAC =  1.00D+00  THRDLP  =  1.00D-07
 THRDIA  =  1.00D-10  THRDLS  =  1.00D-07  THRGPS  =  0.00D+00  THRKEX  =  0.00D+00  THRDIS  =  2.00D-01  THRVAR  =  1.00D-10
 THRLOC  =  1.00D-06  THRGAP  =  1.00D-06  THRLOCT = -1.00D+00  THRGAPT = -1.00D+00  THRORB  =  1.00D-06  THRMLTP =  0.00D+00
 THRCPQCI=  1.00D-10  KEXTA   =  0.00D+00  THRCOARS=  0.00D+00  SYMTOL  =  1.00D-06  GRADTOL =  1.00D-06  THROVL  =  1.00D-08
 THRORTH =  1.00D-08  GRID    =  1.00D-06  GRIDMAX =  1.00D-03  DTMAX   =  0.00D+00

 SETTING GEOMTYP        =    XYZ
 ZUNIT=BOHR
 

 Variable memory set to 1000000000 words,  buffer space   230000 words

 SETTING BASIS          =    AVDZ,H=VDZ


 Recomputing integrals since basis changed


 Using spherical harmonics

 Library entry C      S aug-cc-pVDZ          selected for orbital group  1
 Library entry C      P aug-cc-pVDZ          selected for orbital group  1
 Library entry C      D aug-cc-pVDZ          selected for orbital group  1
 Library entry H      S cc-pVDZ              selected for orbital group  2
 Library entry H      P cc-pVDZ              selected for orbital group  2

1PROGRAM * SEWARD (Integral evaluation for generally contracted gaussian basis sets)     Author: Roland Lindh, 1990

 Geometry written to block  1 of record 700


 Point group  C1  



 ATOMIC COORDINATES

 NR  ATOM    CHARGE       X              Y              Z

   1  C       6.00   -0.004146268   -3.422736946    0.000387400
   2  H       1.00   -0.979536531   -2.723455226   -1.673731643
   3  H       1.00   -0.976043378   -2.751599284    1.688002848
   4  H       1.00    1.933625224   -2.724110159    0.004222705
   5  H       1.00    0.005326540   -5.482454751   -0.016866168
   6  C       6.00    0.000726785    3.420759113   -0.001598987
   7  H       1.00   -0.011326346    5.480488021   -0.015611445
   8  H       1.00    0.985508149    2.735111197   -1.675859486
   9  H       1.00    0.978506577    2.757940506    1.685906153
  10  H       1.00   -1.932640753    2.710057530    0.005148624

 Bond lengths in Bohr (Angstrom)

 1-2  2.059867875  1-3  2.059867873  1-4  2.059867095  1-5  2.059811850  6-7  2.059811836
     ( 1.090035133)     ( 1.090035132)     ( 1.090034720)     ( 1.090005486)     ( 1.090005479)

  6- 8  2.059867864   6- 9  2.059867818   6-10  2.059867060
       ( 1.090035127)       ( 1.090035103)       ( 1.090034702)

 Bond angles

  2-1-3  109.37992571   2-1-4  109.37980993   2-1-5  109.56240818   3-1-4  109.37980974

  3-1-5  109.56240829   4-1-5  109.56250045   7-6-8  109.27575310   7-6-9  109.27575386

  7- 6-10  109.84880291   8- 6- 9  109.37975172   8- 6-10  109.66611342   9- 6-10  109.37963313

 NUCLEAR CHARGE:                   20
 NUMBER OF PRIMITIVE AOS:         130
 NUMBER OF SYMMETRY AOS:          126
 NUMBER OF CONTRACTIONS:           86   (  86A   )
 NUMBER OF CORE ORBITALS:           2   (   2A   )
 NUMBER OF VALENCE ORBITALS:       16   (  16A   )


 NUCLEAR REPULSION ENERGY   41.33957027


 Eigenvalues of metric

         1 0.535E-02 0.665E-02 0.907E-02 0.114E-01 0.117E-01 0.117E-01 0.140E-01 0.140E-01


 Contracted 2-electron integrals neglected if value below      1.0D-16
 AO integral compression algorithm  1   Integral accuracy      1.0D-16

     58.196 MB (compressed) written to integral file ( 88.5%)

     Node minimum: 58.196 MB, node maximum: 58.196 MB


 NUMBER OF SORTED TWO-ELECTRON INTEGRALS:    6999411.     BUFFER LENGTH:  32768
 NUMBER OF SEGMENTS:   1  SEGMENT LENGTH:    6999411      RECORD LENGTH: 524288

 Memory used in sort:       7.56 MW

 SORT1 READ     8242194. AND WROTE     6861231. INTEGRALS IN     20 RECORDS. CPU TIME:     0.08 SEC, REAL TIME:     0.12 SEC
 SORT2 READ     6861231. AND WROTE     6999411. INTEGRALS IN    222 RECORDS. CPU TIME:     0.09 SEC, REAL TIME:     0.12 SEC

 FILE SIZES:   FILE 1:    52.6 MBYTE,  FILE 4:    83.9 MBYTE,   TOTAL:    136.5 MBYTE

 OPERATOR DM      FOR CENTER  0  COORDINATES:    0.000000    0.000000    0.000000


 **********************************************************************************************************************************
 DATASETS  * FILE   NREC   LENGTH (MB)   RECORD NAMES
              1      19       52.68       500      610      700      900      950      970     1000      129      960     1100   
                                          VAR    BASINP    GEOM    SYMINP    ZMAT    AOBASIS   BASIS     P2S    ABASIS      S 
                                         1400     1410     1200     1210     1080     1600     1650     1300     1700   
                                           T        V       H0       H01     AOSYM     SMH    MOLCAS    ERIS     OPER   

 PROGRAMS   *        TOTAL       INT
 CPU TIMES  *         0.77      0.73
 REAL TIME  *         1.12 SEC
 DISK USED  *       195.47 MB      
 GA USED    *         0.00 MB       (max)       0.00 MB       (current)
 **********************************************************************************************************************************

1PROGRAM * RHF-SCF (CLOSED SHELL)       Authors: W. Meyer, H.-J. Werner


 NUMBER OF ELECTRONS:      10+   10-    SPACE SYMMETRY=1    SPIN SYMMETRY: Singlet 
 CONVERGENCE THRESHOLDS:    1.00E-10 (Density)    1.00E-13 (Energy)
 MAX. NUMBER OF ITERATIONS:      200
 INTERPOLATION TYPE:            DIIS
 INTERPOLATION STEPS:              2 (START)      1 (STEP)
 LEVEL SHIFTS:                  0.00 (CLOSED)  0.00 (OPEN) 



 Orbital guess generated from atomic densities. Full valence occupancy:   18

 Molecular orbital dump at record        2100.2

 ITERATION    DDIFF          GRAD             ENERGY        2-EL.EN.            DIPOLE MOMENTS         DIIS
    1      0.000D+00      0.000D+00       -80.36119934    134.776424    0.00262    0.00156    0.00096    0
    2      0.000D+00      0.502D-02       -80.39313861    132.487084    0.00092    0.00064    0.00041    1
    3      0.106D-01      0.186D-02       -80.39709282    133.308083    0.00125    0.00077    0.00043    2
    4      0.347D-02      0.507D-03       -80.39767642    133.175750    0.00110    0.00068    0.00035    3
    5      0.114D-02      0.611D-04       -80.39768424    133.183136    0.00109    0.00067    0.00033    4
    6      0.162D-03      0.345D-05       -80.39768427    133.182968    0.00109    0.00067    0.00033    5
    7      0.156D-04      0.267D-06       -80.39768427    133.182958    0.00108    0.00067    0.00033    5
    8      0.864D-06      0.480D-07       -80.39768427    133.182958    0.00108    0.00067    0.00033    4
    9      0.114D-06      0.815D-08       -80.39768427    133.182959    0.00108    0.00067    0.00033    4
   10      0.229D-07      0.141D-08       -80.39768427    133.182959    0.00108    0.00067    0.00033    5
   11      0.345D-08      0.338D-09       -80.39768427    133.182959    0.00108    0.00067    0.00033    5
   12      0.760D-09      0.955D-10       -80.39768427    133.182959    0.00108    0.00067    0.00033    6
   13      0.241D-09      0.192D-10       -80.39768427    133.182959    0.00108    0.00067    0.00033    6
   14      0.473D-10      0.391D-11       -80.39768427    133.182959    0.00108    0.00067    0.00033    6
   15      0.154D-10      0.469D-12       -80.39768427    133.182959    0.00108    0.00067    0.00033    0

 Final occupancy:  10

 !RHF STATE 1.1 Energy                -80.397684272502
 Nuclear energy                        41.33957027
 One-electron energy                 -188.32873407
 Two-electron energy                   66.59147952
 Virial quotient                       -1.00212544
 !RHF STATE 1.1 Dipole moment           0.00108455     0.00067161     0.00033229
 Dipole moment /Debye                   0.00275648     0.00170694     0.00084455

 Orbital energies:

         1.1          2.1          3.1          4.1          5.1          6.1          7.1          8.1          9.1         10.1
    -11.215481   -11.215454    -0.945461    -0.939587    -0.550627    -0.546632    -0.546222    -0.539251    -0.538893    -0.535278

        11.1         12.1
      0.080171     0.084242


 **********************************************************************************************************************************
 DATASETS  * FILE   NREC   LENGTH (MB)   RECORD NAMES
              1      19       52.68       500      610      700      900      950      970     1000      129      960     1100   
                                          VAR    BASINP    GEOM    SYMINP    ZMAT    AOBASIS   BASIS     P2S    ABASIS      S 
                                         1400     1410     1200     1210     1080     1600     1650     1300     1700   
                                           T        V       H0       H01     AOSYM     SMH    MOLCAS    ERIS     OPER   

              2       3        0.57       700     1000     2100   
                                         GEOM     BASIS     RHF  

 PROGRAMS   *        TOTAL       RHF       INT
 CPU TIMES  *         1.61      0.84      0.73
 REAL TIME  *         2.08 SEC
 DISK USED  *       195.47 MB      
 GA USED    *         0.00 MB       (max)       0.00 MB       (current)
 **********************************************************************************************************************************


1PROGRAM * CCSD (Closed-shell coupled cluster)     Authors: C. Hampel, H.-J. Werner, 1991, M. Deegan, P.J. Knowles, 1992


 Convergence thresholds:  THRVAR = 1.00D-08  THRDEN = 1.00D-12

 CCSD(T)     terms to be evaluated (factor= 1.000)


 Number of core orbitals:           2 (   2 )
 Number of closed-shell orbitals:   8 (   8 )
 Number of external orbitals:      76 (  76 )

 Molecular orbitals read from record     2100.2  Type=RHF/CANONICAL (state 1.1)

 Number of N-1 electron functions:               8
 Number of N-2 electron functions:              36
 Number of singly external CSFs:               608
 Number of doubly external CSFs:            185136
 Total number of CSFs:                      185745

 Length of J-op  integral file:               0.00 MB
 Length of K-op  integral file:               0.54 MB
 Length of 3-ext integral record:             0.00 MB

 Memory could be reduced to 5.45 Mwords without degradation in triples

 Integral transformation finished. Total CPU:   0.21 sec, npass=  1  Memory used:   3.53 MW

 Reference energy:                    -80.39768427

 MP2 singlet pair energy:              -0.23821333
 MP2 triplet pair energy:              -0.09578742
 MP2 correlation energy:               -0.33400075
 MP2 total energy:                    -80.73168502

 SCS-MP2 correlation energy:           -0.34545706   (PS=  1.200000  PT=  0.333333)
 SCS-MP2 total energy:                -80.74314133

 ITER.      SQ.NORM     CORR.ENERGY   TOTAL ENERGY   ENERGY CHANGE        DEN1      VAR(S)    VAR(P)  DIIS     TIME
   1      1.13988368    -0.37811867   -80.77580294    -0.04411792    -0.03297260  0.68D-03  0.24D-02  1  1     0.51
   2      1.15302638    -0.38091208   -80.77859635    -0.00279341    -0.01280918  0.15D-04  0.11D-03  2  2     0.84
   3      1.15509740    -0.38105026   -80.77873453    -0.00013818    -0.00107892  0.24D-05  0.62D-05  3  3     1.16
   4      1.15552551    -0.38106790   -80.77875217    -0.00001764    -0.00017342  0.60D-07  0.37D-06  4  4     1.49
   5      1.15558606    -0.38106394   -80.77874822     0.00000395    -0.00002810  0.29D-08  0.21D-07  5  5     1.81
   6      1.15558830    -0.38106330   -80.77874757     0.00000064    -0.00000061  0.19D-09  0.15D-08  6  6     2.14
   7      1.15558847    -0.38106358   -80.77874785    -0.00000028     0.00000005  0.15D-10  0.95D-10  6  1     2.46
   8      1.15558853    -0.38106359   -80.77874786    -0.00000001    -0.00000009  0.18D-11  0.64D-11  6  2     2.79
   9      1.15558845    -0.38106359   -80.77874786     0.00000000     0.00000002  0.37D-12  0.44D-12  6  4     3.11
  10      1.15558844    -0.38106359   -80.77874786    -0.00000000    -0.00000000  0.29D-13  0.33D-13  6  3     3.44
  11      1.15558843    -0.38106359   -80.77874786    -0.00000000     0.00000000  0.24D-14  0.30D-14  6  5     3.76
  12      1.15558842    -0.38106359   -80.77874786    -0.00000000     0.00000000  0.20D-15  0.31D-15  6  6     4.08
  13      1.15558842    -0.38106359   -80.77874786    -0.00000000     0.00000000  0.12D-16  0.39D-16  6  1     4.41
  14      1.15558842    -0.38106359   -80.77874786    -0.00000000     0.00000000  0.16D-17  0.49D-17  6  2     4.74
  15      1.15558842    -0.38106359   -80.77874786    -0.00000000     0.00000000  0.11D-18  0.51D-18  6  4     5.07
  16      1.15558842    -0.38106359   -80.77874786    -0.00000000     0.00000000  0.11D-19  0.44D-19  6  3     5.39
  17      1.15558842    -0.38106359   -80.77874786     0.00000000    -0.00000000  0.21D-21  0.38D-20  6  6     5.72
  18      1.15558842    -0.38106359   -80.77874786     0.00000000    -0.00000000  0.34D-22  0.80D-22  6  5     6.04

 Norm of t1 vector:      0.03875614      S-energy:    -0.00000000      T1 diagnostic:  0.00685118
                                                                       D1 diagnostic:  0.01214783


 Total CPU time for triples:      2.82 sec


 RESULTS
 =======

  Reference energy                    -80.397684272502
  CCSD singlet pair energy             -0.287790407869
  CCSD triplet pair energy             -0.093273183800
  CCSD correlation energy              -0.381063591669

  Triples (T) contribution             -0.008788105747
  Total correlation energy             -0.389851697416

  CCSD total energy                   -80.778747864171
  CCSD[T] energy                      -80.787750586790
  CCSD-T energy                       -80.787423917805
 !CCSD(T) total energy                -80.787535969918

 Timing summary (sec):

 STEP                 CPU(USER)    SYS     CPU(TOT)    WALL
 Transformation          0.22      0.03      0.25      0.25
 CCSD iterations         5.82      0.30      6.12      6.14
 Triples                 2.82      0.06      2.88      2.88

 Program statistics:

 Available memory in ccsd:               999999644
 Min. memory needed in ccsd:                591289
 Max. memory used in ccsd:                  742713
 Max. memory used in cckext:                619606 (18 integral passes)



 **********************************************************************************************************************************
 DATASETS  * FILE   NREC   LENGTH (MB)   RECORD NAMES
              1      20       70.26       500      610      700      900      950      970     1000      129      960     1100   
                                          VAR    BASINP    GEOM    SYMINP    ZMAT    AOBASIS   BASIS     P2S    ABASIS      S 
                                         1400     1410     1200     1210     1080     1600     1650     1300     1700     1380   
                                           T        V       H0       H01     AOSYM     SMH    MOLCAS    ERIS     OPER     JKOP   

              2       3        0.57       700     1000     2100   
                                         GEOM     BASIS     RHF  

 PROGRAMS   *        TOTAL   CCSD(T)       RHF       INT
 CPU TIMES  *        10.48      8.87      0.84      0.73
 REAL TIME  *        11.37 SEC
 DISK USED  *       195.47 MB      
 GA USED    *         0.00 MB       (max)       0.00 MB       (current)
 **********************************************************************************************************************************

        CCSD(T)         RHF-SCF 
    -80.78753597    -80.39768427
 **********************************************************************************************************************************
 Variable memory released
