
 Primary working directories    : /tmp/1051568.37.gen6.q
 Secondary working directories  : /tmp/1051568.37.gen6.q
 Wavefunction directory         : /home/vulcan/mel64643/wfu/
 Main file repository           : /tmp/1051568.37.gen6.q/

 ARCHNAME  : Linux/x86_64
 FC        : /opt/intel/compilers_and_libraries_2016.1.150/linux/bin/intel64/ifort
 FCVERSION : 16.0.1
 BLASLIB   : -mkl
 id        : ccgc

 Nodes     nprocs
 n092         1
 ga_uses_ma=false, calling ma_init with nominal heap.
 GA-space will be limited to   8.0 MW (determined by -G option)

 Using customized tuning parameters: mindgm=10; mindgv=16; mindgc=4; mindgr=1; noblas=0; mincuda=1000; minvec=7
 default implementation of scratch files=df  

 ***,Optimization of min3
 memory,1000,m
 gthresh,energy=1.0d-12,orbital=1.0d-10,oneint=1.0d-16,twoint=1.0d-16,optgrad=1.0d-6,compress=1.0d-13
 geomtyp=xyz
 
 
 
  bohr
  geometry = {
  C   -0.0000000000    0.0000000000   -2.6771289951
  C   -0.0000000000    2.2661409492   -1.3256053759
  C   -0.0000000000   -2.2661409492   -1.3256053759
  C   -0.0000000000    2.1601961585    1.3059188540
  C   -0.0000000000   -2.1601961585    1.3059188540
  N    0.0000000000   -0.0000000000    2.6400364948
  H   -0.0000000000    0.0000000000   -4.7235940151
  H   -0.0000000000    4.0744662005   -2.2809528476
  H   -0.0000000000   -4.0744662005   -2.2809528476
  H   -0.0000000000    3.8840922227    2.4146757272
  H    0.0000000000   -3.8840922227    2.4146757272
 }
 
 basis=cc-pvdz
 {rhf;maxit,200}
 {mp4}

 Variables initialized (661), CPU time= 0.00 sec
 Commands  initialized (458), CPU time= 0.01 sec, 486 directives.
 Default parameters read. Elapsed time= 0.04 sec

 Checking input...
 Passed
1


                                         ***  PROGRAM SYSTEM MOLPRO  ***
                         Copyright, University College Cardiff Consultants Limited, 2008

                                    Version 2010.1 linked May 16 2016 07:17:05


 **********************************************************************************************************************************
 LABEL *   Optimization of min3                                                          
 Linux-4.4.3/n092(x86_64) 64 bit mpp version                                             DATE: 14-Apr-24          TIME: 15:21:06  
 **********************************************************************************************************************************

 SHA1:             9e8077add272b0f3cad6f7df79ec5211205f459d
 **********************************************************************************************************************************

 THRESHOLDS:

 ZERO    =  1.00D-12  ONEINT  =  1.00D-16  TWOINT  =  1.00D-16  PREFAC  =  1.00D-14  LOCALI  =  1.00D-09  EORDER  =  1.00D-04
 ENERGY  =  1.00D-12  ETEST   =  0.00D+00  EDENS   =  0.00D+00  THRDEDEF=  1.00D-06  GRADIENT=  1.00D-02  STEP    =  1.00D-03
 ORBITAL =  1.00D-10  CIVEC   =  1.00D-05  COEFF   =  1.00D-04  PRINTCI =  5.00D-02  PUNCHCI =  9.90D+01  OPTGRAD =  1.00D-06
 OPTENERG=  1.00D-06  OPTSTEP =  3.00D-04  THRGRAD =  1.00D-10  COMPRESS=  1.00D-13  VARMIN  =  1.00D-07  VARMAX  =  1.00D-03
 THRDOUB =  0.00D+00  THRDIV  =  1.00D-05  THRRED  =  1.00D-07  THRPSP  =  1.00D+00  THRDC   =  1.00D-10  THRCS   =  1.00D-10
 THRNRM  =  1.00D-08  THREQ   =  0.00D+00  THRDE   =  1.00D+00  THRREF  =  1.00D-05  SPARFAC =  1.00D+00  THRDLP  =  1.00D-07
 THRDIA  =  1.00D-10  THRDLS  =  1.00D-07  THRGPS  =  0.00D+00  THRKEX  =  0.00D+00  THRDIS  =  2.00D-01  THRVAR  =  1.00D-10
 THRLOC  =  1.00D-06  THRGAP  =  1.00D-06  THRLOCT = -1.00D+00  THRGAPT = -1.00D+00  THRORB  =  1.00D-06  THRMLTP =  0.00D+00
 THRCPQCI=  1.00D-10  KEXTA   =  0.00D+00  THRCOARS=  0.00D+00  SYMTOL  =  1.00D-06  GRADTOL =  1.00D-06  THROVL  =  1.00D-08
 THRORTH =  1.00D-08  GRID    =  1.00D-06  GRIDMAX =  1.00D-03  DTMAX   =  0.00D+00

 SETTING GEOMTYP        =    XYZ
 ZUNIT=BOHR
 

 Variable memory set to 1000000000 words,  buffer space   230000 words

 SETTING BASIS          =    CC-PVDZ


 Recomputing integrals since basis changed


 Using spherical harmonics

 Library entry C      S cc-pVDZ              selected for orbital group  1
 Library entry C      P cc-pVDZ              selected for orbital group  1
 Library entry C      D cc-pVDZ              selected for orbital group  1
 Library entry N      S cc-pVDZ              selected for orbital group  2
 Library entry N      P cc-pVDZ              selected for orbital group  2
 Library entry N      D cc-pVDZ              selected for orbital group  2
 Library entry H      S cc-pVDZ              selected for orbital group  3
 Library entry H      P cc-pVDZ              selected for orbital group  3

1PROGRAM * SEWARD (Integral evaluation for generally contracted gaussian basis sets)     Author: Roland Lindh, 1990

 Geometry written to block  1 of record 700


 Point group  C2v 



 ATOMIC COORDINATES

 NR  ATOM    CHARGE       X              Y              Z

   1  C       6.00    0.000000000    0.000000000   -2.677128995
   2  C       6.00    0.000000000    2.266140949   -1.325605376
   3  C       6.00    0.000000000   -2.266140949   -1.325605376
   4  C       6.00    0.000000000    2.160196158    1.305918854
   5  C       6.00    0.000000000   -2.160196158    1.305918854
   6  N       7.00    0.000000000    0.000000000    2.640036495
   7  H       1.00    0.000000000    0.000000000   -4.723594015
   8  H       1.00    0.000000000    4.074466200   -2.280952848
   9  H       1.00    0.000000000   -4.074466200   -2.280952848
  10  H       1.00    0.000000000    3.884092223    2.414675727
  11  H       1.00    0.000000000   -3.884092223    2.414675727

 Bond lengths in Bohr (Angstrom)

 1-2  2.638562278  1-3  2.638562278  1-7  2.046465020  2-4  2.633656028  2-8  2.045172121
     ( 1.396267022)     ( 1.396267022)     ( 1.082942648)     ( 1.393670746)     ( 1.082258475)

  3- 5  2.633656028   3- 9  2.045172121   4- 6  2.538959890   4-10  2.049673009   5- 6  2.538959890
       ( 1.393670746)       ( 1.082258475)       ( 1.343559708)       ( 1.084640242)       ( 1.343559708)

  5-11  2.049673009
       ( 1.084640242)

 Bond angles

  1-2-4  118.50632246   1-2-8  121.34048003   1-3-5  118.50632246   1-3-9  121.34048003

  2- 1- 3  118.37640539   2- 1- 7  120.81179731   2- 4- 6  124.00457823   2- 4-10  120.44240136

  3- 1- 7  120.81179731   3- 5- 6  124.00457823   3- 5-11  120.44240136   4- 2- 8  120.15319751

  4- 6- 5  116.60179323   5- 3- 9  120.15319751   6- 4-10  115.55302041   6- 5-11  115.55302041

 NUCLEAR CHARGE:                   42
 NUMBER OF PRIMITIVE AOS:         197
 NUMBER OF SYMMETRY AOS:          191
 NUMBER OF CONTRACTIONS:          109   (  45A1  +  17B1  +  35B2  +  12A2  )
 NUMBER OF CORE ORBITALS:           6   (   4A1  +   0B1  +   2B2  +   0A2  )
 NUMBER OF VALENCE ORBITALS:       29   (  13A1  +   4B1  +  10B2  +   2A2  )


 NUCLEAR REPULSION ENERGY  205.77532024


 Eigenvalues of metric

         1 0.710E-03 0.378E-02 0.586E-02 0.153E-01 0.188E-01 0.245E-01 0.256E-01 0.287E-01
         2 0.543E-01 0.113E+00 0.174E+00 0.209E+00 0.297E+00 0.398E+00 0.424E+00 0.428E+00
         3 0.238E-02 0.279E-02 0.731E-02 0.152E-01 0.233E-01 0.305E-01 0.336E-01 0.519E-01
         4 0.102E+00 0.170E+00 0.298E+00 0.370E+00 0.441E+00 0.516E+00 0.538E+00 0.141E+01


 Contracted 2-electron integrals neglected if value below      1.0D-16
 AO integral compression algorithm  1   Integral accuracy      1.0D-16

     45.613 MB (compressed) written to integral file (100.0%)

     Node minimum: 45.613 MB, node maximum: 45.613 MB


 NUMBER OF SORTED TWO-ELECTRON INTEGRALS:    4859454.     BUFFER LENGTH:  32768
 NUMBER OF SEGMENTS:   1  SEGMENT LENGTH:    4859454      RECORD LENGTH: 524288

 Memory used in sort:       5.42 MW

 SORT1 READ     5684777. AND WROTE     4830489. INTEGRALS IN     14 RECORDS. CPU TIME:     0.10 SEC, REAL TIME:     0.13 SEC
 SORT2 READ     4830489. AND WROTE     4859454. INTEGRALS IN    174 RECORDS. CPU TIME:     0.07 SEC, REAL TIME:     0.10 SEC

 FILE SIZES:   FILE 1:    41.8 MBYTE,  FILE 4:    58.8 MBYTE,   TOTAL:    100.6 MBYTE

 OPERATOR DM      FOR CENTER  0  COORDINATES:    0.000000    0.000000    0.000000


 **********************************************************************************************************************************
 DATASETS  * FILE   NREC   LENGTH (MB)   RECORD NAMES
              1      19       41.87       500      610      700      900      950      970     1000      129      960     1100   
                                          VAR    BASINP    GEOM    SYMINP    ZMAT    AOBASIS   BASIS     P2S    ABASIS      S 
                                         1400     1410     1200     1210     1080     1600     1650     1300     1700   
                                           T        V       H0       H01     AOSYM     SMH    MOLCAS    ERIS     OPER   

 PROGRAMS   *        TOTAL       INT
 CPU TIMES  *         1.26      1.22
 REAL TIME  *         1.53 SEC
 DISK USED  *       147.02 MB      
 GA USED    *         0.00 MB       (max)       0.00 MB       (current)
 **********************************************************************************************************************************

1PROGRAM * RHF-SCF (CLOSED SHELL)       Authors: W. Meyer, H.-J. Werner


 NUMBER OF ELECTRONS:      21+   21-
 CONVERGENCE THRESHOLDS:    1.00E-10 (Density)    1.00E-13 (Energy)
 MAX. NUMBER OF ITERATIONS:      200
 INTERPOLATION TYPE:            DIIS
 INTERPOLATION STEPS:              2 (START)      1 (STEP)
 LEVEL SHIFTS:                  0.00 (CLOSED)  0.00 (OPEN) 



 Orbital guess generated from atomic densities. Full valence occupancy:   17   4  12   2

 Molecular orbital dump at record        2100.2

 Initial alpha occupancy:  11   2   7   1
 Initial beta  occupancy:  11   2   7   1
 Wave function symmetry:    1

 ITERATION    DDIFF          GRAD             ENERGY        2-EL.EN.            DIPOLE MOMENTS         DIIS
    1      0.000D+00      0.000D+00      -246.66534800    576.441822    0.00000    0.00000   -1.03299    0
    2      0.000D+00      0.815D-02      -246.70992184    575.025959    0.00000    0.00000   -0.89799    1
    3      0.166D-01      0.254D-02      -246.71379636    575.839335    0.00000    0.00000   -0.85884    2
    4      0.531D-02      0.106D-02      -246.71442449    575.598943    0.00000    0.00000   -0.88270    3
    5      0.202D-02      0.150D-03      -246.71444100    575.588682    0.00000    0.00000   -0.87707    4
    6      0.327D-03      0.507D-04      -246.71444328    575.596913    0.00000    0.00000   -0.87667    5
    7      0.108D-03      0.185D-04      -246.71444374    575.595609    0.00000    0.00000   -0.87694    6
    8      0.481D-04      0.761D-05      -246.71444385    575.594883    0.00000    0.00000   -0.87615    7
    9      0.238D-04      0.449D-05      -246.71444388    575.595214    0.00000    0.00000   -0.87643    8
   10      0.139D-04      0.181D-05      -246.71444389    575.595217    0.00000    0.00000   -0.87637    8
   11      0.714D-05      0.561D-06      -246.71444389    575.595119    0.00000    0.00000   -0.87636    8
   12      0.204D-05      0.175D-06      -246.71444389    575.595181    0.00000    0.00000   -0.87636    8
   13      0.546D-06      0.527D-07      -246.71444389    575.595166    0.00000    0.00000   -0.87636    9
   14      0.165D-06      0.950D-08      -246.71444389    575.595167    0.00000    0.00000   -0.87636    9
   15      0.307D-07      0.329D-08      -246.71444389    575.595167    0.00000    0.00000   -0.87636    8
   16      0.121D-07      0.956D-09      -246.71444389    575.595167    0.00000    0.00000   -0.87636    8
   17      0.246D-08      0.291D-09      -246.71444389    575.595167    0.00000    0.00000   -0.87636    7
   18      0.664D-09      0.709D-10      -246.71444389    575.595167    0.00000    0.00000   -0.87636    7
   19      0.269D-09      0.323D-10      -246.71444389    575.595167    0.00000    0.00000   -0.87636    7
   20      0.724D-10      0.875D-11      -246.71444389    575.595167    0.00000    0.00000   -0.87636    7
   21      0.248D-10      0.340D-11      -246.71444389    575.595167    0.00000    0.00000   -0.87636    8
   22      0.767D-11      0.119D-11      -246.71444389    575.595167    0.00000    0.00000   -0.87636    8
   23      0.314D-11      0.287D-12      -246.71444389    575.595167    0.00000    0.00000   -0.87636    8
   24      0.120D-11      0.103D-12      -246.71444389    575.595167    0.00000    0.00000   -0.87636    8
   25      0.735D-12      0.444D-13      -246.71444389    575.595167    0.00000    0.00000   -0.87636    8
   26      0.323D-12      0.374D-13      -246.71444389    575.595167    0.00000    0.00000   -0.87636    0

 Final occupancy:  11   2   7   1

 !RHF STATE 1.1 Energy               -246.714443891946
 Nuclear energy                       205.77532024
 One-electron energy                 -740.28734749
 Two-electron energy                  287.79758335
 Virial quotient                       -1.00137395
 !RHF STATE 1.1 Dipole moment           0.00000000     0.00000000    -0.87636146
 Dipole moment /Debye                   0.00000000     0.00000000    -2.22734275

 Orbital energies:

         1.1          2.1          3.1          4.1          5.1          6.1          7.1          8.1          9.1         10.1
    -15.567471   -11.278000   -11.264644   -11.246189    -1.253145    -1.086857    -0.856884    -0.717457    -0.651865    -0.573227

        11.1         12.1         13.1
     -0.415884     0.182890     0.228929

         1.2          2.2          3.2          4.2
     -0.535984    -0.378891     0.115005     0.338827

         1.3          2.3          3.3          4.3          5.3          6.3          7.3          8.3          9.3
    -11.278016   -11.246235    -1.031792    -0.852521    -0.655237    -0.595258    -0.515363     0.214415     0.252909

         1.4          2.4          3.4
     -0.345170     0.130962     0.718812


 **********************************************************************************************************************************
 DATASETS  * FILE   NREC   LENGTH (MB)   RECORD NAMES
              1      19       41.87       500      610      700      900      950      970     1000      129      960     1100   
                                          VAR    BASINP    GEOM    SYMINP    ZMAT    AOBASIS   BASIS     P2S    ABASIS      S 
                                         1400     1410     1200     1210     1080     1600     1650     1300     1700   
                                           T        V       H0       H01     AOSYM     SMH    MOLCAS    ERIS     OPER   

              2       3        0.52       700     1000     2100   
                                         GEOM     BASIS     RHF  

 PROGRAMS   *        TOTAL       RHF       INT
 CPU TIMES  *         1.64      0.38      1.22
 REAL TIME  *         2.00 SEC
 DISK USED  *       147.02 MB      
 GA USED    *         0.00 MB       (max)       0.00 MB       (current)
 **********************************************************************************************************************************


1PROGRAM * MP4 (Closed-shell)     Authors: C. Hampel, H.-J. Werner, 1991, M. Deegan, P.J. Knowles, 1992


 Convergence thresholds:  THRVAR = 1.00D-08  THRDEN = 1.00D-12

 MP4(T)     terms to be evaluated (factor= 0.000)


 Number of core orbitals:           6 (   4   0   2   0 )
 Number of closed-shell orbitals:  15 (   7   2   5   1 )
 Number of external orbitals:      88 (  34  15  28  11 )

 Molecular orbitals read from record     2100.2  Type=RHF/CANONICAL (state 1.1)

 Number of N-1 electron functions:              15
 Number of N-2 electron functions:             120
 Number of singly external CSFs:               419
 Number of doubly external CSFs:            231695
 Total number of CSFs:                      232115

 Length of J-op  integral file:               0.00 MB
 Length of K-op  integral file:               0.28 MB

 Memory could be reduced to 3.95 Mwords without degradation in triples

 Integral transformation finished. Total CPU:   0.10 sec, npass=  1  Memory used:   1.54 MW

 Reference energy:                   -246.71444389

                        CORR.ENERGY   TOTAL ENERGY   ENERGY CHANGE
 MP2:                   -0.80907218  -247.52351607    -0.80907218

 SCS-MP2 correlation energy:           -0.78383122   (PS=  1.200000  PT=  0.333333)
 SCS-MP2 total energy:               -247.49827511

 MP3(D):                -0.83546210  -247.54990600    -0.02638993
 MP4(DQ):               -0.83414224  -247.54858613     0.00131987
 MP4(SDQ):              -0.84102567  -247.55546956    -0.00688344

 Norm of t1 vector:      0.07232557      S-energy:    -0.00688344      T1 diagnostic:  0.00933719


 Total CPU time for triples:      2.92 sec


 RESULTS
 =======

  Reference energy                   -246.714443891946
  MP4(SDQ) singlet pair energy         -0.538058925015
  MP4(SDQ) triplet pair energy         -0.296083311203
  MP4(SDQ) correlation energy          -0.841025672902

  Triples (T) contribution             -0.040836237869
  Total correlation energy             -0.881861910771

  MP4(SDTQ) total energy             -247.555469564847
 !MP4(SDTQ(T) total energy           -247.596305802717

 Timing summary (sec):

 STEP                 CPU(USER)    SYS     CPU(TOT)    WALL
 Transformation          0.11      0.02      0.13      0.14
 CCSD iterations         0.28      0.01      0.29      0.30
 Triples                 2.92      0.08      3.00      3.00

 Program statistics:

 Available memory in ccsd:               999999000
 Min. memory needed in ccsd:                653198
 Max. memory used in ccsd:                  857076
 Max. memory used in cckext:                910149 ( 1 integral passes)



 **********************************************************************************************************************************
 DATASETS  * FILE   NREC   LENGTH (MB)   RECORD NAMES
              1      20       57.61       500      610      700      900      950      970     1000      129      960     1100   
                                          VAR    BASINP    GEOM    SYMINP    ZMAT    AOBASIS   BASIS     P2S    ABASIS      S 
                                         1400     1410     1200     1210     1080     1600     1650     1300     1700     1380   
                                           T        V       H0       H01     AOSYM     SMH    MOLCAS    ERIS     OPER     JKOP   

              2       3        0.52       700     1000     2100   
                                         GEOM     BASIS     RHF  

 PROGRAMS   *        TOTAL       MP4       RHF       INT
 CPU TIMES  *         4.96      3.32      0.38      1.22
 REAL TIME  *         5.47 SEC
 DISK USED  *       147.02 MB      
 GA USED    *         0.00 MB       (max)       0.00 MB       (current)
 **********************************************************************************************************************************

        MP4             RHF-SCF 
   -247.59630580   -246.71444389
 **********************************************************************************************************************************
 Variable memory released
