
 Primary working directories    : /tmp/944438.782.gen5.q
 Secondary working directories  : /tmp/944438.782.gen5.q
 Wavefunction directory         : /home/vulcan/mel64643/wfu/
 Main file repository           : /tmp/944438.782.gen5.q/

 ARCHNAME  : Linux/x86_64
 FC        : /opt/intel/compilers_and_libraries_2016.1.150/linux/bin/intel64/ifort
 FCVERSION : 16.0.1
 BLASLIB   : -mkl
 id        : ccgc

 Nodes     nprocs
 n073         1
 ga_uses_ma=false, calling ma_init with nominal heap.
 GA-space will be limited to   8.0 MW (determined by -G option)

 Using customized tuning parameters: mindgm=10; mindgv=16; mindgc=4; mindgr=1; noblas=0; mincuda=1000; minvec=7
 default implementation of scratch files=df  

 ***,Optimization of min3
 memory,1000,m
 gthresh,energy=1.0d-12,orbital=1.0d-10,oneint=1.0d-16,twoint=1.0d-16,optgrad=1.0d-6,compress=1.0d-13
 geomtyp=xyz
 
 
 
  bohr
  geometry = {
  C   -0.2895574165    2.4003368499   -2.1326102134
  C    0.7670732414    0.0005174318   -0.8940532657
  C    0.1931301081   -0.0007582595    1.8336124151
  N   -0.2961749038   -0.0018161115    3.9767169680
  H    2.8265341007    0.0035274075   -1.0642524942
  C   -0.2826033919   -2.4019481838   -2.1333929409
  H   -2.3375528228   -2.4453735678   -1.9562045274
  H    0.4774640394   -4.1006078908   -1.2486838835
  H    0.1959652921   -2.4153718561   -4.1396864406
  H   -2.3451290291    2.4584686019   -1.9672478689
  H    0.2006301234    2.4088533613   -4.1361234851
  H    0.4775046887    4.0941722172   -1.2446941758
 }
 
 basis=cc-pvdz
 {rhf;maxit,200}
 {ccsd(t);maxit,200}

 Variables initialized (661), CPU time= 0.00 sec
 Commands  initialized (458), CPU time= 0.00 sec, 486 directives.
 Default parameters read. Elapsed time= 0.04 sec

 Checking input...
 Passed
1


                                         ***  PROGRAM SYSTEM MOLPRO  ***
                         Copyright, University College Cardiff Consultants Limited, 2008

                                    Version 2010.1 linked May 16 2016 07:17:05


 **********************************************************************************************************************************
 LABEL *   Optimization of min3                                                          
 Linux-4.4.3/n073(x86_64) 64 bit mpp version                                             DATE: 27-Oct-23          TIME: 11:42:04  
 **********************************************************************************************************************************

 SHA1:             9e8077add272b0f3cad6f7df79ec5211205f459d
 **********************************************************************************************************************************

 THRESHOLDS:

 ZERO    =  1.00D-12  ONEINT  =  1.00D-16  TWOINT  =  1.00D-16  PREFAC  =  1.00D-14  LOCALI  =  1.00D-09  EORDER  =  1.00D-04
 ENERGY  =  1.00D-12  ETEST   =  0.00D+00  EDENS   =  0.00D+00  THRDEDEF=  1.00D-06  GRADIENT=  1.00D-02  STEP    =  1.00D-03
 ORBITAL =  1.00D-10  CIVEC   =  1.00D-05  COEFF   =  1.00D-04  PRINTCI =  5.00D-02  PUNCHCI =  9.90D+01  OPTGRAD =  1.00D-06
 OPTENERG=  1.00D-06  OPTSTEP =  3.00D-04  THRGRAD =  1.00D-10  COMPRESS=  1.00D-13  VARMIN  =  1.00D-07  VARMAX  =  1.00D-03
 THRDOUB =  0.00D+00  THRDIV  =  1.00D-05  THRRED  =  1.00D-07  THRPSP  =  1.00D+00  THRDC   =  1.00D-10  THRCS   =  1.00D-10
 THRNRM  =  1.00D-08  THREQ   =  0.00D+00  THRDE   =  1.00D+00  THRREF  =  1.00D-05  SPARFAC =  1.00D+00  THRDLP  =  1.00D-07
 THRDIA  =  1.00D-10  THRDLS  =  1.00D-07  THRGPS  =  0.00D+00  THRKEX  =  0.00D+00  THRDIS  =  2.00D-01  THRVAR  =  1.00D-10
 THRLOC  =  1.00D-06  THRGAP  =  1.00D-06  THRLOCT = -1.00D+00  THRGAPT = -1.00D+00  THRORB  =  1.00D-06  THRMLTP =  0.00D+00
 THRCPQCI=  1.00D-10  KEXTA   =  0.00D+00  THRCOARS=  0.00D+00  SYMTOL  =  1.00D-06  GRADTOL =  1.00D-06  THROVL  =  1.00D-08
 THRORTH =  1.00D-08  GRID    =  1.00D-06  GRIDMAX =  1.00D-03  DTMAX   =  0.00D+00

 SETTING GEOMTYP        =    XYZ
 ZUNIT=BOHR
 

 Variable memory set to 1000000000 words,  buffer space   230000 words

 SETTING BASIS          =    CC-PVDZ


 Recomputing integrals since basis changed


 Using spherical harmonics

 Library entry C      S cc-pVDZ              selected for orbital group  1
 Library entry C      P cc-pVDZ              selected for orbital group  1
 Library entry C      D cc-pVDZ              selected for orbital group  1
 Library entry N      S cc-pVDZ              selected for orbital group  2
 Library entry N      P cc-pVDZ              selected for orbital group  2
 Library entry N      D cc-pVDZ              selected for orbital group  2
 Library entry H      S cc-pVDZ              selected for orbital group  3
 Library entry H      P cc-pVDZ              selected for orbital group  3

1PROGRAM * SEWARD (Integral evaluation for generally contracted gaussian basis sets)     Author: Roland Lindh, 1990

 Geometry written to block  1 of record 700


 Point group  C1  



 ATOMIC COORDINATES

 NR  ATOM    CHARGE       X              Y              Z

   1  C       6.00   -0.289557416    2.400336850   -2.132610213
   2  C       6.00    0.767073241    0.000517432   -0.894053266
   3  C       6.00    0.193130108   -0.000758260    1.833612415
   4  N       7.00   -0.296174904   -0.001816111    3.976716968
   5  H       1.00    2.826534101    0.003527407   -1.064252494
   6  C       6.00   -0.282603392   -2.401948184   -2.133392941
   7  H       1.00   -2.337552823   -2.445373568   -1.956204527
   8  H       1.00    0.477464039   -4.100607891   -1.248683884
   9  H       1.00    0.195965292   -2.415371856   -4.139686441
  10  H       1.00   -2.345129029    2.458468602   -1.967247869
  11  H       1.00    0.200630123    2.408853361   -4.136123485
  12  H       1.00    0.477504689    4.094172217   -1.244694176

 Bond lengths in Bohr (Angstrom)

  1- 2  2.899935327   1-10  2.063031425   1-11  2.062624974   1-12  2.060547843   2- 3  2.787395274
       ( 1.534579682)       ( 1.091709212)       ( 1.091494127)       ( 1.090394957)       ( 1.475026052)

 2-5  2.066483939  2-6  2.899935327  3-4  2.198253315  6-7  2.063031425  6-8  2.060547844
     ( 1.093536203)     ( 1.534579682)     ( 1.163265554)     ( 1.091709212)     ( 1.090394957)

 6-9  2.062624975
     ( 1.091494127)

 Bond angles

  1- 2- 3  110.07805271   1- 2- 5  109.07122528   1- 2- 6  111.78757136   2- 1-10  110.61766883

  2- 1-11  109.37097161   2- 1-12  111.13616295   2- 3- 4  179.02148592   2- 6- 7  109.95490160

  2-6-8  111.46578646   2-6-9  109.70059480   3-2-5  106.60693501   3-2-6  110.07805271

  5-2-6  109.07122528   7-6-8  108.25175264   7-6-9  108.33154204   8-6-9  109.06745128

 10- 1-11  108.33271490  10- 1-12  108.25292497  11- 1-12  109.06862662

 NUCLEAR CHARGE:                   38
 NUMBER OF PRIMITIVE AOS:         184
 NUMBER OF SYMMETRY AOS:          179
 NUMBER OF CONTRACTIONS:          105   ( 105A   )
 NUMBER OF CORE ORBITALS:           5   (   5A   )
 NUMBER OF VALENCE ORBITALS:       27   (  27A   )


 NUCLEAR REPULSION ENERGY  158.94966277


 Eigenvalues of metric

         1 0.197E-02 0.463E-02 0.574E-02 0.601E-02 0.167E-01 0.195E-01 0.209E-01 0.264E-01


 Contracted 2-electron integrals neglected if value below      1.0D-16
 AO integral compression algorithm  1   Integral accuracy      1.0D-16

     130.023 MB (compressed) written to integral file ( 95.0%)

     Node minimum: 130.023 MB, node maximum: 130.023 MB


 NUMBER OF SORTED TWO-ELECTRON INTEGRALS:   15487395.     BUFFER LENGTH:  32768
 NUMBER OF SEGMENTS:   1  SEGMENT LENGTH:   15487395      RECORD LENGTH: 524288

 Memory used in sort:      16.04 MW

 SORT1 READ    17101060. AND WROTE    15442494. INTEGRALS IN     45 RECORDS. CPU TIME:     0.15 SEC, REAL TIME:     0.25 SEC
 SORT2 READ    15442494. AND WROTE    15487395. INTEGRALS IN    496 RECORDS. CPU TIME:     0.17 SEC, REAL TIME:     0.23 SEC

 FILE SIZES:   FILE 1:   120.8 MBYTE,  FILE 4:   188.8 MBYTE,   TOTAL:    309.6 MBYTE

 OPERATOR DM      FOR CENTER  0  COORDINATES:    0.000000    0.000000    0.000000


 **********************************************************************************************************************************
 DATASETS  * FILE   NREC   LENGTH (MB)   RECORD NAMES
              1      19      120.95       500      610      700      900      950      970     1000      129      960     1100   
                                          VAR    BASINP    GEOM    SYMINP    ZMAT    AOBASIS   BASIS     P2S    ABASIS      S 
                                         1400     1410     1200     1210     1080     1600     1650     1300     1700   
                                           T        V       H0       H01     AOSYM     SMH    MOLCAS    ERIS     OPER   

 PROGRAMS   *        TOTAL       INT
 CPU TIMES  *         1.96      1.91
 REAL TIME  *         2.43 SEC
 DISK USED  *       440.47 MB      
 GA USED    *         0.00 MB       (max)       0.00 MB       (current)
 **********************************************************************************************************************************

1PROGRAM * RHF-SCF (CLOSED SHELL)       Authors: W. Meyer, H.-J. Werner


 NUMBER OF ELECTRONS:      19+   19-    SPACE SYMMETRY=1    SPIN SYMMETRY: Singlet 
 CONVERGENCE THRESHOLDS:    1.00E-10 (Density)    1.00E-13 (Energy)
 MAX. NUMBER OF ITERATIONS:      200
 INTERPOLATION TYPE:            DIIS
 INTERPOLATION STEPS:              2 (START)      1 (STEP)
 LEVEL SHIFTS:                  0.00 (CLOSED)  0.00 (OPEN) 



 Orbital guess generated from atomic densities. Full valence occupancy:   32

 Molecular orbital dump at record        2100.2

 ITERATION    DDIFF          GRAD             ENERGY        2-EL.EN.            DIPOLE MOMENTS         DIIS
    1      0.000D+00      0.000D+00      -209.94376800    457.122249    0.48308    0.00236   -2.25058    0
    2      0.000D+00      0.590D-02      -209.98971608    456.677932    0.14958    0.00075   -1.29332    1
    3      0.124D-01      0.414D-02      -210.01004886    456.362231    0.30573    0.00116   -1.70165    2
    4      0.554D-02      0.106D-02      -210.01229606    456.689304    0.29227    0.00106   -1.61346    3
    5      0.196D-02      0.235D-03      -210.01241402    456.529845    0.28609    0.00102   -1.62472    4
    6      0.425D-03      0.579D-04      -210.01242339    456.548861    0.28631    0.00102   -1.62279    5
    7      0.169D-03      0.160D-04      -210.01242394    456.546859    0.28666    0.00102   -1.62410    6
    8      0.307D-04      0.501D-05      -210.01242399    456.546529    0.28653    0.00102   -1.62422    7
    9      0.110D-04      0.107D-05      -210.01242400    456.546464    0.28656    0.00102   -1.62421    7
   10      0.261D-05      0.376D-06      -210.01242400    456.546561    0.28656    0.00102   -1.62424    7
   11      0.943D-06      0.197D-06      -210.01242400    456.546529    0.28656    0.00102   -1.62423    7
   12      0.661D-06      0.913D-07      -210.01242400    456.546545    0.28656    0.00102   -1.62423    7
   13      0.427D-06      0.240D-07      -210.01242400    456.546539    0.28656    0.00102   -1.62423    8
   14      0.115D-06      0.475D-08      -210.01242400    456.546538    0.28656    0.00102   -1.62423    8
   15      0.148D-07      0.196D-08      -210.01242400    456.546539    0.28656    0.00102   -1.62423    8
   16      0.372D-08      0.521D-09      -210.01242400    456.546539    0.28656    0.00102   -1.62423    8
   17      0.112D-08      0.102D-09      -210.01242400    456.546539    0.28656    0.00102   -1.62423    8
   18      0.231D-09      0.253D-10      -210.01242400    456.546539    0.28656    0.00102   -1.62423    7
   19      0.595D-10      0.716D-11      -210.01242400    456.546539    0.28656    0.00102   -1.62423    7
   20      0.170D-10      0.253D-11      -210.01242400    456.546539    0.28656    0.00102   -1.62423    7
   21      0.696D-11      0.102D-11      -210.01242400    456.546539    0.28656    0.00102   -1.62423    7
   22      0.269D-11      0.453D-12      -210.01242400    456.546539    0.28656    0.00102   -1.62423    7
   23      0.144D-11      0.219D-12      -210.01242400    456.546539    0.28656    0.00102   -1.62423    7
   24      0.923D-12      0.101D-12      -210.01242400    456.546539    0.28656    0.00102   -1.62423    8
   25      0.481D-12      0.492D-13      -210.01242400    456.546539    0.28656    0.00102   -1.62423    9
   26      0.270D-12      0.350D-13      -210.01242400    456.546539    0.28656    0.00102   -1.62423    0

 Final occupancy:  19

 !RHF STATE 1.1 Energy               -210.012423997093
 Nuclear energy                       158.94966277
 One-electron energy                 -597.23535607
 Two-electron energy                  228.27326931
 Virial quotient                       -1.00163724
 !RHF STATE 1.1 Dipole moment           0.28655609     0.00102005    -1.62423239
 Dipole moment /Debye                   0.72830522     0.00259254    -4.12811655

 Orbital energies:

         1.1          2.1          3.1          4.1          5.1          6.1          7.1          8.1          9.1         10.1
    -15.572645   -11.290172   -11.274805   -11.250183   -11.250114    -1.212678    -1.107778    -0.960695    -0.876380    -0.704133

        11.1         12.1         13.1         14.1         15.1         16.1         17.1         18.1         19.1         20.1
     -0.642516    -0.597218    -0.572742    -0.563272    -0.530635    -0.523279    -0.520402    -0.447399    -0.447363     0.155276

        21.1
      0.190301


 **********************************************************************************************************************************
 DATASETS  * FILE   NREC   LENGTH (MB)   RECORD NAMES
              1      19      120.95       500      610      700      900      950      970     1000      129      960     1100   
                                          VAR    BASINP    GEOM    SYMINP    ZMAT    AOBASIS   BASIS     P2S    ABASIS      S 
                                         1400     1410     1200     1210     1080     1600     1650     1300     1700   
                                           T        V       H0       H01     AOSYM     SMH    MOLCAS    ERIS     OPER   

              2       3        0.68       700     1000     2100   
                                         GEOM     BASIS     RHF  

 PROGRAMS   *        TOTAL       RHF       INT
 CPU TIMES  *         4.96      3.00      1.91
 REAL TIME  *         5.85 SEC
 DISK USED  *       440.47 MB      
 GA USED    *         0.00 MB       (max)       0.00 MB       (current)
 **********************************************************************************************************************************


1PROGRAM * CCSD (Closed-shell coupled cluster)     Authors: C. Hampel, H.-J. Werner, 1991, M. Deegan, P.J. Knowles, 1992


 Convergence thresholds:  THRVAR = 1.00D-08  THRDEN = 1.00D-12

 CCSD(T)     terms to be evaluated (factor= 1.000)


 Number of core orbitals:           5 (   5 )
 Number of closed-shell orbitals:  14 (  14 )
 Number of external orbitals:      86 (  86 )

 Molecular orbitals read from record     2100.2  Type=RHF/CANONICAL (state 1.1)

 Number of N-1 electron functions:              14
 Number of N-2 electron functions:             105
 Number of singly external CSFs:              1204
 Number of doubly external CSFs:            725410
 Total number of CSFs:                      726615

 Length of J-op  integral file:               0.00 MB
 Length of K-op  integral file:               0.79 MB
 Length of 3-ext integral record:             0.00 MB

 Memory could be reduced to 12.72 Mwords without degradation in triples

 Integral transformation finished. Total CPU:   0.75 sec, npass=  1  Memory used:  10.92 MW

 Reference energy:                   -210.01242400

 MP2 singlet pair energy:              -0.45163627
 MP2 triplet pair energy:              -0.25976294
 MP2 correlation energy:               -0.71139921
 MP2 total energy:                   -210.72382321

 SCS-MP2 correlation energy:           -0.70359380   (PS=  1.200000  PT=  0.333333)
 SCS-MP2 total energy:               -210.71601780

 ITER.      SQ.NORM     CORR.ENERGY   TOTAL ENERGY   ENERGY CHANGE        DEN1      VAR(S)    VAR(P)  DIIS     TIME
   1      1.27016220    -0.75347414  -210.76589814    -0.04207493    -0.01887838  0.35D-02  0.56D-02  1  1     2.59
   2      1.29282177    -0.75713147  -210.76955547    -0.00365733    -0.02204441  0.58D-04  0.76D-03  2  2     4.48
   3      1.30020430    -0.75750811  -210.76993211    -0.00037664    -0.00407726  0.27D-04  0.55D-04  3  3     6.36
   4      1.30276929    -0.75760486  -210.77002886    -0.00009675    -0.00100782  0.13D-05  0.65D-05  4  4     8.25
   5      1.30333663    -0.75761343  -210.77003743    -0.00000857    -0.00016824  0.16D-06  0.78D-06  5  5    10.14
   6      1.30345934    -0.75760786  -210.77003186     0.00000557    -0.00003126  0.97D-08  0.53D-07  6  6    12.03
   7      1.30347746    -0.75761026  -210.77003426    -0.00000240    -0.00000404  0.15D-08  0.48D-08  6  2    13.91
   8      1.30347890    -0.75761019  -210.77003418     0.00000008    -0.00000004  0.14D-09  0.42D-09  6  1    15.81
   9      1.30347926    -0.75761017  -210.77003417     0.00000002     0.00000023  0.16D-10  0.36D-10  6  3    17.71
  10      1.30347952    -0.75761018  -210.77003418    -0.00000001    -0.00000006  0.17D-11  0.33D-11  6  4    19.59
  11      1.30347915    -0.75761021  -210.77003420    -0.00000002     0.00000022  0.34D-12  0.34D-12  6  6    21.47
  12      1.30347908    -0.75761021  -210.77003421    -0.00000001     0.00000004  0.44D-13  0.27D-13  6  5    23.36
  13      1.30347904    -0.75761022  -210.77003421    -0.00000000     0.00000002  0.51D-14  0.45D-14  6  2    25.26
  14      1.30347903    -0.75761022  -210.77003421     0.00000000     0.00000000  0.14D-14  0.64D-15  6  1    27.15
  15      1.30347903    -0.75761021  -210.77003421     0.00000000    -0.00000000  0.97D-16  0.10D-15  6  4    29.03
  16      1.30347903    -0.75761021  -210.77003421     0.00000000    -0.00000000  0.15D-16  0.70D-17  6  3    30.93
  17      1.30347904    -0.75761021  -210.77003421     0.00000000    -0.00000000  0.32D-17  0.15D-17  6  6    32.81
  18      1.30347904    -0.75761021  -210.77003421    -0.00000000    -0.00000000  0.53D-18  0.25D-18  6  5    34.70
  19      1.30347904    -0.75761021  -210.77003421     0.00000000     0.00000000  0.59D-19  0.41D-19  6  2    36.61
  20      1.30347904    -0.75761021  -210.77003421     0.00000000    -0.00000000  0.63D-20  0.39D-20  6  4    38.50

 Norm of t1 vector:      0.07770595      S-energy:    -0.00000000      T1 diagnostic:  0.01038389
                                                                       D1 diagnostic:  0.02935513


 Total CPU time for triples:     22.80 sec


 RESULTS
 =======

  Reference energy                   -210.012423997094
  CCSD singlet pair energy             -0.527326750860
  CCSD triplet pair energy             -0.230283464004
  CCSD correlation energy              -0.757610214865

  Triples (T) contribution             -0.026791732642
  Total correlation energy             -0.784401947507

  CCSD total energy                  -210.770034211959
  CCSD[T] energy                     -210.797835282972
  CCSD-T energy                      -210.796356092677
 !CCSD(T) total energy               -210.796825944600

 Timing summary (sec):

 STEP                 CPU(USER)    SYS     CPU(TOT)    WALL
 Transformation          0.79      0.09      0.88      0.87
 CCSD iterations        37.71      1.11     38.82     38.89
 Triples                22.80      0.48     23.28     23.29

 Program statistics:

 Available memory in ccsd:               999999116
 Min. memory needed in ccsd:               1995783
 Max. memory used in ccsd:                 2628247
 Max. memory used in cckext:               2458865 (20 integral passes)



 **********************************************************************************************************************************
 DATASETS  * FILE   NREC   LENGTH (MB)   RECORD NAMES
              1      20      171.10       500      610      700      900      950      970     1000      129      960     1100   
                                          VAR    BASINP    GEOM    SYMINP    ZMAT    AOBASIS   BASIS     P2S    ABASIS      S 
                                         1400     1410     1200     1210     1080     1600     1650     1300     1700     1380   
                                           T        V       H0       H01     AOSYM     SMH    MOLCAS    ERIS     OPER     JKOP   

              2       3        0.68       700     1000     2100   
                                         GEOM     BASIS     RHF  

 PROGRAMS   *        TOTAL   CCSD(T)       RHF       INT
 CPU TIMES  *        66.28     61.32      3.00      1.91
 REAL TIME  *        68.93 SEC
 DISK USED  *       440.47 MB      
 GA USED    *         0.00 MB       (max)       0.00 MB       (current)
 **********************************************************************************************************************************

        CCSD(T)         RHF-SCF 
   -210.79682594   -210.01242400
 **********************************************************************************************************************************
 Variable memory released
