
 Primary working directories    : /tmp/999602.350.gen6.q
 Secondary working directories  : /tmp/999602.350.gen6.q
 Wavefunction directory         : /home/vulcan/jj04645/wfu/
 Main file repository           : /tmp/999602.350.gen6.q/

 ARCHNAME  : Linux/x86_64
 FC        : /opt/intel/compilers_and_libraries_2016.1.150/linux/bin/intel64/ifort
 FCVERSION : 16.0.1
 BLASLIB   : -mkl
 id        : ccgc

 Nodes     nprocs
 n087         1
 ga_uses_ma=false, calling ma_init with nominal heap.
 GA-space will be limited to   8.0 MW (determined by -G option)

 Using customized tuning parameters: mindgm=10; mindgv=16; mindgc=4; mindgr=1; noblas=0; mincuda=1000; minvec=7
 default implementation of scratch files=df  

 ***,Optimization of 1,3-difluorobenzene
 memory,1000,m
 gthresh,energy=1.0d-12,orbital=1.0d-10,oneint=1.0d-16,twoint=1.0d-16,optgrad=1.0d-6,compress=1.0d-13
 geomtyp=xyz
 
 bohr
 geometry = {
  F    0.0000000000    4.4459962427   -1.7546219292
  C    0.0000000000    2.2417854839   -0.4828444037
  C   -0.0000000000   -2.2981116660    2.1433774545
  C    0.0000000000   -0.0000000000   -1.8528158720
  C    0.0000000000    2.2981116660    2.1433774545
  C    0.0000000000   -0.0000000000    3.4415025610
  C   -0.0000000000   -2.2417854839   -0.4828444037
  H    0.0000000000   -0.0000000000   -3.8942118649
  H    0.0000000000    4.0917016936    3.1203544589
  H   -0.0000000000   -0.0000000000    5.4865204501
  F   -0.0000000000   -4.4459962427   -1.7546219292
  H   -0.0000000000   -4.0917016936    3.1203544589
 }
 
 basis=VDZ
 {rhf;maxit,200}
 {ccsd(t);maxit,200}

 Variables initialized (661), CPU time= 0.01 sec
 Commands  initialized (458), CPU time= 0.00 sec, 486 directives.
 Default parameters read. Elapsed time= 0.03 sec

 Checking input...
 Passed
1


                                         ***  PROGRAM SYSTEM MOLPRO  ***
                         Copyright, University College Cardiff Consultants Limited, 2008

                                    Version 2010.1 linked May 16 2016 07:17:05


 **********************************************************************************************************************************
 LABEL *   Optimization of 1,3-difluorobenzene                                           
 Linux-4.4.3/n087(x86_64) 64 bit mpp version                                             DATE: 07-Feb-24          TIME: 14:40:51  
 **********************************************************************************************************************************

 SHA1:             9e8077add272b0f3cad6f7df79ec5211205f459d
 **********************************************************************************************************************************

 THRESHOLDS:

 ZERO    =  1.00D-12  ONEINT  =  1.00D-16  TWOINT  =  1.00D-16  PREFAC  =  1.00D-14  LOCALI  =  1.00D-09  EORDER  =  1.00D-04
 ENERGY  =  1.00D-12  ETEST   =  0.00D+00  EDENS   =  0.00D+00  THRDEDEF=  1.00D-06  GRADIENT=  1.00D-02  STEP    =  1.00D-03
 ORBITAL =  1.00D-10  CIVEC   =  1.00D-05  COEFF   =  1.00D-04  PRINTCI =  5.00D-02  PUNCHCI =  9.90D+01  OPTGRAD =  1.00D-06
 OPTENERG=  1.00D-06  OPTSTEP =  3.00D-04  THRGRAD =  1.00D-10  COMPRESS=  1.00D-13  VARMIN  =  1.00D-07  VARMAX  =  1.00D-03
 THRDOUB =  0.00D+00  THRDIV  =  1.00D-05  THRRED  =  1.00D-07  THRPSP  =  1.00D+00  THRDC   =  1.00D-10  THRCS   =  1.00D-10
 THRNRM  =  1.00D-08  THREQ   =  0.00D+00  THRDE   =  1.00D+00  THRREF  =  1.00D-05  SPARFAC =  1.00D+00  THRDLP  =  1.00D-07
 THRDIA  =  1.00D-10  THRDLS  =  1.00D-07  THRGPS  =  0.00D+00  THRKEX  =  0.00D+00  THRDIS  =  2.00D-01  THRVAR  =  1.00D-10
 THRLOC  =  1.00D-06  THRGAP  =  1.00D-06  THRLOCT = -1.00D+00  THRGAPT = -1.00D+00  THRORB  =  1.00D-06  THRMLTP =  0.00D+00
 THRCPQCI=  1.00D-10  KEXTA   =  0.00D+00  THRCOARS=  0.00D+00  SYMTOL  =  1.00D-06  GRADTOL =  1.00D-06  THROVL  =  1.00D-08
 THRORTH =  1.00D-08  GRID    =  1.00D-06  GRIDMAX =  1.00D-03  DTMAX   =  0.00D+00

 SETTING GEOMTYP        =    XYZ
 ZUNIT=BOHR
 

 Variable memory set to 1000000000 words,  buffer space   230000 words

 SETTING BASIS          =    VDZ


 Recomputing integrals since basis changed


 Using spherical harmonics

 Library entry F      S cc-pVDZ              selected for orbital group  1
 Library entry F      P cc-pVDZ              selected for orbital group  1
 Library entry F      D cc-pVDZ              selected for orbital group  1
 Library entry C      S cc-pVDZ              selected for orbital group  2
 Library entry C      P cc-pVDZ              selected for orbital group  2
 Library entry C      D cc-pVDZ              selected for orbital group  2
 Library entry H      S cc-pVDZ              selected for orbital group  3
 Library entry H      P cc-pVDZ              selected for orbital group  3

1PROGRAM * SEWARD (Integral evaluation for generally contracted gaussian basis sets)     Author: Roland Lindh, 1990

 Geometry written to block  1 of record 700


 Point group  C2v 



 ATOMIC COORDINATES

 NR  ATOM    CHARGE       X              Y              Z

   1  F       9.00    0.000000000    4.445996243   -1.754621929
   2  F       9.00    0.000000000   -4.445996243   -1.754621929
   3  C       6.00    0.000000000    2.241785484   -0.482844404
   4  C       6.00    0.000000000   -2.241785484   -0.482844404
   5  C       6.00    0.000000000   -2.298111666    2.143377454
   6  C       6.00    0.000000000    2.298111666    2.143377454
   7  C       6.00    0.000000000    0.000000000   -1.852815872
   8  C       6.00    0.000000000    0.000000000    3.441502561
   9  H       1.00    0.000000000    0.000000000   -3.894211865
  10  H       1.00    0.000000000    4.091701694    3.120354459
  11  H       1.00    0.000000000   -4.091701694    3.120354459
  12  H       1.00    0.000000000    0.000000000    5.486520450

 Bond lengths in Bohr (Angstrom)

 1-3  2.544791375  2-4  2.544791375  3-6  2.626825820  3-7  2.627246463  4-5  2.626825820
     ( 1.346645597)     ( 1.346645597)     ( 1.390056356)     ( 1.390278951)     ( 1.390056356)

  4- 7  2.627246463   5- 8  2.639402588   5-11  2.042412606   6- 8  2.639402588   6-10  2.042412606
       ( 1.390278951)       ( 1.396711695)       ( 1.080798203)       ( 1.396711695)       ( 1.080798203)

  7- 9  2.041395993   8-12  2.045017889
       ( 1.080260234)       ( 1.082176859)

 Bond angles

  1-3-6  118.75526117   1-3-7  118.58666316   2-4-5  118.75526117   2-4-7  118.58666316

  3- 6- 8  118.23195826   3- 6-10  119.80600892   3- 7- 4  117.14118696   3- 7- 9  121.42940652

  4- 5- 8  118.23195826   4- 5-11  119.80600892   4- 7- 9  121.42940652   5- 4- 7  122.65807568

  5- 8- 6  121.07874516   5- 8-12  119.46062742   6- 3- 7  122.65807568   6- 8-12  119.46062742

  8- 5-11  121.96203282   8- 6-10  121.96203282

 NUCLEAR CHARGE:                   58
 NUMBER OF PRIMITIVE AOS:         244
 NUMBER OF SYMMETRY AOS:          236
 NUMBER OF CONTRACTIONS:          132   (  54A1  +  21B1  +  42B2  +  15A2  )
 NUMBER OF CORE ORBITALS:           8   (   5A1  +   0B1  +   3B2  +   0A2  )
 NUMBER OF VALENCE ORBITALS:       36   (  16A1  +   5B1  +  12B2  +   3A2  )


 NUCLEAR REPULSION ENERGY  342.10782688


 Eigenvalues of metric

         1 0.395E-03 0.169E-02 0.306E-02 0.130E-01 0.148E-01 0.202E-01 0.238E-01 0.265E-01
         2 0.413E-01 0.100E+00 0.166E+00 0.185E+00 0.214E+00 0.286E+00 0.366E+00 0.410E+00
         3 0.121E-02 0.263E-02 0.316E-02 0.125E-01 0.220E-01 0.267E-01 0.396E-01 0.619E-01
         4 0.909E-01 0.162E+00 0.190E+00 0.275E+00 0.377E+00 0.418E+00 0.473E+00 0.691E+00


 Contracted 2-electron integrals neglected if value below      1.0D-16
 AO integral compression algorithm  1   Integral accuracy      1.0D-16

     91.226 MB (compressed) written to integral file ( 96.5%)

     Node minimum: 91.226 MB, node maximum: 91.226 MB


 NUMBER OF SORTED TWO-ELECTRON INTEGRALS:   10309416.     BUFFER LENGTH:  32768
 NUMBER OF SEGMENTS:   1  SEGMENT LENGTH:   10309416      RECORD LENGTH: 524288

 Memory used in sort:      10.87 MW

 SORT1 READ    11785400. AND WROTE    10207897. INTEGRALS IN     30 RECORDS. CPU TIME:     0.20 SEC, REAL TIME:     0.26 SEC
 SORT2 READ    10207897. AND WROTE    10309416. INTEGRALS IN    348 RECORDS. CPU TIME:     0.14 SEC, REAL TIME:     0.18 SEC

 FILE SIZES:   FILE 1:    83.5 MBYTE,  FILE 4:   125.9 MBYTE,   TOTAL:    209.3 MBYTE

 OPERATOR DM      FOR CENTER  0  COORDINATES:    0.000000    0.000000    0.000000


 **********************************************************************************************************************************
 DATASETS  * FILE   NREC   LENGTH (MB)   RECORD NAMES
              1      19       83.54       500      610      700      900      950      970     1000      129      960     1100   
                                          VAR    BASINP    GEOM    SYMINP    ZMAT    AOBASIS   BASIS     P2S    ABASIS      S 
                                         1400     1410     1200     1210     1080     1600     1650     1300     1700   
                                           T        V       H0       H01     AOSYM     SMH    MOLCAS    ERIS     OPER   

 PROGRAMS   *        TOTAL       INT
 CPU TIMES  *         2.17      2.13
 REAL TIME  *         2.50 SEC
 DISK USED  *       301.44 MB      
 GA USED    *         0.00 MB       (max)       0.00 MB       (current)
 **********************************************************************************************************************************

1PROGRAM * RHF-SCF (CLOSED SHELL)       Authors: W. Meyer, H.-J. Werner


 NUMBER OF ELECTRONS:      29+   29-
 CONVERGENCE THRESHOLDS:    1.00E-10 (Density)    1.00E-13 (Energy)
 MAX. NUMBER OF ITERATIONS:      200
 INTERPOLATION TYPE:            DIIS
 INTERPOLATION STEPS:              2 (START)      1 (STEP)
 LEVEL SHIFTS:                  0.00 (CLOSED)  0.00 (OPEN) 



 Orbital guess generated from atomic densities. Full valence occupancy:   21   5  15   3

 Molecular orbital dump at record        2100.2

 Initial alpha occupancy:  14   3  10   2
 Initial beta  occupancy:  14   3  10   2
 Wave function symmetry:    1

 ITERATION    DDIFF          GRAD             ENERGY        2-EL.EN.            DIPOLE MOMENTS         DIIS
    1      0.000D+00      0.000D+00      -428.34333403    992.556537    0.00000    0.00000    0.47734    0
    2      0.000D+00      0.109D-01      -428.41756871    992.098388    0.00000    0.00000    0.93230    1
    3      0.225D-01      0.497D-02      -428.43163419    992.436852    0.00000    0.00000    0.62553    2
    4      0.715D-02      0.131D-02      -428.43320497    992.491965    0.00000    0.00000    0.73847    3
    5      0.268D-02      0.396D-03      -428.43334119    992.457786    0.00000    0.00000    0.70553    4
    6      0.672D-03      0.832D-04      -428.43334906    992.467081    0.00000    0.00000    0.70980    5
    7      0.178D-03      0.252D-04      -428.43335015    992.470461    0.00000    0.00000    0.70814    6
    8      0.609D-04      0.908D-05      -428.43335030    992.469830    0.00000    0.00000    0.70856    7
    9      0.208D-04      0.419D-05      -428.43335033    992.470246    0.00000    0.00000    0.70828    8
   10      0.113D-04      0.163D-05      -428.43335034    992.470829    0.00000    0.00000    0.70835    8
   11      0.523D-05      0.903D-06      -428.43335034    992.470737    0.00000    0.00000    0.70832    8
   12      0.313D-05      0.351D-06      -428.43335034    992.470837    0.00000    0.00000    0.70833    8
   13      0.173D-05      0.579D-07      -428.43335034    992.470863    0.00000    0.00000    0.70833    8
   14      0.185D-06      0.222D-07      -428.43335034    992.470858    0.00000    0.00000    0.70832    9
   15      0.743D-07      0.523D-08      -428.43335034    992.470858    0.00000    0.00000    0.70832    9
   16      0.158D-07      0.201D-08      -428.43335034    992.470858    0.00000    0.00000    0.70832    9
   17      0.618D-08      0.755D-09      -428.43335034    992.470858    0.00000    0.00000    0.70832    8
   18      0.223D-08      0.155D-09      -428.43335034    992.470858    0.00000    0.00000    0.70832    7
   19      0.405D-09      0.520D-10      -428.43335034    992.470858    0.00000    0.00000    0.70832    7
   20      0.139D-09      0.189D-10      -428.43335034    992.470858    0.00000    0.00000    0.70832    8
   21      0.359D-10      0.424D-11      -428.43335034    992.470858    0.00000    0.00000    0.70832    8
   22      0.905D-11      0.138D-11      -428.43335034    992.470858    0.00000    0.00000    0.70832    0

 Final occupancy:  14   3  10   2

 !RHF STATE 1.1 Energy               -428.433350341620
 Nuclear energy                       342.10782688
 One-electron energy                -1266.77660628
 Two-electron energy                  496.23542906
 Virial quotient                       -1.00064560
 !RHF STATE 1.1 Dipole moment           0.00000000     0.00000000     0.70832423
 Dipole moment /Debye                   0.00000000     0.00000000     1.80026270

 Orbital energies:

         1.1          2.1          3.1          4.1          5.1          6.1          7.1          8.1          9.1         10.1
    -26.320475   -11.349937   -11.273046   -11.259793   -11.256250    -1.637610    -1.179412    -1.047164    -0.874930    -0.773378

        11.1         12.1         13.1         14.1         15.1         16.1
     -0.703157    -0.667659    -0.623407    -0.533028     0.179630     0.220979

         1.2          2.2          3.2          4.2          5.2
     -0.702751    -0.514284    -0.360849     0.113535     0.343731

         1.3          2.3          3.3          4.3          5.3          6.3          7.3          8.3          9.3         10.3
    -26.320477   -11.349932   -11.256304    -1.637014    -1.037200    -0.864436    -0.740018    -0.684469    -0.586559    -0.555703

        11.3         12.3
      0.226630     0.339750

         1.4          2.4          3.4          4.4
     -0.694746    -0.348886     0.131172     0.714943


 **********************************************************************************************************************************
 DATASETS  * FILE   NREC   LENGTH (MB)   RECORD NAMES
              1      19       83.54       500      610      700      900      950      970     1000      129      960     1100   
                                          VAR    BASINP    GEOM    SYMINP    ZMAT    AOBASIS   BASIS     P2S    ABASIS      S 
                                         1400     1410     1200     1210     1080     1600     1650     1300     1700   
                                           T        V       H0       H01     AOSYM     SMH    MOLCAS    ERIS     OPER   

              2       3        0.58       700     1000     2100   
                                         GEOM     BASIS     RHF  

 PROGRAMS   *        TOTAL       RHF       INT
 CPU TIMES  *         2.85      0.68      2.13
 REAL TIME  *         3.35 SEC
 DISK USED  *       301.44 MB      
 GA USED    *         0.00 MB       (max)       0.00 MB       (current)
 **********************************************************************************************************************************


1PROGRAM * CCSD (Closed-shell coupled cluster)     Authors: C. Hampel, H.-J. Werner, 1991, M. Deegan, P.J. Knowles, 1992


 Convergence thresholds:  THRVAR = 1.00D-08  THRDEN = 1.00D-12

 CCSD(T)     terms to be evaluated (factor= 1.000)


 Number of core orbitals:           8 (   5   0   3   0 )
 Number of closed-shell orbitals:  21 (   9   3   7   2 )
 Number of external orbitals:     103 (  40  18  32  13 )

 Molecular orbitals read from record     2100.2  Type=RHF/CANONICAL (state 1.1)

 Number of N-1 electron functions:              21
 Number of N-2 electron functions:             231
 Number of singly external CSFs:               664
 Number of doubly external CSFs:            611519
 Total number of CSFs:                      612184

 Length of J-op  integral file:               0.00 MB
 Length of K-op  integral file:               0.40 MB
 Length of 3-ext integral record:             0.00 MB

 Memory could be reduced to 8.58 Mwords without degradation in triples

 Integral transformation finished. Total CPU:   0.27 sec, npass=  1  Memory used:   3.54 MW

 Reference energy:                   -428.43335034

 MP2 singlet pair energy:              -0.67288781
 MP2 triplet pair energy:              -0.46579910
 MP2 correlation energy:               -1.13868691
 MP2 total energy:                   -429.57203725

 SCS-MP2 correlation energy:           -1.09729592   (PS=  1.200000  PT=  0.333333)
 SCS-MP2 total energy:               -429.53064626

 ITER.      SQ.NORM     CORR.ENERGY   TOTAL ENERGY   ENERGY CHANGE        DEN1      VAR(S)    VAR(P)  DIIS     TIME
   1      1.36237394    -1.16840669  -429.60175703    -0.02971978     0.00057931  0.68D-02  0.73D-02  1  1     1.03
   2      1.38888765    -1.17193559  -429.60528593    -0.00352890    -0.02703869  0.13D-03  0.11D-02  2  2     1.83
   3      1.39972035    -1.17254102  -429.60589136    -0.00060543    -0.00539716  0.87D-04  0.10D-03  3  3     2.62
   4      1.40375942    -1.17246511  -429.60581545     0.00007591    -0.00142766  0.47D-05  0.20D-04  4  4     3.41
   5      1.40560610    -1.17249549  -429.60584584    -0.00003039    -0.00045274  0.91D-06  0.22D-05  5  5     4.22
   6      1.40608298    -1.17250130  -429.60585165    -0.00000581    -0.00006826  0.12D-06  0.25D-06  6  6     5.02
   7      1.40617021    -1.17249621  -429.60584656     0.00000509     0.00000033  0.27D-07  0.22D-07  6  1     5.82
   8      1.40619516    -1.17249732  -429.60584766    -0.00000110    -0.00000760  0.58D-08  0.29D-08  6  2     6.62
   9      1.40619638    -1.17249798  -429.60584832    -0.00000066     0.00000229  0.16D-08  0.34D-09  6  3     7.43
  10      1.40619867    -1.17249774  -429.60584808     0.00000024    -0.00000119  0.37D-09  0.73D-10  6  4     8.23
  11      1.40619870    -1.17249797  -429.60584831    -0.00000023     0.00000032  0.46D-10  0.19D-10  6  5     9.02
  12      1.40619891    -1.17249795  -429.60584829     0.00000002    -0.00000007  0.11D-10  0.24D-11  6  6     9.82
  13      1.40619892    -1.17249797  -429.60584831    -0.00000002     0.00000004  0.58D-12  0.56D-12  6  1    10.63
  14      1.40619892    -1.17249797  -429.60584832    -0.00000001     0.00000002  0.15D-12  0.89D-13  6  2    11.43
  15      1.40619892    -1.17249797  -429.60584832     0.00000000     0.00000000  0.40D-13  0.15D-13  6  3    12.23
  16      1.40619892    -1.17249798  -429.60584832    -0.00000000     0.00000000  0.62D-14  0.44D-14  6  4    13.03
  17      1.40619892    -1.17249798  -429.60584832    -0.00000000    -0.00000000  0.16D-14  0.76D-15  6  5    13.83
  18      1.40619893    -1.17249798  -429.60584832    -0.00000000    -0.00000000  0.22D-15  0.11D-15  6  6    14.63
  19      1.40619893    -1.17249798  -429.60584832    -0.00000000    -0.00000000  0.34D-16  0.24D-16  6  1    15.43
  20      1.40619893    -1.17249798  -429.60584832     0.00000000    -0.00000000  0.14D-16  0.31D-17  6  2    16.23
  21      1.40619893    -1.17249798  -429.60584832    -0.00000000    -0.00000000  0.16D-17  0.71D-18  6  3    17.04
  22      1.40619893    -1.17249798  -429.60584832    -0.00000000    -0.00000000  0.49D-18  0.15D-18  6  4    17.84
  23      1.40619893    -1.17249798  -429.60584832     0.00000000    -0.00000000  0.98D-19  0.25D-19  6  5    18.63
  24      1.40619893    -1.17249798  -429.60584832    -0.00000000    -0.00000000  0.81D-20  0.54D-20  6  6    19.44
  25      1.40619893    -1.17249798  -429.60584832    -0.00000000     0.00000000  0.20D-20  0.13D-20  6  1    20.23

 Norm of t1 vector:      0.10840590      S-energy:     0.00000000      T1 diagnostic:  0.01182805
                                                                       D1 diagnostic:  0.03157937

 Doubles amplitudes (print threshold =  0.500E-01):

         I         J         SYM. A    SYM. B    A         B      T(IJ, AB)

        12        12         2         2         1         1     -0.08683934
        21        21         4         4         1         1     -0.08418244
        21        12         2         4         1         1     -0.05136446


 Total CPU time for triples:     13.68 sec


 RESULTS
 =======

  Reference energy                   -428.433350341621
  CCSD singlet pair energy             -0.757037250324
  CCSD triplet pair energy             -0.415460725738
  CCSD correlation energy              -1.172497976061

  Triples (T) contribution             -0.043111066504
  Total correlation energy             -1.215609042564

  CCSD total energy                  -429.605848317681
  CCSD[T] energy                     -429.650968306733
  CCSD-T energy                      -429.648230807374
 !CCSD(T) total energy               -429.648959384185

 Timing summary (sec):

 STEP                 CPU(USER)    SYS     CPU(TOT)    WALL
 Transformation          0.29      0.06      0.35      0.35
 CCSD iterations        19.94      0.92     20.86     20.94
 Triples                13.68      0.48     14.16     14.16

 Program statistics:

 Available memory in ccsd:               999998136
 Min. memory needed in ccsd:               1649999
 Max. memory used in ccsd:                 2209098
 Max. memory used in cckext:               2371604 (25 integral passes)



 **********************************************************************************************************************************
 DATASETS  * FILE   NREC   LENGTH (MB)   RECORD NAMES
              1      20      121.15       500      610      700      900      950      970     1000      129      960     1100   
                                          VAR    BASINP    GEOM    SYMINP    ZMAT    AOBASIS   BASIS     P2S    ABASIS      S 
                                         1400     1410     1200     1210     1080     1600     1650     1300     1700     1380   
                                           T        V       H0       H01     AOSYM     SMH    MOLCAS    ERIS     OPER     JKOP   

              2       3        0.58       700     1000     2100   
                                         GEOM     BASIS     RHF  

 PROGRAMS   *        TOTAL   CCSD(T)       RHF       INT
 CPU TIMES  *        36.78     33.92      0.68      2.13
 REAL TIME  *        38.84 SEC
 DISK USED  *       321.29 MB      
 GA USED    *         0.00 MB       (max)       0.00 MB       (current)
 **********************************************************************************************************************************

        CCSD(T)         RHF-SCF 
   -429.64895938   -428.43335034
 **********************************************************************************************************************************
 Variable memory released
