
 Primary working directories    : /tmp/1049102.1039.gen4.q
 Secondary working directories  : /tmp/1049102.1039.gen4.q
 Wavefunction directory         : /home/vulcan/mel64643/wfu/
 Main file repository           : /tmp/1049102.1039.gen4.q/

 ARCHNAME  : Linux/x86_64
 FC        : /opt/intel/compilers_and_libraries_2016.1.150/linux/bin/intel64/ifort
 FCVERSION : 16.0.1
 BLASLIB   : -mkl
 id        : ccgc

 Nodes     nprocs
 n061         1
 ga_uses_ma=false, calling ma_init with nominal heap.
 GA-space will be limited to   8.0 MW (determined by -G option)

 Using customized tuning parameters: mindgm=10; mindgv=16; mindgc=4; mindgr=1; noblas=0; mincuda=1000; minvec=7
 default implementation of scratch files=df  

 ***,Optimization of h2o_3
 memory,1000,m
 gthresh,energy=1.0d-12,orbital=1.0d-10,oneint=1.0d-16,twoint=1.0d-16,optgrad=1.0d-6,compress=1.0d-13
 geomtyp=xyz
 
 
 
 bohr
 geometry = {
  C    0.9184405147    1.4060905666   -2.2730477766
  C    0.7426659387    2.7098656201    0.0184536198
  C    1.0014435082    1.4064847150    2.3024578093
  C    1.4343974611   -1.2007234433    2.2949619190
  C    1.6108993036   -2.5040069404    0.0035026543
  C    1.3521802198   -1.2004024494   -2.2802974329
  H    0.7005301971    2.4139033271   -4.0426383434
  H    0.3833787253    4.7259402022    0.0244571347
  H    0.8517208630    2.4150892289    4.0788973994
  H    1.6240846775   -2.2123588873    4.0660364111
  H    1.9361959473   -4.5263241363   -0.0021947640
  H    1.4783166090   -2.2123753601   -4.0569388531
  N   -5.4390857850   -0.3570971236   -0.0741381145
  H   -5.5840443430   -1.5653909420   -1.5483236325
  H   -6.0712093567   -1.3173525675    1.4707415964
  H   -3.5589826136   -0.0731314079    0.1981480502
 }
 
 basis=aug-cc-pvdz, H=cc-pvdz
 {rhf;maxit,200}
 {ccsd(t)}

 Variables initialized (661), CPU time= 0.01 sec
 Commands  initialized (458), CPU time= 0.00 sec, 486 directives.
 Default parameters read. Elapsed time= 0.05 sec

 Checking input...
 Passed
1


                                         ***  PROGRAM SYSTEM MOLPRO  ***
                         Copyright, University College Cardiff Consultants Limited, 2008

                                    Version 2010.1 linked May 16 2016 07:17:05


 **********************************************************************************************************************************
 LABEL *   Optimization of h2o_3                                                         
 Linux-4.4.3/n061(x86_64) 64 bit mpp version                                             DATE: 20-Mar-24          TIME: 09:02:52  
 **********************************************************************************************************************************

 SHA1:             9e8077add272b0f3cad6f7df79ec5211205f459d
 **********************************************************************************************************************************

 THRESHOLDS:

 ZERO    =  1.00D-12  ONEINT  =  1.00D-16  TWOINT  =  1.00D-16  PREFAC  =  1.00D-14  LOCALI  =  1.00D-09  EORDER  =  1.00D-04
 ENERGY  =  1.00D-12  ETEST   =  0.00D+00  EDENS   =  0.00D+00  THRDEDEF=  1.00D-06  GRADIENT=  1.00D-02  STEP    =  1.00D-03
 ORBITAL =  1.00D-10  CIVEC   =  1.00D-05  COEFF   =  1.00D-04  PRINTCI =  5.00D-02  PUNCHCI =  9.90D+01  OPTGRAD =  1.00D-06
 OPTENERG=  1.00D-06  OPTSTEP =  3.00D-04  THRGRAD =  1.00D-10  COMPRESS=  1.00D-13  VARMIN  =  1.00D-07  VARMAX  =  1.00D-03
 THRDOUB =  0.00D+00  THRDIV  =  1.00D-05  THRRED  =  1.00D-07  THRPSP  =  1.00D+00  THRDC   =  1.00D-10  THRCS   =  1.00D-10
 THRNRM  =  1.00D-08  THREQ   =  0.00D+00  THRDE   =  1.00D+00  THRREF  =  1.00D-05  SPARFAC =  1.00D+00  THRDLP  =  1.00D-07
 THRDIA  =  1.00D-10  THRDLS  =  1.00D-07  THRGPS  =  0.00D+00  THRKEX  =  0.00D+00  THRDIS  =  2.00D-01  THRVAR  =  1.00D-10
 THRLOC  =  1.00D-06  THRGAP  =  1.00D-06  THRLOCT = -1.00D+00  THRGAPT = -1.00D+00  THRORB  =  1.00D-06  THRMLTP =  0.00D+00
 THRCPQCI=  1.00D-10  KEXTA   =  0.00D+00  THRCOARS=  0.00D+00  SYMTOL  =  1.00D-06  GRADTOL =  1.00D-06  THROVL  =  1.00D-08
 THRORTH =  1.00D-08  GRID    =  1.00D-06  GRIDMAX =  1.00D-03  DTMAX   =  0.00D+00

 SETTING GEOMTYP        =    XYZ
 ZUNIT=BOHR
 

 Variable memory set to 1000000000 words,  buffer space   230000 words

 SETTING BASIS          =    AUG-CC-PVDZ,H=CC-PVDZ


 Recomputing integrals since basis changed


 Using spherical harmonics

 Library entry C      S aug-cc-pVDZ          selected for orbital group  1
 Library entry C      P aug-cc-pVDZ          selected for orbital group  1
 Library entry C      D aug-cc-pVDZ          selected for orbital group  1
 Library entry H      S cc-pVDZ              selected for orbital group  2
 Library entry H      P cc-pVDZ              selected for orbital group  2
 Library entry N      S aug-cc-pVDZ          selected for orbital group  3
 Library entry N      P aug-cc-pVDZ          selected for orbital group  3
 Library entry N      D aug-cc-pVDZ          selected for orbital group  3

1PROGRAM * SEWARD (Integral evaluation for generally contracted gaussian basis sets)     Author: Roland Lindh, 1990

 Geometry written to block  1 of record 700


 Point group  C1  



 ATOMIC COORDINATES

 NR  ATOM    CHARGE       X              Y              Z

   1  C       6.00    0.918440515    1.406090567   -2.273047777
   2  C       6.00    0.742665939    2.709865620    0.018453620
   3  C       6.00    1.001443508    1.406484715    2.302457809
   4  C       6.00    1.434397461   -1.200723443    2.294961919
   5  C       6.00    1.610899304   -2.504006940    0.003502654
   6  C       6.00    1.352180220   -1.200402449   -2.280297433
   7  H       1.00    0.700530197    2.413903327   -4.042638343
   8  H       1.00    0.383378725    4.725940202    0.024457135
   9  H       1.00    0.851720863    2.415089229    4.078897399
  10  H       1.00    1.624084677   -2.212358887    4.066036411
  11  H       1.00    1.936195947   -4.526324136   -0.002194764
  12  H       1.00    1.478316609   -2.212375360   -4.056938853
  13  N       7.00   -5.439085785   -0.357097124   -0.074138115
  14  H       1.00   -5.584044343   -1.565390942   -1.548323633
  15  H       1.00   -6.071209357   -1.317352567    1.470741596
  16  H       1.00   -3.558982614   -0.073131408    0.198148050

 Bond lengths in Bohr (Angstrom)

 1-2  2.642291570  1-6  2.642345271  1-7  2.048077694  2-3  2.642431220  2-8  2.047847666
     ( 1.398240478)     ( 1.398268896)     ( 1.083796038)     ( 1.398314378)     ( 1.083674313)

  3- 4  2.642922567   3- 9  2.048276728   4- 5  2.642061002   4-10  2.048436567   5- 6  2.642359376
       ( 1.398574388)       ( 1.083901362)       ( 1.398118467)       ( 1.083985945)       ( 1.398276360)

  5-11  2.048320582   6-12  2.048524907  13-14  1.911598775  13-15  1.925700924  13-16  1.920823838
       ( 1.083924569)       ( 1.084032693)       ( 1.011574504)       ( 1.019037040)       ( 1.016456198)

 Bond angles

  1- 2- 3  119.98067062   1- 2- 8  119.99893693   1- 6- 5  120.02353161   1- 6-12  119.98577000

  2-1-6  120.00199247   2-1-7  119.96266820   2-3-4  120.01168043   2-3-9  119.97359505

  3- 2- 8  120.01624049   3- 4- 5  120.00136192   3- 4-10  119.99345764   4- 3- 9  120.01298641

  4- 5- 6  119.98073501   4- 5-11  120.00280596   5- 4-10  120.00452248   5- 6-12  119.98995376

  6- 1- 7  120.03277079   6- 5-11  120.01529199  14-13-15  106.17607595  14-13-16  106.08043210

 15-13-16  106.33745533

 NUCLEAR CHARGE:                   52
 NUMBER OF PRIMITIVE AOS:         322
 NUMBER OF SYMMETRY AOS:          308
 NUMBER OF CONTRACTIONS:          206   ( 206A   )
 NUMBER OF CORE ORBITALS:           7   (   7A   )
 NUMBER OF VALENCE ORBITALS:       37   (  37A   )


 NUCLEAR REPULSION ENERGY  273.71985592


 Eigenvalues of metric

         1 0.861E-05 0.184E-04 0.228E-04 0.532E-04 0.643E-04 0.644E-04 0.107E-03 0.108E-03


 Contracted 2-electron integrals neglected if value below      1.0D-16
 AO integral compression algorithm  1   Integral accuracy      1.0D-16

     1892.418 MB (compressed) written to integral file ( 94.5%)

     Node minimum: 1892.418 MB, node maximum: 1892.418 MB


 NUMBER OF SORTED TWO-ELECTRON INTEGRALS:  227303181.     BUFFER LENGTH:  32768
 NUMBER OF SEGMENTS:  15  SEGMENT LENGTH:   15999503      RECORD LENGTH: 524288

 Memory used in sort:      16.56 MW

 SORT1 READ   250230751. AND WROTE   226412689. INTEGRALS IN    654 RECORDS. CPU TIME:     2.40 SEC, REAL TIME:     4.37 SEC
 SORT2 READ   226412689. AND WROTE   227303181. INTEGRALS IN   7219 RECORDS. CPU TIME:     1.39 SEC, REAL TIME:     2.32 SEC

 FILE SIZES:   FILE 1:  1743.3 MBYTE,  FILE 4:  2743.1 MBYTE,   TOTAL:   4486.4 MBYTE

 OPERATOR DM      FOR CENTER  0  COORDINATES:    0.000000    0.000000    0.000000


 **********************************************************************************************************************************
 DATASETS  * FILE   NREC   LENGTH (MB)   RECORD NAMES
              1      19     1743.81       500      610      700      900      950      970     1000      129      960     1100   
                                          VAR    BASINP    GEOM    SYMINP    ZMAT    AOBASIS   BASIS     P2S    ABASIS      S 
                                         1400     1410     1200     1210     1080     1600     1650     1300     1700   
                                           T        V       H0       H01     AOSYM     SMH    MOLCAS    ERIS     OPER   

 PROGRAMS   *        TOTAL       INT
 CPU TIMES  *        14.61     14.56
 REAL TIME  *        18.56 SEC
 DISK USED  *         6.38 GB      
 GA USED    *         0.01 MB       (max)       0.00 MB       (current)
 **********************************************************************************************************************************

1PROGRAM * RHF-SCF (CLOSED SHELL)       Authors: W. Meyer, H.-J. Werner


 NUMBER OF ELECTRONS:      26+   26-    SPACE SYMMETRY=1    SPIN SYMMETRY: Singlet 
 CONVERGENCE THRESHOLDS:    1.00E-10 (Density)    1.00E-13 (Energy)
 MAX. NUMBER OF ITERATIONS:      200
 INTERPOLATION TYPE:            DIIS
 INTERPOLATION STEPS:              2 (START)      1 (STEP)
 LEVEL SHIFTS:                  0.00 (CLOSED)  0.00 (OPEN) 



 Orbital guess generated from atomic densities. Full valence occupancy:   44

 Molecular orbital dump at record        2100.2

 ITERATION    DDIFF          GRAD             ENERGY        2-EL.EN.            DIPOLE MOMENTS         DIIS
    1      0.000D+00      0.000D+00      -286.85321795    740.902110    0.51248   -0.76837    0.14309    0
    2      0.000D+00      0.322D-02      -286.92077766    735.109980    0.42830   -0.38540    0.06291    1
    3      0.826D-02      0.133D-02      -286.93010731    737.742171    0.44432   -0.52378    0.09460    2
    4      0.218D-02      0.381D-03      -286.93132550    737.222241    0.44279   -0.49715    0.08605    3
    5      0.784D-03      0.526D-04      -286.93134932    737.210970    0.44857   -0.50723    0.09015    4
    6      0.135D-03      0.177D-04      -286.93135176    737.225862    0.44741   -0.50175    0.08796    5
    7      0.511D-04      0.554D-05      -286.93135203    737.222787    0.44806   -0.50396    0.08874    6
    8      0.150D-04      0.129D-05      -286.93135205    737.221780    0.44821   -0.50361    0.08859    7
    9      0.417D-05      0.542D-06      -286.93135205    737.222238    0.44825   -0.50370    0.08862    7
   10      0.148D-05      0.143D-06      -286.93135206    737.222187    0.44825   -0.50370    0.08862    7
   11      0.517D-06      0.409D-07      -286.93135206    737.222172    0.44826   -0.50370    0.08862    7
   12      0.142D-06      0.174D-07      -286.93135206    737.222186    0.44826   -0.50370    0.08862    8
   13      0.610D-07      0.762D-08      -286.93135206    737.222181    0.44826   -0.50370    0.08862    8
   14      0.338D-07      0.362D-08      -286.93135206    737.222183    0.44826   -0.50370    0.08862    8
   15      0.201D-07      0.138D-08      -286.93135206    737.222182    0.44826   -0.50370    0.08862    8
   16      0.710D-08      0.455D-09      -286.93135206    737.222182    0.44826   -0.50370    0.08862    9
   17      0.214D-08      0.124D-09      -286.93135206    737.222182    0.44826   -0.50370    0.08862    9
   18      0.433D-09      0.385D-10      -286.93135206    737.222182    0.44826   -0.50370    0.08862    8
   19      0.252D-09      0.158D-10      -286.93135206    737.222182    0.44826   -0.50370    0.08862    9
   20      0.155D-09      0.846D-11      -286.93135206    737.222182    0.44826   -0.50370    0.08862    9
   21      0.162D-09      0.413D-11      -286.93135206    737.222182    0.44826   -0.50370    0.08862    9
   22      0.151D-09      0.124D-11      -286.93135206    737.222182    0.44826   -0.50370    0.08862    9
   23      0.157D-09      0.752D-12      -286.93135206    737.222182    0.44826   -0.50370    0.08862    9
   24      0.107D-09      0.653D-12      -286.93135206    737.222182    0.44826   -0.50370    0.08862    9
   25      0.598D-10      0.571D-12      -286.93135206    737.222182    0.44826   -0.50370    0.08862    9
   26      0.481D-10      0.486D-12      -286.93135206    737.222182    0.44826   -0.50370    0.08862    9
   27      0.217D-10      0.451D-12      -286.93135206    737.222182    0.44826   -0.50370    0.08862    9
   28      0.255D-10      0.429D-12      -286.93135206    737.222182    0.44826   -0.50370    0.08862    9
   29      0.201D-10      0.511D-12      -286.93135206    737.222182    0.44826   -0.50370    0.08862    9
   30      0.134D-10      0.439D-12      -286.93135206    737.222182    0.44826   -0.50370    0.08862    9
   31      0.118D-10      0.442D-12      -286.93135206    737.222182    0.44826   -0.50370    0.08862    9
   32      0.109D-10      0.422D-12      -286.93135206    737.222182    0.44826   -0.50370    0.08862    9
   33      0.979D-11      0.389D-12      -286.93135206    737.222182    0.44826   -0.50370    0.08862    9
   34      0.883D-11      0.549D-12      -286.93135206    737.222182    0.44826   -0.50370    0.08862    0

 Final occupancy:  26

 !RHF STATE 1.1 Energy               -286.931352055201
 Nuclear energy                       273.71985592
 One-electron energy                 -929.26229913
 Two-electron energy                  368.61109116
 Virial quotient                       -1.00146499
 !RHF STATE 1.1 Dipole moment           0.44825870    -0.50370057     0.08861881
 Dipole moment /Debye                   1.13928534    -1.28019529     0.22523179

 Orbital energies:

         1.1          2.1          3.1          4.1          5.1          6.1          7.1          8.1          9.1         10.1
    -15.535071   -11.250633   -11.250028   -11.249673   -11.248805   -11.248661   -11.247829    -1.157505    -1.125636    -1.022057

        11.1         12.1         13.1         14.1         15.1         16.1         17.1         18.1         19.1         20.1
     -1.021951    -0.830638    -0.830539    -0.714498    -0.650453    -0.623921    -0.611655    -0.609979    -0.593577    -0.593453

        21.1         22.1         23.1         24.1         25.1         26.1         27.1         28.1
     -0.504902    -0.500100    -0.500022    -0.413502    -0.342978    -0.341991     0.063935     0.066428


 **********************************************************************************************************************************
 DATASETS  * FILE   NREC   LENGTH (MB)   RECORD NAMES
              1      19     1743.81       500      610      700      900      950      970     1000      129      960     1100   
                                          VAR    BASINP    GEOM    SYMINP    ZMAT    AOBASIS   BASIS     P2S    ABASIS      S 
                                         1400     1410     1200     1210     1080     1600     1650     1300     1700   
                                           T        V       H0       H01     AOSYM     SMH    MOLCAS    ERIS     OPER   

              2       3        1.40       700     1000     2100   
                                         GEOM     BASIS     RHF  

 PROGRAMS   *        TOTAL       RHF       INT
 CPU TIMES  *        73.83     59.22     14.56
 REAL TIME  *        84.03 SEC
 DISK USED  *         6.38 GB      
 GA USED    *         0.01 MB       (max)       0.00 MB       (current)
 **********************************************************************************************************************************


1PROGRAM * CCSD (Closed-shell coupled cluster)     Authors: C. Hampel, H.-J. Werner, 1991, M. Deegan, P.J. Knowles, 1992


 Convergence thresholds:  THRVAR = 1.00D-08  THRDEN = 1.00D-12

 CCSD(T)     terms to be evaluated (factor= 1.000)


 Number of core orbitals:           7 (   7 )
 Number of closed-shell orbitals:  19 (  19 )
 Number of external orbitals:     180 ( 180 )

 Molecular orbitals read from record     2100.2  Type=RHF/CANONICAL (state 1.1)

 Number of N-1 electron functions:              19
 Number of N-2 electron functions:             190
 Number of singly external CSFs:              3420
 Number of doubly external CSFs:           5849910
 Total number of CSFs:                     5853331

 Length of J-op  integral file:               0.00 MB
 Length of K-op  integral file:               2.96 MB
 Length of 3-ext integral record:             0.00 MB

 Memory could be reduced to 140.12 Mwords without degradation in triples

 Integral transformation finished. Total CPU:  13.95 sec, npass=  1  Memory used: 101.90 MW

 Reference energy:                   -286.93135206

 MP2 singlet pair energy:              -0.62063087
 MP2 triplet pair energy:              -0.38983412
 MP2 correlation energy:               -1.01046500
 MP2 total energy:                   -287.94181705

 SCS-MP2 correlation energy:           -0.98732050   (PS=  1.200000  PT=  0.333333)
 SCS-MP2 total energy:               -287.91867256

 ITER.      SQ.NORM     CORR.ENERGY   TOTAL ENERGY   ENERGY CHANGE        DEN1      VAR(S)    VAR(P)  DIIS     TIME
   1      1.38488280    -1.05475742  -287.98610948    -0.04429242    -0.01721382  0.36D-02  0.80D-02  1  1    50.87
   2      1.41439609    -1.06062028  -287.99197234    -0.00586286    -0.02705303  0.63D-04  0.10D-02  2  2    88.28
   3      1.42352756    -1.06071602  -287.99206808    -0.00009574    -0.00464359  0.27D-04  0.84D-04  3  3   125.71
   4      1.42746495    -1.06088477  -287.99223683    -0.00016875    -0.00121414  0.22D-05  0.11D-04  4  4   163.15
   5      1.42867855    -1.06091572  -287.99226777    -0.00003095    -0.00027319  0.27D-06  0.13D-05  5  5   200.62
   6      1.42898113    -1.06090548  -287.99225754     0.00001024    -0.00004348  0.23D-07  0.79D-07  6  6   238.09
   7      1.42902188    -1.06090711  -287.99225917    -0.00000163    -0.00000103  0.35D-08  0.82D-08  6  2   275.56
   8      1.42903107    -1.06090697  -287.99225903     0.00000014    -0.00000117  0.75D-09  0.76D-09  6  1   313.05
   9      1.42903090    -1.06090711  -287.99225916    -0.00000014     0.00000123  0.21D-09  0.92D-10  6  4   350.53
  10      1.42903209    -1.06090712  -287.99225917    -0.00000001    -0.00000018  0.57D-10  0.15D-10  6  3   387.99
  11      1.42903204    -1.06090713  -287.99225919    -0.00000002     0.00000013  0.14D-10  0.37D-11  6  5   425.45
  12      1.42903199    -1.06090714  -287.99225919    -0.00000000     0.00000003  0.15D-11  0.10D-11  6  6   462.93
  13      1.42903182    -1.06090714  -287.99225920    -0.00000000     0.00000006  0.69D-13  0.20D-12  6  2   500.40
  14      1.42903172    -1.06090714  -287.99225920    -0.00000000     0.00000002  0.81D-14  0.40D-13  6  1   537.87
  15      1.42903166    -1.06090714  -287.99225920    -0.00000000     0.00000001  0.89D-15  0.53D-14  6  3   575.36
  16      1.42903164    -1.06090714  -287.99225920    -0.00000000     0.00000000  0.12D-15  0.37D-15  6  4   612.87
  17      1.42903163    -1.06090714  -287.99225920    -0.00000000     0.00000000  0.31D-16  0.44D-16  6  5   650.33
  18      1.42903163    -1.06090714  -287.99225920    -0.00000000     0.00000000  0.82D-17  0.70D-17  6  6   687.79
  19      1.42903163    -1.06090714  -287.99225920    -0.00000000     0.00000000  0.24D-17  0.77D-18  6  2   725.29
  20      1.42903163    -1.06090714  -287.99225920    -0.00000000     0.00000000  0.77D-18  0.18D-18  6  1   762.79
  21      1.42903163    -1.06090714  -287.99225920    -0.00000000     0.00000000  0.29D-18  0.76D-19  6  3   800.22
  22      1.42903163    -1.06090714  -287.99225920    -0.00000000     0.00000000  0.12D-18  0.37D-19  6  4   837.67
  23      1.42903163    -1.06090714  -287.99225920    -0.00000000     0.00000000  0.55D-19  0.21D-19  6  6   875.16

 Norm of t1 vector:      0.08386057      S-energy:    -0.00000000      T1 diagnostic:  0.00961947
                                                                       D1 diagnostic:  0.02618967

 Doubles amplitudes (print threshold =  0.500E-01):

         I         J         SYM. A    SYM. B    A         B      T(IJ, AB)

        18        18         1         1         6         6     -0.05111741
        19        19         1         1         7         7     -0.05451324


 Total CPU time for triples:    734.55 sec


 RESULTS
 =======

  Reference energy                   -286.931352055198
  CCSD singlet pair energy             -0.711155311128
  CCSD triplet pair energy             -0.349751831563
  CCSD correlation energy              -1.060907142691

  Triples (T) contribution             -0.045602750650
  Total correlation energy             -1.106509893341

  CCSD total energy                  -287.992259197889
  CCSD[T] energy                     -288.038732156346
  CCSD-T energy                      -288.037473410923
 !CCSD(T) total energy               -288.037861948539

 Timing summary (sec):

 STEP                 CPU(USER)    SYS     CPU(TOT)    WALL
 Transformation         14.36      0.83     15.19     15.20
 CCSD iterations       860.82     12.32    873.14    873.42
 Triples               734.55     11.38    745.93    746.02

 Program statistics:

 Available memory in ccsd:               999998456
 Min. memory needed in ccsd:              14392275
 Max. memory used in ccsd:                19775697
 Max. memory used in cckext:              16737545 (23 integral passes)



 **********************************************************************************************************************************
 DATASETS  * FILE   NREC   LENGTH (MB)   RECORD NAMES
              1      20     2287.41       500      610      700      900      950      970     1000      129      960     1100   
                                          VAR    BASINP    GEOM    SYMINP    ZMAT    AOBASIS   BASIS     P2S    ABASIS      S 
                                         1400     1410     1200     1210     1080     1600     1650     1300     1700     1380   
                                           T        V       H0       H01     AOSYM     SMH    MOLCAS    ERIS     OPER     JKOP   

              2       3        1.40       700     1000     2100   
                                         GEOM     BASIS     RHF  

 PROGRAMS   *        TOTAL   CCSD(T)       RHF       INT
 CPU TIMES  *      1683.57   1609.74     59.22     14.56
 REAL TIME  *      1718.78 SEC
 DISK USED  *         6.38 GB      
 GA USED    *         0.01 MB       (max)       0.00 MB       (current)
 **********************************************************************************************************************************

        CCSD(T)         RHF-SCF 
   -288.03786195   -286.93135206
 **********************************************************************************************************************************
 Variable memory released
