
 Primary working directories    : /tmp/943417.319.gen6.q
 Secondary working directories  : /tmp/943417.319.gen6.q
 Wavefunction directory         : /home/vulcan/mel64643/wfu/
 Main file repository           : /tmp/943417.319.gen6.q/

 ARCHNAME  : Linux/x86_64
 FC        : /opt/intel/compilers_and_libraries_2016.1.150/linux/bin/intel64/ifort
 FCVERSION : 16.0.1
 BLASLIB   : -mkl
 id        : ccgc

 Nodes     nprocs
 n088         1
 ga_uses_ma=false, calling ma_init with nominal heap.
 GA-space will be limited to   8.0 MW (determined by -G option)

 Using customized tuning parameters: mindgm=10; mindgv=16; mindgc=4; mindgr=1; noblas=0; mincuda=1000; minvec=7
 default implementation of scratch files=df  

 ***,Optimization of nh3_nitrosmethane
 memory,1000,m
 gthresh,energy=1.0d-12,orbital=1.0d-10,oneint=1.0d-16,twoint=1.0d-16,optgrad=1.0d-6,compress=1.0d-13
 geomtyp=xyz
 
 bohr
 geometry = {
  N   -5.2178739953   -0.1914778135    0.0009032695
  H   -6.2947625301    0.2163672359   -1.5335378901
  H   -3.7586056414    1.0575550276   -0.0022971214
  H   -6.2930022839    0.2221732726    1.5350245536
  H   -0.9322144842   -2.3814310932   -0.0039749018
  H    1.8669004226   -3.4290429039   -1.6637157236
  H    1.8695652746   -3.4381490625    1.6696613803
  C    1.1278171220   -2.4646618268   -0.0025499384
  N    2.2746285940    0.0959006810    0.0001757069
  O    0.7216660118    1.7898234919    0.0003106650
 }
 
 basis=cc-pvdz
 {rhf;maxit,200}
 {ccsd(t);maxit,200}

 Variables initialized (661), CPU time= 0.00 sec
 Commands  initialized (458), CPU time= 0.01 sec, 486 directives.
 Default parameters read. Elapsed time= 0.04 sec

 Checking input...
 Passed
1


                                         ***  PROGRAM SYSTEM MOLPRO  ***
                         Copyright, University College Cardiff Consultants Limited, 2008

                                    Version 2010.1 linked May 16 2016 07:17:05


 **********************************************************************************************************************************
 LABEL *   Optimization of nh3_nitrosmethane                                             
 Linux-4.4.3/n088(x86_64) 64 bit mpp version                                             DATE: 25-Oct-23          TIME: 17:05:03  
 **********************************************************************************************************************************

 SHA1:             9e8077add272b0f3cad6f7df79ec5211205f459d
 **********************************************************************************************************************************

 THRESHOLDS:

 ZERO    =  1.00D-12  ONEINT  =  1.00D-16  TWOINT  =  1.00D-16  PREFAC  =  1.00D-14  LOCALI  =  1.00D-09  EORDER  =  1.00D-04
 ENERGY  =  1.00D-12  ETEST   =  0.00D+00  EDENS   =  0.00D+00  THRDEDEF=  1.00D-06  GRADIENT=  1.00D-02  STEP    =  1.00D-03
 ORBITAL =  1.00D-10  CIVEC   =  1.00D-05  COEFF   =  1.00D-04  PRINTCI =  5.00D-02  PUNCHCI =  9.90D+01  OPTGRAD =  1.00D-06
 OPTENERG=  1.00D-06  OPTSTEP =  3.00D-04  THRGRAD =  1.00D-10  COMPRESS=  1.00D-13  VARMIN  =  1.00D-07  VARMAX  =  1.00D-03
 THRDOUB =  0.00D+00  THRDIV  =  1.00D-05  THRRED  =  1.00D-07  THRPSP  =  1.00D+00  THRDC   =  1.00D-10  THRCS   =  1.00D-10
 THRNRM  =  1.00D-08  THREQ   =  0.00D+00  THRDE   =  1.00D+00  THRREF  =  1.00D-05  SPARFAC =  1.00D+00  THRDLP  =  1.00D-07
 THRDIA  =  1.00D-10  THRDLS  =  1.00D-07  THRGPS  =  0.00D+00  THRKEX  =  0.00D+00  THRDIS  =  2.00D-01  THRVAR  =  1.00D-10
 THRLOC  =  1.00D-06  THRGAP  =  1.00D-06  THRLOCT = -1.00D+00  THRGAPT = -1.00D+00  THRORB  =  1.00D-06  THRMLTP =  0.00D+00
 THRCPQCI=  1.00D-10  KEXTA   =  0.00D+00  THRCOARS=  0.00D+00  SYMTOL  =  1.00D-06  GRADTOL =  1.00D-06  THROVL  =  1.00D-08
 THRORTH =  1.00D-08  GRID    =  1.00D-06  GRIDMAX =  1.00D-03  DTMAX   =  0.00D+00

 SETTING GEOMTYP        =    XYZ
 ZUNIT=BOHR
 

 Variable memory set to 1000000000 words,  buffer space   230000 words

 SETTING BASIS          =    CC-PVDZ


 Recomputing integrals since basis changed


 Using spherical harmonics

 Library entry N      S cc-pVDZ              selected for orbital group  1
 Library entry N      P cc-pVDZ              selected for orbital group  1
 Library entry N      D cc-pVDZ              selected for orbital group  1
 Library entry H      S cc-pVDZ              selected for orbital group  2
 Library entry H      P cc-pVDZ              selected for orbital group  2
 Library entry C      S cc-pVDZ              selected for orbital group  3
 Library entry C      P cc-pVDZ              selected for orbital group  3
 Library entry C      D cc-pVDZ              selected for orbital group  3
 Library entry O      S cc-pVDZ              selected for orbital group  5
 Library entry O      P cc-pVDZ              selected for orbital group  5
 Library entry O      D cc-pVDZ              selected for orbital group  5

1PROGRAM * SEWARD (Integral evaluation for generally contracted gaussian basis sets)     Author: Roland Lindh, 1990

 Geometry written to block  1 of record 700


 Point group  C1  



 ATOMIC COORDINATES

 NR  ATOM    CHARGE       X              Y              Z

   1  N       7.00   -5.217873995   -0.191477814    0.000903270
   2  H       1.00   -6.294762530    0.216367236   -1.533537890
   3  H       1.00   -3.758605641    1.057555028   -0.002297121
   4  H       1.00   -6.293002284    0.222173273    1.535024554
   5  H       1.00   -0.932214484   -2.381431093   -0.003974902
   6  H       1.00    1.866900423   -3.429042904   -1.663715724
   7  H       1.00    1.869565275   -3.438149062    1.669661380
   8  C       6.00    1.127817122   -2.464661827   -0.002549938
   9  N       7.00    2.274628594    0.095900681    0.000175707
  10  O       8.00    0.721666012    1.789823492    0.000310665

 Bond lengths in Bohr (Angstrom)

 1-2  1.918472354  1-3  1.920822066  1-4  1.918472354  5-8  2.061712784  6-8  2.058092989
     ( 1.015211846)     ( 1.016455260)     ( 1.015211846)     ( 1.091011417)     ( 1.089095904)

  7- 8  2.072235125   8- 9  2.805648648   9-10  2.298057286
       ( 1.096579600)       ( 1.484685321)       ( 1.216079541)

 Bond angles

  2-1-3  106.67095382   2-1-4  106.21107414   3-1-4  106.67095378   5-8-6  112.15889713

  5-8-7  112.15889987   5-8-9  111.81278815   6-8-7  107.61734899   6-8-9  106.35838569

  7- 8- 9  106.35838718   8- 9-10  113.35946297

 NUCLEAR CHARGE:                   34
 NUMBER OF PRIMITIVE AOS:         150
 NUMBER OF SYMMETRY AOS:          146
 NUMBER OF CONTRACTIONS:           86   (  86A   )
 NUMBER OF CORE ORBITALS:           4   (   4A   )
 NUMBER OF VALENCE ORBITALS:       22   (  22A   )


 NUCLEAR REPULSION ENERGY  117.38256390


 Eigenvalues of metric

         1 0.628E-02 0.972E-02 0.152E-01 0.179E-01 0.297E-01 0.370E-01 0.392E-01 0.407E-01


 Contracted 2-electron integrals neglected if value below      1.0D-16
 AO integral compression algorithm  1   Integral accuracy      1.0D-16

     52.429 MB (compressed) written to integral file ( 81.8%)

     Node minimum: 52.429 MB, node maximum: 52.429 MB


 NUMBER OF SORTED TWO-ELECTRON INTEGRALS:    6999411.     BUFFER LENGTH:  32768
 NUMBER OF SEGMENTS:   1  SEGMENT LENGTH:    6999411      RECORD LENGTH: 524288

 Memory used in sort:       7.56 MW

 SORT1 READ     8004103. AND WROTE     6870206. INTEGRALS IN     20 RECORDS. CPU TIME:     0.07 SEC, REAL TIME:     0.11 SEC
 SORT2 READ     6870206. AND WROTE     6999411. INTEGRALS IN    200 RECORDS. CPU TIME:     0.10 SEC, REAL TIME:     0.11 SEC

 FILE SIZES:   FILE 1:    48.2 MBYTE,  FILE 4:    83.9 MBYTE,   TOTAL:    132.1 MBYTE

 OPERATOR DM      FOR CENTER  0  COORDINATES:    0.000000    0.000000    0.000000


 **********************************************************************************************************************************
 DATASETS  * FILE   NREC   LENGTH (MB)   RECORD NAMES
              1      19       48.32       500      610      700      900      950      970     1000      129      960     1100   
                                          VAR    BASINP    GEOM    SYMINP    ZMAT    AOBASIS   BASIS     P2S    ABASIS      S 
                                         1400     1410     1200     1210     1080     1600     1650     1300     1700   
                                           T        V       H0       H01     AOSYM     SMH    MOLCAS    ERIS     OPER   

 PROGRAMS   *        TOTAL       INT
 CPU TIMES  *         0.79      0.75
 REAL TIME  *         1.06 SEC
 DISK USED  *       185.35 MB      
 GA USED    *         0.00 MB       (max)       0.00 MB       (current)
 **********************************************************************************************************************************

1PROGRAM * RHF-SCF (CLOSED SHELL)       Authors: W. Meyer, H.-J. Werner


 NUMBER OF ELECTRONS:      17+   17-    SPACE SYMMETRY=1    SPIN SYMMETRY: Singlet 
 CONVERGENCE THRESHOLDS:    1.00E-10 (Density)    1.00E-13 (Energy)
 MAX. NUMBER OF ITERATIONS:      200
 INTERPOLATION TYPE:            DIIS
 INTERPOLATION STEPS:              2 (START)      1 (STEP)
 LEVEL SHIFTS:                  0.00 (CLOSED)  0.00 (OPEN) 



 Orbital guess generated from atomic densities. Full valence occupancy:   26

 Molecular orbital dump at record        2100.2

 ITERATION    DDIFF          GRAD             ENERGY        2-EL.EN.            DIPOLE MOMENTS         DIIS
    1      0.000D+00      0.000D+00      -224.94603116    393.782785    0.08695   -0.57414    0.00149    0
    2      0.000D+00      0.101D-01      -225.00726966    393.235369   -0.60507   -0.30086   -0.00173    1
    3      0.189D-01      0.693D-02      -225.03994348    393.750256   -0.26368   -0.51497   -0.00203    2
    4      0.825D-02      0.139D-02      -225.04210561    393.641891   -0.34197   -0.42287   -0.00236    3
    5      0.216D-02      0.530D-03      -225.04248190    393.637799   -0.34337   -0.44950   -0.00258    4
    6      0.908D-03      0.129D-03      -225.04251842    393.660060   -0.34822   -0.44768   -0.00264    5
    7      0.304D-03      0.511D-04      -225.04252422    393.647862   -0.34982   -0.44789   -0.00265    6
    8      0.124D-03      0.198D-04      -225.04252507    393.653428   -0.35059   -0.44787   -0.00265    7
    9      0.432D-04      0.826D-05      -225.04252524    393.652093   -0.35077   -0.44756   -0.00264    8
   10      0.225D-04      0.230D-05      -225.04252526    393.651912   -0.35082   -0.44740   -0.00264    8
   11      0.659D-05      0.695D-06      -225.04252526    393.651964   -0.35084   -0.44733   -0.00264    8
   12      0.187D-05      0.222D-06      -225.04252526    393.651927   -0.35084   -0.44731   -0.00264    8
   13      0.757D-06      0.720D-07      -225.04252526    393.651921   -0.35084   -0.44731   -0.00264    8
   14      0.184D-06      0.377D-07      -225.04252526    393.651923   -0.35084   -0.44731   -0.00264    8
   15      0.989D-07      0.142D-07      -225.04252526    393.651923   -0.35084   -0.44731   -0.00264    8
   16      0.327D-07      0.104D-07      -225.04252526    393.651922   -0.35084   -0.44731   -0.00264    8
   17      0.489D-07      0.670D-08      -225.04252526    393.651923   -0.35084   -0.44731   -0.00264    8
   18      0.625D-07      0.179D-08      -225.04252526    393.651922   -0.35084   -0.44731   -0.00264    9
   19      0.145D-07      0.539D-09      -225.04252526    393.651923   -0.35084   -0.44731   -0.00264    9
   20      0.216D-08      0.158D-09      -225.04252526    393.651923   -0.35084   -0.44731   -0.00264    9
   21      0.436D-09      0.383D-10      -225.04252526    393.651923   -0.35084   -0.44731   -0.00264    9
   22      0.112D-09      0.121D-10      -225.04252526    393.651923   -0.35084   -0.44731   -0.00264    9
   23      0.281D-10      0.523D-11      -225.04252526    393.651923   -0.35084   -0.44731   -0.00264    9
   24      0.129D-10      0.223D-11      -225.04252526    393.651923   -0.35084   -0.44731   -0.00264    8
   25      0.524D-11      0.982D-12      -225.04252526    393.651923   -0.35084   -0.44731   -0.00264    0

 Final occupancy:  17

 !RHF STATE 1.1 Energy               -225.042525260779
 Nuclear energy                       117.38256390
 One-electron energy                 -539.25105045
 Two-electron energy                  196.82596129
 Virial quotient                       -1.00156511
 !RHF STATE 1.1 Dipole moment          -0.35084471    -0.44730910    -0.00264061
 Dipole moment /Debye                  -0.89169991    -1.13687185    -0.00671131

 Orbital energies:

         1.1          2.1          3.1          4.1          5.1          6.1          7.1          8.1          9.1         10.1
    -20.625890   -15.698897   -15.537685   -11.265545    -1.506583    -1.131037    -1.069888    -0.855191    -0.684487    -0.667415

        11.1         12.1         13.1         14.1         15.1         16.1         17.1         18.1         19.1
     -0.630712    -0.615354    -0.614274    -0.550468    -0.527601    -0.420486    -0.398051     0.109682     0.186869


 **********************************************************************************************************************************
 DATASETS  * FILE   NREC   LENGTH (MB)   RECORD NAMES
              1      19       48.32       500      610      700      900      950      970     1000      129      960     1100   
                                          VAR    BASINP    GEOM    SYMINP    ZMAT    AOBASIS   BASIS     P2S    ABASIS      S 
                                         1400     1410     1200     1210     1080     1600     1650     1300     1700   
                                           T        V       H0       H01     AOSYM     SMH    MOLCAS    ERIS     OPER   

              2       3        0.57       700     1000     2100   
                                         GEOM     BASIS     RHF  

 PROGRAMS   *        TOTAL       RHF       INT
 CPU TIMES  *         2.09      1.30      0.75
 REAL TIME  *         2.48 SEC
 DISK USED  *       185.35 MB      
 GA USED    *         0.00 MB       (max)       0.00 MB       (current)
 **********************************************************************************************************************************


1PROGRAM * CCSD (Closed-shell coupled cluster)     Authors: C. Hampel, H.-J. Werner, 1991, M. Deegan, P.J. Knowles, 1992


 Convergence thresholds:  THRVAR = 1.00D-08  THRDEN = 1.00D-12

 CCSD(T)     terms to be evaluated (factor= 1.000)


 Number of core orbitals:           4 (   4 )
 Number of closed-shell orbitals:  13 (  13 )
 Number of external orbitals:      69 (  69 )

 Molecular orbitals read from record     2100.2  Type=RHF/CANONICAL (state 1.1)

 Number of N-1 electron functions:              13
 Number of N-2 electron functions:              91
 Number of singly external CSFs:               897
 Number of doubly external CSFs:            402753
 Total number of CSFs:                      403651

 Length of J-op  integral file:               0.00 MB
 Length of K-op  integral file:               0.54 MB
 Length of 3-ext integral record:             0.00 MB

 Memory could be reduced to 6.46 Mwords without degradation in triples

 Integral transformation finished. Total CPU:   0.26 sec, npass=  1  Memory used:   5.81 MW

 Reference energy:                   -225.04252526

 MP2 singlet pair energy:              -0.42990466
 MP2 triplet pair energy:              -0.25006488
 MP2 correlation energy:               -0.67996953
 MP2 total energy:                   -225.72249480

 SCS-MP2 correlation energy:           -0.67148151   (PS=  1.200000  PT=  0.333333)
 SCS-MP2 total energy:               -225.71400677

 ITER.      SQ.NORM     CORR.ENERGY   TOTAL ENERGY   ENERGY CHANGE        DEN1      VAR(S)    VAR(P)  DIIS     TIME
   1      1.22681732    -0.71576017  -225.75828543    -0.03579064    -0.01323978  0.44D-02  0.46D-02  1  1     0.95
   2      1.24750015    -0.71907131  -225.76159657    -0.00331113    -0.02058237  0.13D-03  0.82D-03  2  2     1.66
   3      1.25646967    -0.71975903  -225.76228429    -0.00068773    -0.00431104  0.10D-03  0.59D-04  3  3     2.36
   4      1.26019584    -0.71974993  -225.76227519     0.00000910    -0.00126893  0.77D-05  0.10D-04  4  4     3.07
   5      1.26162882    -0.71976957  -225.76229483    -0.00001964    -0.00032486  0.14D-05  0.17D-05  5  5     3.77
   6      1.26202804    -0.71974192  -225.76226718     0.00002765    -0.00004698  0.78D-07  0.36D-06  6  6     4.47
   7      1.26211842    -0.71974009  -225.76226535     0.00000183    -0.00000208  0.20D-07  0.96D-07  6  2     5.18
   8      1.26214085    -0.71974017  -225.76226543    -0.00000008     0.00000226  0.87D-08  0.24D-07  6  5     5.89
   9      1.26213609    -0.71974104  -225.76226630    -0.00000087     0.00000162  0.17D-08  0.27D-08  6  1     6.59
  10      1.26213604    -0.71974130  -225.76226656    -0.00000027    -0.00000145  0.40D-09  0.30D-09  6  3     7.30
  11      1.26213452    -0.71974157  -225.76226683    -0.00000027     0.00000088  0.79D-10  0.49D-10  6  4     8.00
  12      1.26213379    -0.71974163  -225.76226689    -0.00000006     0.00000022  0.20D-10  0.11D-10  6  6     8.71
  13      1.26213305    -0.71974167  -225.76226693    -0.00000003     0.00000017  0.42D-11  0.18D-11  6  2     9.42
  14      1.26213268    -0.71974169  -225.76226695    -0.00000002     0.00000012  0.13D-11  0.52D-12  6  1    10.12
  15      1.26213241    -0.71974169  -225.76226695    -0.00000001     0.00000005  0.45D-12  0.10D-12  6  5    10.83
  16      1.26213234    -0.71974170  -225.76226696    -0.00000000     0.00000001  0.30D-12  0.52D-13  6  3    11.54
  17      1.26213230    -0.71974170  -225.76226696    -0.00000000     0.00000001  0.17D-12  0.24D-13  6  4    12.25
  18      1.26213229    -0.71974170  -225.76226696    -0.00000000    -0.00000000  0.82D-13  0.11D-13  6  6    12.96
  19      1.26213229    -0.71974170  -225.76226696     0.00000000    -0.00000000  0.19D-13  0.48D-14  6  2    13.66
  20      1.26213230    -0.71974170  -225.76226696     0.00000000    -0.00000000  0.46D-14  0.24D-14  6  1    14.37
  21      1.26213230    -0.71974170  -225.76226696     0.00000000     0.00000000  0.85D-15  0.98D-15  6  5    15.07
  22      1.26213231    -0.71974170  -225.76226696     0.00000000    -0.00000000  0.11D-15  0.26D-15  6  4    15.78
  23      1.26213231    -0.71974170  -225.76226696     0.00000000    -0.00000000  0.99D-17  0.53D-16  6  3    16.48
  24      1.26213231    -0.71974170  -225.76226696    -0.00000000    -0.00000000  0.41D-17  0.12D-16  6  2    17.19
  25      1.26213231    -0.71974170  -225.76226696     0.00000000    -0.00000000  0.12D-17  0.23D-17  6  6    17.90
  26      1.26213231    -0.71974170  -225.76226696     0.00000000    -0.00000000  0.80D-18  0.50D-18  6  1    18.61
  27      1.26213231    -0.71974170  -225.76226696    -0.00000000     0.00000000  0.36D-18  0.14D-18  6  5    19.31
  28      1.26213231    -0.71974170  -225.76226696    -0.00000000     0.00000000  0.13D-18  0.22D-19  6  4    20.02
  29      1.26213231    -0.71974170  -225.76226696    -0.00000000     0.00000000  0.43D-19  0.10D-19  6  2    20.72

 Norm of t1 vector:      0.10007661      S-energy:    -0.00000000      T1 diagnostic:  0.01387813
                                                                       D1 diagnostic:  0.05075075

 Doubles amplitudes (print threshold =  0.500E-01):

         I         J         SYM. A    SYM. B    A         B      T(IJ, AB)

         7         7         1         1         1         1     -0.06082814
        11         7         1         1         1         1     -0.06594347
        11        11         1         1         1         1     -0.09628474


 Total CPU time for triples:      6.49 sec


 RESULTS
 =======

  Reference energy                   -225.042525260779
  CCSD singlet pair energy             -0.499052285142
  CCSD triplet pair energy             -0.220689412772
  CCSD correlation energy              -0.719741697915

  Triples (T) contribution             -0.021673082180
  Total correlation energy             -0.741414780095

  CCSD total energy                  -225.762266958693
  CCSD[T] energy                     -225.785314642183
  CCSD-T energy                      -225.783536657830
 !CCSD(T) total energy               -225.783940040874

 Timing summary (sec):

 STEP                 CPU(USER)    SYS     CPU(TOT)    WALL
 Transformation          0.27      0.04      0.31      0.31
 CCSD iterations        20.45      0.64     21.09     21.20
 Triples                 6.49      0.15      6.64      6.64

 Program statistics:

 Available memory in ccsd:               999999224
 Min. memory needed in ccsd:               1143606
 Max. memory used in ccsd:                 1480488
 Max. memory used in cckext:               1471436 (29 integral passes)



 **********************************************************************************************************************************
 DATASETS  * FILE   NREC   LENGTH (MB)   RECORD NAMES
              1      20       73.94       500      610      700      900      950      970     1000      129      960     1100   
                                          VAR    BASINP    GEOM    SYMINP    ZMAT    AOBASIS   BASIS     P2S    ABASIS      S 
                                         1400     1410     1200     1210     1080     1600     1650     1300     1700     1380   
                                           T        V       H0       H01     AOSYM     SMH    MOLCAS    ERIS     OPER     JKOP   

              2       3        0.57       700     1000     2100   
                                         GEOM     BASIS     RHF  

 PROGRAMS   *        TOTAL   CCSD(T)       RHF       INT
 CPU TIMES  *        29.31     27.22      1.30      0.75
 REAL TIME  *        30.66 SEC
 DISK USED  *       197.99 MB      
 GA USED    *         0.00 MB       (max)       0.00 MB       (current)
 **********************************************************************************************************************************

        CCSD(T)         RHF-SCF 
   -225.78394004   -225.04252526
 **********************************************************************************************************************************
 Variable memory released
