
 Primary working directories    : /tmp/880701.298.gen4.q
 Secondary working directories  : /tmp/880701.298.gen4.q
 Wavefunction directory         : /home/vulcan/lo21740/wfu/
 Main file repository           : /tmp/880701.298.gen4.q/

 ARCHNAME  : Linux/x86_64
 FC        : /opt/intel/compilers_and_libraries_2016.1.150/linux/bin/intel64/ifort
 FCVERSION : 16.0.1
 BLASLIB   : -mkl
 id        : ccgc

 Nodes     nprocs
 n058         1
 ga_uses_ma=false, calling ma_init with nominal heap.
 GA-space will be limited to   8.0 MW (determined by -G option)

 Using customized tuning parameters: mindgm=10; mindgv=16; mindgc=4; mindgr=1; noblas=0; mincuda=1000; minvec=7
 default implementation of scratch files=df  

 ***,Optimization of formamide
 memory,1000,m
 gthresh,energy=1.0d-12,orbital=1.0d-10,oneint=1.0d-16,twoint=1.0d-16,optgrad=1.0d-6,compress=1.0d-13
 geomtyp=xyz
 
 bohr
 geometry = {
  C   -3.8263037565    0.0904881111    0.0000000000
  O   -2.7310408384    2.1368027106    0.0000000000
  N   -2.6827976007   -2.1796976405   -0.0000000000
  H   -3.7386627949   -3.7564950830    0.0000000000
  H   -0.7489118595   -2.3052771187   -0.0000000000
  H   -5.9017307800   -0.0195232502   -0.0000000000
  C    3.8252891212   -0.0821940275    0.0000000000
  O    2.7293918710   -2.1411108073   -0.0000000000
  N    2.6799268602    2.1791825149   -0.0000000000
  H    3.7395118327    3.7556047161    0.0000000000
  H    0.7524524658    2.3048700946   -0.0000000000
  H    5.9028754790    0.0173497798   -0.0000000000
 }
 
 basis=AVDZ
 {rhf;maxit,200}
 {ccsd(t);maxit,200}

 Variables initialized (661), CPU time= 0.00 sec
 Commands  initialized (458), CPU time= 0.01 sec, 486 directives.
 Default parameters read. Elapsed time= 0.05 sec

 Checking input...
 Passed
1


                                         ***  PROGRAM SYSTEM MOLPRO  ***
                         Copyright, University College Cardiff Consultants Limited, 2008

                                    Version 2010.1 linked May 16 2016 07:17:05


 **********************************************************************************************************************************
 LABEL *   Optimization of formamide                                                     
 Linux-4.4.3/n058(x86_64) 64 bit mpp version                                             DATE: 24-May-23          TIME: 20:38:08  
 **********************************************************************************************************************************

 SHA1:             9e8077add272b0f3cad6f7df79ec5211205f459d
 **********************************************************************************************************************************

 THRESHOLDS:

 ZERO    =  1.00D-12  ONEINT  =  1.00D-16  TWOINT  =  1.00D-16  PREFAC  =  1.00D-14  LOCALI  =  1.00D-09  EORDER  =  1.00D-04
 ENERGY  =  1.00D-12  ETEST   =  0.00D+00  EDENS   =  0.00D+00  THRDEDEF=  1.00D-06  GRADIENT=  1.00D-02  STEP    =  1.00D-03
 ORBITAL =  1.00D-10  CIVEC   =  1.00D-05  COEFF   =  1.00D-04  PRINTCI =  5.00D-02  PUNCHCI =  9.90D+01  OPTGRAD =  1.00D-06
 OPTENERG=  1.00D-06  OPTSTEP =  3.00D-04  THRGRAD =  1.00D-10  COMPRESS=  1.00D-13  VARMIN  =  1.00D-07  VARMAX  =  1.00D-03
 THRDOUB =  0.00D+00  THRDIV  =  1.00D-05  THRRED  =  1.00D-07  THRPSP  =  1.00D+00  THRDC   =  1.00D-10  THRCS   =  1.00D-10
 THRNRM  =  1.00D-08  THREQ   =  0.00D+00  THRDE   =  1.00D+00  THRREF  =  1.00D-05  SPARFAC =  1.00D+00  THRDLP  =  1.00D-07
 THRDIA  =  1.00D-10  THRDLS  =  1.00D-07  THRGPS  =  0.00D+00  THRKEX  =  0.00D+00  THRDIS  =  2.00D-01  THRVAR  =  1.00D-10
 THRLOC  =  1.00D-06  THRGAP  =  1.00D-06  THRLOCT = -1.00D+00  THRGAPT = -1.00D+00  THRORB  =  1.00D-06  THRMLTP =  0.00D+00
 THRCPQCI=  1.00D-10  KEXTA   =  0.00D+00  THRCOARS=  0.00D+00  SYMTOL  =  1.00D-06  GRADTOL =  1.00D-06  THROVL  =  1.00D-08
 THRORTH =  1.00D-08  GRID    =  1.00D-06  GRIDMAX =  1.00D-03  DTMAX   =  0.00D+00

 SETTING GEOMTYP        =    XYZ
 ZUNIT=BOHR
 

 Variable memory set to 1000000000 words,  buffer space   230000 words

 SETTING BASIS          =    AVDZ


 Recomputing integrals since basis changed


 Using spherical harmonics

 Library entry C      S aug-cc-pVDZ          selected for orbital group  1
 Library entry C      P aug-cc-pVDZ          selected for orbital group  1
 Library entry C      D aug-cc-pVDZ          selected for orbital group  1
 Library entry O      S aug-cc-pVDZ          selected for orbital group  2
 Library entry O      P aug-cc-pVDZ          selected for orbital group  2
 Library entry O      D aug-cc-pVDZ          selected for orbital group  2
 Library entry N      S aug-cc-pVDZ          selected for orbital group  3
 Library entry N      P aug-cc-pVDZ          selected for orbital group  3
 Library entry N      D aug-cc-pVDZ          selected for orbital group  3
 Library entry H      S aug-cc-pVDZ          selected for orbital group  4
 Library entry H      P aug-cc-pVDZ          selected for orbital group  4

1PROGRAM * SEWARD (Integral evaluation for generally contracted gaussian basis sets)     Author: Roland Lindh, 1990

 Geometry written to block  1 of record 700


 Point group  Cs  



 ATOMIC COORDINATES

 NR  ATOM    CHARGE       X              Y              Z

   1  C       6.00   -3.826303757    0.090488111    0.000000000
   2  O       8.00   -2.731040838    2.136802711    0.000000000
   3  N       7.00   -2.682797601   -2.179697641    0.000000000
   4  H       1.00   -3.738662795   -3.756495083    0.000000000
   5  H       1.00   -0.748911860   -2.305277119    0.000000000
   6  H       1.00   -5.901730780   -0.019523250    0.000000000
   7  C       6.00    3.825289121   -0.082194028    0.000000000
   8  O       8.00    2.729391871   -2.141110807    0.000000000
   9  N       7.00    2.679926860    2.179182515    0.000000000
  10  H       1.00    3.739511833    3.755604716    0.000000000
  11  H       1.00    0.752452466    2.304870095    0.000000000
  12  H       1.00    5.902875479    0.017349780    0.000000000

 Bond lengths in Bohr (Angstrom)

 1-2  2.320992094  1-3  2.541918503  1-6  2.078340643  3-4  1.897667379  3-5  1.937958788
     ( 1.228216118)     ( 1.345125339)     ( 1.099810501)     ( 1.004202327)     ( 1.025523623)

  7- 8  2.332408431   7- 9  2.534892222   7-12  2.079969722   9-10  1.899428143   9-11  1.931567992
       ( 1.234257384)       ( 1.341407191)       ( 1.100672572)       ( 1.005134083)       ( 1.022141759)

 Bond angles

  1-3-4  119.45802192   1-3-5  120.45003153   2-1-3  125.10800134   2-1-6  121.19154517

  3- 1- 6  113.70045349   4- 3- 5  120.09194655   7- 9-10  119.23144879   7- 9-11  120.59259644

  8- 7- 9  125.11330759   8- 7-12  120.76810794   9- 7-12  114.11858447  10- 9-11  120.17595477

 NUCLEAR CHARGE:                   48
 NUMBER OF PRIMITIVE AOS:         288
 NUMBER OF SYMMETRY AOS:          276
 NUMBER OF CONTRACTIONS:          192   ( 138A'  +  54A"  )
 NUMBER OF CORE ORBITALS:           6   (   6A'  +   0A"  )
 NUMBER OF VALENCE ORBITALS:       30   (  24A'  +   6A"  )


 NUCLEAR REPULSION ENERGY  230.50435151


 Eigenvalues of metric

         1 0.232E-03 0.270E-03 0.524E-03 0.529E-03 0.565E-03 0.702E-03 0.713E-03 0.715E-03
         2 0.182E-01 0.198E-01 0.283E-01 0.284E-01 0.335E-01 0.339E-01 0.416E-01 0.453E-01


 Contracted 2-electron integrals neglected if value below      1.0D-16
 AO integral compression algorithm  1   Integral accuracy      1.0D-16

     746.586 MB (compressed) written to integral file ( 93.7%)

     Node minimum: 746.586 MB, node maximum: 746.586 MB


 NUMBER OF SORTED TWO-ELECTRON INTEGRALS:   89829696.     BUFFER LENGTH:  32768
 NUMBER OF SEGMENTS:   6  SEGMENT LENGTH:   15998004      RECORD LENGTH: 524288

 Memory used in sort:      16.56 MW

 SORT1 READ    99568560. AND WROTE    89009666. INTEGRALS IN    258 RECORDS. CPU TIME:     1.12 SEC, REAL TIME:     1.68 SEC
 SORT2 READ    89009666. AND WROTE    89829696. INTEGRALS IN   2848 RECORDS. CPU TIME:     0.77 SEC, REAL TIME:     1.11 SEC

 FILE SIZES:   FILE 1:   692.0 MBYTE,  FILE 4:  1082.2 MBYTE,   TOTAL:   1774.1 MBYTE

 OPERATOR DM      FOR CENTER  0  COORDINATES:    0.000000    0.000000    0.000000


 **********************************************************************************************************************************
 DATASETS  * FILE   NREC   LENGTH (MB)   RECORD NAMES
              1      19      692.19       500      610      700      900      950      970     1000      129      960     1100   
                                          VAR    BASINP    GEOM    SYMINP    ZMAT    AOBASIS   BASIS     P2S    ABASIS      S 
                                         1400     1410     1200     1210     1080     1600     1650     1300     1700   
                                           T        V       H0       H01     AOSYM     SMH    MOLCAS    ERIS     OPER   

 PROGRAMS   *        TOTAL       INT
 CPU TIMES  *         8.59      8.55
 REAL TIME  *        10.06 SEC
 DISK USED  *         2.52 GB      
 GA USED    *         0.00 MB       (max)       0.00 MB       (current)
 **********************************************************************************************************************************

1PROGRAM * RHF-SCF (CLOSED SHELL)       Authors: W. Meyer, H.-J. Werner


 NUMBER OF ELECTRONS:      24+   24-
 CONVERGENCE THRESHOLDS:    1.00E-10 (Density)    1.00E-13 (Energy)
 MAX. NUMBER OF ITERATIONS:      200
 INTERPOLATION TYPE:            DIIS
 INTERPOLATION STEPS:              2 (START)      1 (STEP)
 LEVEL SHIFTS:                  0.00 (CLOSED)  0.00 (OPEN) 



 Orbital guess generated from atomic densities. Full valence occupancy:   30   6

 Molecular orbital dump at record        2100.2

 Initial alpha occupancy:  20   4
 Initial beta  occupancy:  20   4
 Wave function symmetry:    1

 ITERATION    DDIFF          GRAD             ENERGY        2-EL.EN.            DIPOLE MOMENTS         DIIS
    1      0.000D+00      0.000D+00      -337.80603172    704.692528    0.00975    0.03923    0.00000    0
    2      0.000D+00      0.728D-02      -337.88345807    699.080534    0.00742    0.01510    0.00000    1
    3      0.138D-01      0.531D-02      -337.94120627    701.818744    0.00848    0.02621    0.00000    2
    4      0.561D-02      0.701D-03      -337.94341728    701.723318    0.00746    0.02337    0.00000    3
    5      0.134D-02      0.241D-03      -337.94368542    701.656481    0.00782    0.02470    0.00000    4
    6      0.456D-03      0.794D-04      -337.94374667    701.681973    0.00753    0.02390    0.00000    5
    7      0.201D-03      0.351D-04      -337.94375767    701.673215    0.00768    0.02448    0.00000    6
    8      0.956D-04      0.107D-04      -337.94375861    701.678313    0.00751    0.02390    0.00000    7
    9      0.296D-04      0.411D-05      -337.94375870    701.676872    0.00763    0.02435    0.00000    8
   10      0.828D-05      0.160D-05      -337.94375872    701.676363    0.00759    0.02419    0.00000    8
   11      0.396D-05      0.565D-06      -337.94375872    701.676752    0.00760    0.02423    0.00000    8
   12      0.120D-05      0.149D-06      -337.94375872    701.676695    0.00760    0.02423    0.00000    8
   13      0.429D-06      0.418D-07      -337.94375872    701.676683    0.00760    0.02423    0.00000    8
   14      0.963D-07      0.179D-07      -337.94375872    701.676689    0.00760    0.02423    0.00000    8
   15      0.406D-07      0.324D-08      -337.94375872    701.676689    0.00760    0.02423    0.00000    8
   16      0.874D-08      0.846D-09      -337.94375872    701.676689    0.00760    0.02423    0.00000    8
   17      0.186D-08      0.270D-09      -337.94375872    701.676689    0.00760    0.02423    0.00000    7
   18      0.579D-09      0.840D-10      -337.94375872    701.676689    0.00760    0.02423    0.00000    7
   19      0.225D-09      0.235D-10      -337.94375872    701.676689    0.00760    0.02423    0.00000    7
   20      0.565D-10      0.129D-10      -337.94375872    701.676689    0.00760    0.02423    0.00000    8
   21      0.303D-10      0.414D-11      -337.94375872    701.676689    0.00760    0.02423    0.00000    0

 Final occupancy:  20   4

 !RHF STATE 1.1 Energy               -337.943758719869
 Nuclear energy                       230.50435151
 One-electron energy                 -919.28645475
 Two-electron energy                  350.83834452
 Virial quotient                       -1.00172978
 !RHF STATE 1.1 Dipole moment           0.00759525     0.02422558     0.00000000
 Dipole moment /Debye                   0.01930394     0.06157126     0.00000000

 Orbital energies:

         1.1          2.1          3.1          4.1          5.1          6.1          7.1          8.1          9.1         10.1
    -20.541501   -20.540787   -15.589792   -15.588102   -11.368047   -11.367380    -1.389973    -1.383982    -1.218751    -1.212094

        11.1         12.1         13.1         14.1         15.1         16.1         17.1         18.1         19.1         20.1
     -0.860923    -0.835699    -0.749978    -0.740899    -0.705926    -0.645113    -0.619313    -0.593680    -0.454437    -0.429020

        21.1         22.1
      0.033373     0.036367

         1.2          2.2          3.2          4.2          5.2          6.2
     -0.573752    -0.565652    -0.420338    -0.409742     0.092350     0.103387


 **********************************************************************************************************************************
 DATASETS  * FILE   NREC   LENGTH (MB)   RECORD NAMES
              1      19      692.19       500      610      700      900      950      970     1000      129      960     1100   
                                          VAR    BASINP    GEOM    SYMINP    ZMAT    AOBASIS   BASIS     P2S    ABASIS      S 
                                         1400     1410     1200     1210     1080     1600     1650     1300     1700   
                                           T        V       H0       H01     AOSYM     SMH    MOLCAS    ERIS     OPER   

              2       3        0.91       700     1000     2100   
                                         GEOM     BASIS     RHF  

 PROGRAMS   *        TOTAL       RHF       INT
 CPU TIMES  *        20.15     11.55      8.55
 REAL TIME  *        23.21 SEC
 DISK USED  *         2.52 GB      
 GA USED    *         0.00 MB       (max)       0.00 MB       (current)
 **********************************************************************************************************************************


1PROGRAM * CCSD (Closed-shell coupled cluster)     Authors: C. Hampel, H.-J. Werner, 1991, M. Deegan, P.J. Knowles, 1992


 Convergence thresholds:  THRVAR = 1.00D-08  THRDEN = 1.00D-12

 CCSD(T)     terms to be evaluated (factor= 1.000)


 Number of core orbitals:           6 (   6   0 )
 Number of closed-shell orbitals:  18 (  14   4 )
 Number of external orbitals:     168 ( 118  50 )

 Molecular orbitals read from record     2100.2  Type=RHF/CANONICAL (state 1.1)

 Number of N-1 electron functions:              18
 Number of N-2 electron functions:             171
 Number of singly external CSFs:              1852
 Number of doubly external CSFs:           2403256
 Total number of CSFs:                     2405109

 Length of J-op  integral file:               0.00 MB
 Length of K-op  integral file:               1.55 MB
 Length of 3-ext integral record:             0.00 MB

 Memory could be reduced to 56.93 Mwords without degradation in triples

 Integral transformation finished. Total CPU:   3.74 sec, npass=  1  Memory used:  23.60 MW

 Reference energy:                   -337.94375872

 MP2 singlet pair energy:              -0.62275529
 MP2 triplet pair energy:              -0.40616804
 MP2 correlation energy:               -1.02892332
 MP2 total energy:                   -338.97268204

 SCS-MP2 correlation energy:           -1.00003312   (PS=  1.200000  PT=  0.333333)
 SCS-MP2 total energy:               -338.94379184

 ITER.      SQ.NORM     CORR.ENERGY   TOTAL ENERGY   ENERGY CHANGE        DEN1      VAR(S)    VAR(P)  DIIS     TIME
   1      1.31936105    -1.05744526  -339.00120398    -0.02852194     0.00279213  0.10D-01  0.60D-02  1  1    11.33
   2      1.34488122    -1.05932877  -339.00308749    -0.00188351    -0.02596351  0.22D-03  0.11D-02  2  2    19.10
   3      1.35751264    -1.06022186  -339.00398058    -0.00089309    -0.00555810  0.22D-03  0.52D-04  3  3    26.88
   4      1.36272900    -1.05995771  -339.00371643     0.00026416    -0.00169645  0.22D-04  0.96D-05  4  4    34.65
   5      1.36488294    -1.05989996  -339.00365868     0.00005775    -0.00045184  0.27D-05  0.12D-05  5  5    42.44
   6      1.36540563    -1.05987127  -339.00362999     0.00002869    -0.00004994  0.28D-06  0.19D-06  6  6    50.23
   7      1.36553319    -1.05985897  -339.00361769     0.00001230    -0.00000183  0.35D-07  0.23D-07  6  1    58.02
   8      1.36557065    -1.05985776  -339.00361648     0.00000121    -0.00000702  0.75D-08  0.33D-08  6  2    65.80
   9      1.36557216    -1.05985793  -339.00361665    -0.00000017     0.00000268  0.13D-08  0.49D-09  6  3    73.60
  10      1.36557696    -1.05985738  -339.00361610     0.00000055    -0.00000111  0.32D-09  0.69D-10  6  4    81.39
  11      1.36557672    -1.05985764  -339.00361636    -0.00000025     0.00000046  0.59D-10  0.13D-10  6  5    89.17
  12      1.36557672    -1.05985761  -339.00361633     0.00000003     0.00000002  0.45D-11  0.35D-11  6  6    96.94
  13      1.36557643    -1.05985765  -339.00361637    -0.00000004     0.00000012  0.11D-11  0.39D-12  6  1   104.70
  14      1.36557633    -1.05985766  -339.00361638    -0.00000001     0.00000004  0.92D-13  0.74D-13  6  2   112.49
  15      1.36557631    -1.05985766  -339.00361638     0.00000000     0.00000001  0.22D-13  0.12D-13  6  3   120.25
  16      1.36557631    -1.05985766  -339.00361638    -0.00000000     0.00000000  0.49D-14  0.22D-14  6  4   128.04
  17      1.36557631    -1.05985766  -339.00361638     0.00000000    -0.00000000  0.85D-15  0.43D-15  6  5   135.81
  18      1.36557631    -1.05985766  -339.00361638     0.00000000    -0.00000000  0.24D-15  0.81D-16  6  6   143.59
  19      1.36557631    -1.05985766  -339.00361638    -0.00000000    -0.00000000  0.40D-16  0.19D-16  6  1   151.36
  20      1.36557631    -1.05985766  -339.00361638     0.00000000    -0.00000000  0.10D-16  0.46D-17  6  2   159.13
  21      1.36557631    -1.05985766  -339.00361638    -0.00000000     0.00000000  0.23D-17  0.93D-18  6  3   166.88
  22      1.36557631    -1.05985766  -339.00361638    -0.00000000     0.00000000  0.34D-18  0.21D-18  6  4   174.65
  23      1.36557631    -1.05985766  -339.00361638    -0.00000000     0.00000000  0.98D-19  0.43D-19  6  5   182.41
  24      1.36557631    -1.05985766  -339.00361638    -0.00000000     0.00000000  0.17D-19  0.94D-20  6  6   190.19
  25      1.36557631    -1.05985766  -339.00361638    -0.00000000    -0.00000000  0.40D-20  0.16D-20  6  3   197.96
  26      1.36557631    -1.05985766  -339.00361638    -0.00000000    -0.00000000  0.73D-21  0.21D-21  6  1   205.73

 Norm of t1 vector:      0.14832030      S-energy:    -0.00000000      T1 diagnostic:  0.01747972
                                                                       D1 diagnostic:  0.05913218


 Total CPU time for triples:    194.50 sec


 RESULTS
 =======

  Reference energy                   -337.943758719869
  CCSD singlet pair energy             -0.699684112181
  CCSD triplet pair energy             -0.360173551317
  CCSD correlation energy              -1.059857663498

  Triples (T) contribution             -0.039945217968
  Total correlation energy             -1.099802881467

  CCSD total energy                  -339.003616383367
  CCSD[T] energy                     -339.046785472527
  CCSD-T energy                      -339.042438157929
 !CCSD(T) total energy               -339.043561601335

 Timing summary (sec):

 STEP                 CPU(USER)    SYS     CPU(TOT)    WALL
 Transformation          3.84      0.33      4.17      4.18
 CCSD iterations       201.89      5.27    207.16    207.25
 Triples               194.50      3.99    198.49    198.52

 Program statistics:

 Available memory in ccsd:               999998604
 Min. memory needed in ccsd:               6087664
 Max. memory used in ccsd:                 8297292
 Max. memory used in cckext:               8019339 (26 integral passes)



 **********************************************************************************************************************************
 DATASETS  * FILE   NREC   LENGTH (MB)   RECORD NAMES
              1      20      912.69       500      610      700      900      950      970     1000      129      960     1100   
                                          VAR    BASINP    GEOM    SYMINP    ZMAT    AOBASIS   BASIS     P2S    ABASIS      S 
                                         1400     1410     1200     1210     1080     1600     1650     1300     1700     1380   
                                           T        V       H0       H01     AOSYM     SMH    MOLCAS    ERIS     OPER     JKOP   

              2       3        0.91       700     1000     2100   
                                         GEOM     BASIS     RHF  

 PROGRAMS   *        TOTAL   CCSD(T)       RHF       INT
 CPU TIMES  *       420.39    400.25     11.55      8.55
 REAL TIME  *       433.21 SEC
 DISK USED  *         2.52 GB      
 GA USED    *         0.00 MB       (max)       0.00 MB       (current)
 **********************************************************************************************************************************

        CCSD(T)         RHF-SCF 
   -339.04356160   -337.94375872
 **********************************************************************************************************************************
 Variable memory released
