
 Primary working directories    : /tmp/943420.528.gen4.q
 Secondary working directories  : /tmp/943420.528.gen4.q
 Wavefunction directory         : /home/vulcan/mel64643/wfu/
 Main file repository           : /tmp/943420.528.gen4.q/

 ARCHNAME  : Linux/x86_64
 FC        : /opt/intel/compilers_and_libraries_2016.1.150/linux/bin/intel64/ifort
 FCVERSION : 16.0.1
 BLASLIB   : -mkl
 id        : ccgc

 Nodes     nprocs
 n066         1
 ga_uses_ma=false, calling ma_init with nominal heap.
 GA-space will be limited to   8.0 MW (determined by -G option)

 Using customized tuning parameters: mindgm=10; mindgv=16; mindgc=4; mindgr=1; noblas=0; mincuda=1000; minvec=7
 default implementation of scratch files=df  

 ***,Optimization of nh3_nitrosmethane
 memory,1000,m
 gthresh,energy=1.0d-12,orbital=1.0d-10,oneint=1.0d-16,twoint=1.0d-16,optgrad=1.0d-6,compress=1.0d-13
 geomtyp=xyz
 
 bohr
 geometry = {
  N   -5.2199387645   -0.1894175560   -0.0000000000
  H   -6.2954681262    0.2282351807   -1.5327553478
  H   -3.7606980350    1.0596516586    0.0000000000
  H   -6.2954681262    0.2282351807    1.5327553478
  H   -0.9321196801   -2.4060646916    0.0000000000
  H    1.8790630647   -3.4288992231   -1.6666242654
  H    1.8790630647   -3.4288992231    1.6666242654
  C    1.1286759710   -2.4675536287   -0.0000000000
  N    2.2690964982    0.0958631070   -0.0000000000
  O    0.7119126235    1.7859062044   -0.0000000000
 }
 
 basis=aug-cc-pvdz, H=cc-pvdz
 {rhf;maxit,200}
 {ccsd(t);maxit,200}

 Variables initialized (661), CPU time= 0.00 sec
 Commands  initialized (458), CPU time= 0.00 sec, 486 directives.
 Default parameters read. Elapsed time= 0.05 sec

 Checking input...
 Passed
1


                                         ***  PROGRAM SYSTEM MOLPRO  ***
                         Copyright, University College Cardiff Consultants Limited, 2008

                                    Version 2010.1 linked May 16 2016 07:17:05


 **********************************************************************************************************************************
 LABEL *   Optimization of nh3_nitrosmethane                                             
 Linux-4.4.3/n066(x86_64) 64 bit mpp version                                             DATE: 26-Oct-23          TIME: 08:22:34  
 **********************************************************************************************************************************

 SHA1:             9e8077add272b0f3cad6f7df79ec5211205f459d
 **********************************************************************************************************************************

 THRESHOLDS:

 ZERO    =  1.00D-12  ONEINT  =  1.00D-16  TWOINT  =  1.00D-16  PREFAC  =  1.00D-14  LOCALI  =  1.00D-09  EORDER  =  1.00D-04
 ENERGY  =  1.00D-12  ETEST   =  0.00D+00  EDENS   =  0.00D+00  THRDEDEF=  1.00D-06  GRADIENT=  1.00D-02  STEP    =  1.00D-03
 ORBITAL =  1.00D-10  CIVEC   =  1.00D-05  COEFF   =  1.00D-04  PRINTCI =  5.00D-02  PUNCHCI =  9.90D+01  OPTGRAD =  1.00D-06
 OPTENERG=  1.00D-06  OPTSTEP =  3.00D-04  THRGRAD =  1.00D-10  COMPRESS=  1.00D-13  VARMIN  =  1.00D-07  VARMAX  =  1.00D-03
 THRDOUB =  0.00D+00  THRDIV  =  1.00D-05  THRRED  =  1.00D-07  THRPSP  =  1.00D+00  THRDC   =  1.00D-10  THRCS   =  1.00D-10
 THRNRM  =  1.00D-08  THREQ   =  0.00D+00  THRDE   =  1.00D+00  THRREF  =  1.00D-05  SPARFAC =  1.00D+00  THRDLP  =  1.00D-07
 THRDIA  =  1.00D-10  THRDLS  =  1.00D-07  THRGPS  =  0.00D+00  THRKEX  =  0.00D+00  THRDIS  =  2.00D-01  THRVAR  =  1.00D-10
 THRLOC  =  1.00D-06  THRGAP  =  1.00D-06  THRLOCT = -1.00D+00  THRGAPT = -1.00D+00  THRORB  =  1.00D-06  THRMLTP =  0.00D+00
 THRCPQCI=  1.00D-10  KEXTA   =  0.00D+00  THRCOARS=  0.00D+00  SYMTOL  =  1.00D-06  GRADTOL =  1.00D-06  THROVL  =  1.00D-08
 THRORTH =  1.00D-08  GRID    =  1.00D-06  GRIDMAX =  1.00D-03  DTMAX   =  0.00D+00

 SETTING GEOMTYP        =    XYZ
 ZUNIT=BOHR
 

 Variable memory set to 1000000000 words,  buffer space   230000 words

 SETTING BASIS          =    AUG-CC-PVDZ,H=CC-PVDZ


 Recomputing integrals since basis changed


 Using spherical harmonics

 Library entry N      S aug-cc-pVDZ          selected for orbital group  1
 Library entry N      P aug-cc-pVDZ          selected for orbital group  1
 Library entry N      D aug-cc-pVDZ          selected for orbital group  1
 Library entry H      S cc-pVDZ              selected for orbital group  2
 Library entry H      P cc-pVDZ              selected for orbital group  2
 Library entry C      S aug-cc-pVDZ          selected for orbital group  3
 Library entry C      P aug-cc-pVDZ          selected for orbital group  3
 Library entry C      D aug-cc-pVDZ          selected for orbital group  3
 Library entry O      S aug-cc-pVDZ          selected for orbital group  5
 Library entry O      P aug-cc-pVDZ          selected for orbital group  5
 Library entry O      D aug-cc-pVDZ          selected for orbital group  5

1PROGRAM * SEWARD (Integral evaluation for generally contracted gaussian basis sets)     Author: Roland Lindh, 1990

 Geometry written to block  1 of record 700


 Point group  Cs  



 ATOMIC COORDINATES

 NR  ATOM    CHARGE       X              Y              Z

   1  N       7.00   -5.219938765   -0.189417556    0.000000000
   2  H       1.00   -6.295468126    0.228235181   -1.532755348
   3  H       1.00   -6.295468126    0.228235181    1.532755348
   4  H       1.00   -3.760698035    1.059651659    0.000000000
   5  H       1.00   -0.932119680   -2.406064692    0.000000000
   6  H       1.00    1.879063065   -3.428899223   -1.666624265
   7  H       1.00    1.879063065   -3.428899223    1.666624265
   8  C       6.00    1.128675971   -2.467553629    0.000000000
   9  N       7.00    2.269096498    0.095863107    0.000000000
  10  O       8.00    0.711912623    1.785906204    0.000000000

 Bond lengths in Bohr (Angstrom)

 1-2  1.918472354  1-3  1.918472354  1-4  1.920822066  5-8  2.061712784  6-8  2.065164057
     ( 1.015211846)     ( 1.015211846)     ( 1.016455260)     ( 1.091011417)     ( 1.092837752)

  7- 8  2.065164057   8- 9  2.805648649   9-10  2.298057286
       ( 1.092837752)       ( 1.484685321)       ( 1.216079541)

 Bond angles

  2-1-3  106.05909440   2-1-4  106.51897401   3-1-4  106.51897401   5-8-6  112.15270613

  5-8-7  112.15270613   5-8-9  112.27441392   6-8-7  107.61116519   6-8-9  106.11828861

  7- 8- 9  106.11828861   8- 9-10  113.35946297

 NUCLEAR CHARGE:                   34
 NUMBER OF PRIMITIVE AOS:         190
 NUMBER OF SYMMETRY AOS:          182
 NUMBER OF CONTRACTIONS:          122   (  82A'  +  40A"  )
 NUMBER OF CORE ORBITALS:           4   (   4A'  +   0A"  )
 NUMBER OF VALENCE ORBITALS:       22   (  16A'  +   6A"  )


 NUCLEAR REPULSION ENERGY  117.38878571


 Eigenvalues of metric

         1 0.465E-03 0.142E-02 0.196E-02 0.432E-02 0.526E-02 0.749E-02 0.855E-02 0.125E-01
         2 0.797E-02 0.198E-01 0.245E-01 0.280E-01 0.310E-01 0.455E-01 0.612E-01 0.103E+00


 Contracted 2-electron integrals neglected if value below      1.0D-16
 AO integral compression algorithm  1   Integral accuracy      1.0D-16

     127.140 MB (compressed) written to integral file ( 92.6%)

     Node minimum: 127.140 MB, node maximum: 127.140 MB


 NUMBER OF SORTED TWO-ELECTRON INTEGRALS:   14499896.     BUFFER LENGTH:  32768
 NUMBER OF SEGMENTS:   1  SEGMENT LENGTH:   14499896      RECORD LENGTH: 524288

 Memory used in sort:      15.06 MW

 SORT1 READ    17174245. AND WROTE    14369654. INTEGRALS IN     42 RECORDS. CPU TIME:     0.17 SEC, REAL TIME:     0.26 SEC
 SORT2 READ    14369654. AND WROTE    14499896. INTEGRALS IN    485 RECORDS. CPU TIME:     0.16 SEC, REAL TIME:     0.23 SEC

 FILE SIZES:   FILE 1:   112.3 MBYTE,  FILE 4:   176.2 MBYTE,   TOTAL:    288.5 MBYTE

 OPERATOR DM      FOR CENTER  0  COORDINATES:    0.000000    0.000000    0.000000


 **********************************************************************************************************************************
 DATASETS  * FILE   NREC   LENGTH (MB)   RECORD NAMES
              1      19      112.42       500      610      700      900      950      970     1000      129      960     1100   
                                          VAR    BASINP    GEOM    SYMINP    ZMAT    AOBASIS   BASIS     P2S    ABASIS      S 
                                         1400     1410     1200     1210     1080     1600     1650     1300     1700   
                                           T        V       H0       H01     AOSYM     SMH    MOLCAS    ERIS     OPER   

 PROGRAMS   *        TOTAL       INT
 CPU TIMES  *         1.59      1.55
 REAL TIME  *         2.01 SEC
 DISK USED  *       416.45 MB      
 GA USED    *         0.00 MB       (max)       0.00 MB       (current)
 **********************************************************************************************************************************

1PROGRAM * RHF-SCF (CLOSED SHELL)       Authors: W. Meyer, H.-J. Werner


 NUMBER OF ELECTRONS:      17+   17-
 CONVERGENCE THRESHOLDS:    1.00E-10 (Density)    1.00E-13 (Energy)
 MAX. NUMBER OF ITERATIONS:      200
 INTERPOLATION TYPE:            DIIS
 INTERPOLATION STEPS:              2 (START)      1 (STEP)
 LEVEL SHIFTS:                  0.00 (CLOSED)  0.00 (OPEN) 



 Orbital guess generated from atomic densities. Full valence occupancy:   20   6

 Molecular orbital dump at record        2100.2

 Initial alpha occupancy:  14   3
 Initial beta  occupancy:  14   3
 Wave function symmetry:    1

 ITERATION    DDIFF          GRAD             ENERGY        2-EL.EN.            DIPOLE MOMENTS         DIIS
    1      0.000D+00      0.000D+00      -224.96489593    393.087825    0.06228   -0.57152    0.00000    0
    2      0.000D+00      0.946D-02      -225.02568049    392.717270   -0.58971   -0.37055    0.00000    1
    3      0.176D-01      0.662D-02      -225.05963856    393.261667   -0.24450   -0.55106    0.00000    2
    4      0.764D-02      0.132D-02      -225.06190714    393.096925   -0.32216   -0.45341    0.00000    3
    5      0.195D-02      0.523D-03      -225.06233138    393.108709   -0.31997   -0.48289    0.00000    4
    6      0.851D-03      0.127D-03      -225.06237378    393.135867   -0.32530   -0.48005    0.00000    5
    7      0.291D-03      0.485D-04      -225.06237986    393.119845   -0.32692   -0.48014    0.00000    6
    8      0.116D-03      0.197D-04      -225.06238086    393.126343   -0.32793   -0.48006    0.00000    7
    9      0.442D-04      0.844D-05      -225.06238107    393.125172   -0.32820   -0.47975    0.00000    8
   10      0.245D-04      0.258D-05      -225.06238109    393.124888   -0.32829   -0.47957    0.00000    8
   11      0.750D-05      0.867D-06      -225.06238109    393.124994   -0.32830   -0.47948    0.00000    8
   12      0.245D-05      0.263D-06      -225.06238109    393.124958   -0.32830   -0.47946    0.00000    8
   13      0.915D-06      0.824D-07      -225.06238109    393.124952   -0.32830   -0.47945    0.00000    8
   14      0.221D-06      0.416D-07      -225.06238109    393.124955   -0.32830   -0.47945    0.00000    9
   15      0.103D-06      0.397D-08      -225.06238109    393.124955   -0.32830   -0.47945    0.00000    8
   16      0.102D-07      0.110D-08      -225.06238109    393.124955   -0.32830   -0.47945    0.00000    7
   17      0.351D-08      0.236D-09      -225.06238109    393.124955   -0.32830   -0.47945    0.00000    7
   18      0.584D-09      0.813D-10      -225.06238109    393.124955   -0.32830   -0.47945    0.00000    7
   19      0.189D-09      0.261D-10      -225.06238109    393.124955   -0.32830   -0.47945    0.00000    7
   20      0.695D-10      0.770D-11      -225.06238109    393.124955   -0.32830   -0.47945    0.00000    6
   21      0.211D-10      0.219D-11      -225.06238109    393.124955   -0.32830   -0.47945    0.00000    7
   22      0.756D-11      0.577D-12      -225.06238109    393.124955   -0.32830   -0.47945    0.00000    7
   23      0.162D-11      0.350D-12      -225.06238109    393.124955   -0.32830   -0.47945    0.00000    8
   24      0.112D-11      0.775D-13      -225.06238109    393.124955   -0.32830   -0.47945    0.00000    8
   25      0.762D-12      0.593D-13      -225.06238109    393.124955   -0.32830   -0.47945    0.00000    8
   26      0.642D-12      0.414D-13      -225.06238109    393.124955   -0.32830   -0.47945    0.00000    9
   27      0.224D-12      0.371D-13      -225.06238109    393.124955   -0.32830   -0.47945    0.00000    9
   28      0.255D-12      0.346D-13      -225.06238109    393.124955   -0.32830   -0.47945    0.00000    9
   29      0.161D-12      0.274D-13      -225.06238109    393.124955   -0.32830   -0.47945    0.00000    9
   30      0.950D-13      0.235D-13      -225.06238109    393.124955   -0.32830   -0.47945    0.00000    9
   31      0.862D-13      0.297D-13      -225.06238109    393.124955   -0.32830   -0.47945    0.00000    0

 Final occupancy:  14   3

 !RHF STATE 1.1 Energy               -225.062381094386
 Nuclear energy                       117.38878571
 One-electron energy                 -539.01364415
 Two-electron energy                  196.56247735
 Virial quotient                       -1.00219266
 !RHF STATE 1.1 Dipole moment          -0.32830446    -0.47945247     0.00000000
 Dipole moment /Debye                  -0.83441206    -1.21856681     0.00000000

 Orbital energies:

         1.1          2.1          3.1          4.1          5.1          6.1          7.1          8.1          9.1         10.1
    -20.640196   -15.714747   -15.549149   -11.271134    -1.515025    -1.140459    -1.076198    -0.862241    -0.691016    -0.676098

        11.1         12.1         13.1         14.1         15.1         16.1
     -0.623236    -0.555519    -0.428747    -0.406195     0.077631     0.088804

         1.2          2.2          3.2          4.2          5.2
     -0.636267    -0.623800    -0.534319     0.084585     0.100222


 **********************************************************************************************************************************
 DATASETS  * FILE   NREC   LENGTH (MB)   RECORD NAMES
              1      19      112.42       500      610      700      900      950      970     1000      129      960     1100   
                                          VAR    BASINP    GEOM    SYMINP    ZMAT    AOBASIS   BASIS     P2S    ABASIS      S 
                                         1400     1410     1200     1210     1080     1600     1650     1300     1700   
                                           T        V       H0       H01     AOSYM     SMH    MOLCAS    ERIS     OPER   

              2       3        0.59       700     1000     2100   
                                         GEOM     BASIS     RHF  

 PROGRAMS   *        TOTAL       RHF       INT
 CPU TIMES  *         4.11      2.52      1.55
 REAL TIME  *         4.96 SEC
 DISK USED  *       416.45 MB      
 GA USED    *         0.00 MB       (max)       0.00 MB       (current)
 **********************************************************************************************************************************


1PROGRAM * CCSD (Closed-shell coupled cluster)     Authors: C. Hampel, H.-J. Werner, 1991, M. Deegan, P.J. Knowles, 1992


 Convergence thresholds:  THRVAR = 1.00D-08  THRDEN = 1.00D-12

 CCSD(T)     terms to be evaluated (factor= 1.000)


 Number of core orbitals:           4 (   4   0 )
 Number of closed-shell orbitals:  13 (  10   3 )
 Number of external orbitals:     105 (  68  37 )

 Molecular orbitals read from record     2100.2  Type=RHF/CANONICAL (state 1.1)

 Number of N-1 electron functions:              13
 Number of N-2 electron functions:              91
 Number of singly external CSFs:               791
 Number of doubly external CSFs:            478261
 Total number of CSFs:                      479053

 Length of J-op  integral file:               0.00 MB
 Length of K-op  integral file:               0.61 MB
 Length of 3-ext integral record:             0.00 MB

 Memory could be reduced to 10.60 Mwords without degradation in triples

 Integral transformation finished. Total CPU:   0.41 sec, npass=  1  Memory used:   4.15 MW

 Reference energy:                   -225.06238109

 MP2 singlet pair energy:              -0.44861358
 MP2 triplet pair energy:              -0.26464398
 MP2 correlation energy:               -0.71325756
 MP2 total energy:                   -225.77563865

 SCS-MP2 correlation energy:           -0.70300366   (PS=  1.200000  PT=  0.333333)
 SCS-MP2 total energy:               -225.76538475

 ITER.      SQ.NORM     CORR.ENERGY   TOTAL ENERGY   ENERGY CHANGE        DEN1      VAR(S)    VAR(P)  DIIS     TIME
   1      1.24160967    -0.74724257  -225.80962367    -0.03398501    -0.01022094  0.52D-02  0.49D-02  1  1     1.17
   2      1.26338858    -0.75033054  -225.81271164    -0.00308797    -0.02110844  0.17D-03  0.87D-03  2  2     1.97
   3      1.27339177    -0.75103499  -225.81341608    -0.00070445    -0.00461182  0.12D-03  0.62D-04  3  3     2.76
   4      1.27754381    -0.75100037  -225.81338146     0.00003462    -0.00137273  0.11D-04  0.11D-04  4  4     3.55
   5      1.27919511    -0.75101835  -225.81339944    -0.00001798    -0.00036028  0.19D-05  0.17D-05  5  5     4.34
   6      1.27965410    -0.75098753  -225.81336862     0.00003082    -0.00005476  0.15D-06  0.33D-06  6  6     5.13
   7      1.27975427    -0.75098472  -225.81336582     0.00000280    -0.00000373  0.33D-07  0.86D-07  6  2     5.91
   8      1.27977785    -0.75098547  -225.81336656    -0.00000074    -0.00000031  0.43D-08  0.20D-07  6  1     6.70
   9      1.27977810    -0.75098485  -225.81336595     0.00000062     0.00000434  0.25D-08  0.32D-08  6  4     7.50
  10      1.27978040    -0.75098564  -225.81336674    -0.00000079    -0.00000120  0.52D-09  0.44D-09  6  3     8.30
  11      1.27977833    -0.75098585  -225.81336694    -0.00000021     0.00000043  0.17D-09  0.78D-10  6  5     9.10
  12      1.27977683    -0.75098592  -225.81336702    -0.00000007     0.00000032  0.39D-10  0.17D-10  6  6     9.89
  13      1.27977522    -0.75098604  -225.81336714    -0.00000012     0.00000039  0.54D-11  0.39D-11  6  1    10.68
  14      1.27977454    -0.75098606  -225.81336715    -0.00000001     0.00000018  0.12D-11  0.55D-12  6  2    11.47
  15      1.27977428    -0.75098606  -225.81336716    -0.00000001     0.00000004  0.20D-12  0.85D-13  6  4    12.27
  16      1.27977422    -0.75098607  -225.81336716    -0.00000000     0.00000001  0.55D-13  0.22D-13  6  3    13.06
  17      1.27977420    -0.75098607  -225.81336716     0.00000000    -0.00000000  0.96D-14  0.47D-14  6  6    13.86
  18      1.27977420    -0.75098607  -225.81336716    -0.00000000    -0.00000000  0.14D-14  0.98D-15  6  5    14.66
  19      1.27977420    -0.75098607  -225.81336716     0.00000000    -0.00000000  0.18D-15  0.22D-15  6  1    15.46
  20      1.27977420    -0.75098607  -225.81336716     0.00000000    -0.00000000  0.50D-16  0.64D-16  6  2    16.26
  21      1.27977420    -0.75098607  -225.81336716     0.00000000     0.00000000  0.15D-16  0.14D-16  6  6    17.05
  22      1.27977420    -0.75098607  -225.81336716     0.00000000    -0.00000000  0.28D-17  0.37D-17  6  4    17.85
  23      1.27977420    -0.75098607  -225.81336716     0.00000000    -0.00000000  0.10D-17  0.69D-18  6  3    18.65
  24      1.27977420    -0.75098607  -225.81336716    -0.00000000    -0.00000000  0.22D-18  0.14D-18  6  5    19.44
  25      1.27977420    -0.75098607  -225.81336716     0.00000000    -0.00000000  0.72D-19  0.35D-19  6  1    20.23
  26      1.27977420    -0.75098607  -225.81336716     0.00000000    -0.00000000  0.12D-19  0.49D-20  6  2    21.02
  27      1.27977420    -0.75098607  -225.81336716     0.00000000    -0.00000000  0.32D-20  0.94D-21  6  6    21.82

 Norm of t1 vector:      0.11112981      S-energy:     0.00000000      T1 diagnostic:  0.01541093
                                                                       D1 diagnostic:  0.04945415

 Doubles amplitudes (print threshold =  0.500E-01):

         I         J         SYM. A    SYM. B    A         B      T(IJ, AB)

        13        13         2         2         1         1     -0.05726634


 Total CPU time for triples:     12.54 sec


 RESULTS
 =======

  Reference energy                   -225.062381094386
  CCSD singlet pair energy             -0.516912552758
  CCSD triplet pair energy             -0.234073513463
  CCSD correlation energy              -0.750986066221

  Triples (T) contribution             -0.026303585685
  Total correlation energy             -0.777289651907

  CCSD total energy                  -225.813367160607
  CCSD[T] energy                     -225.841278401942
  CCSD-T energy                      -225.839178790913
 !CCSD(T) total energy               -225.839670746293

 Timing summary (sec):

 STEP                 CPU(USER)    SYS     CPU(TOT)    WALL
 Transformation          0.42      0.08      0.50      0.50
 CCSD iterations        21.40      0.98     22.38     22.43
 Triples                12.54      0.37     12.91     12.91

 Program statistics:

 Available memory in ccsd:               999999224
 Min. memory needed in ccsd:               1317552
 Max. memory used in ccsd:                 1735628
 Max. memory used in cckext:               1789017 (27 integral passes)



 **********************************************************************************************************************************
 DATASETS  * FILE   NREC   LENGTH (MB)   RECORD NAMES
              1      20      152.02       500      610      700      900      950      970     1000      129      960     1100   
                                          VAR    BASINP    GEOM    SYMINP    ZMAT    AOBASIS   BASIS     P2S    ABASIS      S 
                                         1400     1410     1200     1210     1080     1600     1650     1300     1700     1380   
                                           T        V       H0       H01     AOSYM     SMH    MOLCAS    ERIS     OPER     JKOP   

              2       3        0.59       700     1000     2100   
                                         GEOM     BASIS     RHF  

 PROGRAMS   *        TOTAL   CCSD(T)       RHF       INT
 CPU TIMES  *        38.48     34.35      2.52      1.55
 REAL TIME  *        40.84 SEC
 DISK USED  *       416.45 MB      
 GA USED    *         0.00 MB       (max)       0.00 MB       (current)
 **********************************************************************************************************************************

        CCSD(T)         RHF-SCF 
   -225.83967075   -225.06238109
 **********************************************************************************************************************************
 Variable memory released
