
 Primary working directories    : /tmp/943217.326.gen6.q
 Secondary working directories  : /tmp/943217.326.gen6.q
 Wavefunction directory         : /home/vulcan/mel64643/wfu/
 Main file repository           : /tmp/943217.326.gen6.q/

 ARCHNAME  : Linux/x86_64
 FC        : /opt/intel/compilers_and_libraries_2016.1.150/linux/bin/intel64/ifort
 FCVERSION : 16.0.1
 BLASLIB   : -mkl
 id        : ccgc

 Nodes     nprocs
 n077         1
 ga_uses_ma=false, calling ma_init with nominal heap.
 GA-space will be limited to   8.0 MW (determined by -G option)

 Using customized tuning parameters: mindgm=10; mindgv=16; mindgc=4; mindgr=1; noblas=0; mincuda=1000; minvec=7
 default implementation of scratch files=df  

 ***,Optimization of formic acid
 memory,1000,m
 gthresh,energy=1.0d-12,orbital=1.0d-10,oneint=1.0d-16,twoint=1.0d-16,optgrad=1.0d-6,compress=1.0d-13
 geomtyp=xyz
 
 bohr
 geometry = {
  C   -3.4992245879   -0.8304376250    0.0075876749
  O   -3.0929668585    1.6229709979   -0.0075742602
  O   -1.8840048682   -2.4808798114    0.0136022675
  H   -5.5253495638   -1.2745996447   -0.0000077459
  H   -1.2408062494    1.9542968885   -0.0136047455
  C    3.5019874613    0.8310432875    0.0075710578
  O    3.0957295890   -1.6223653513   -0.0075844653
  O    1.8867678002    2.4814854810    0.0135993894
  H    5.5142983546    1.2721770271    0.0000077317
  H    1.2435689226   -1.9536912496   -0.0135969042
 }
 
 basis=VDZ
 {rhf;maxit,200}
 {ccsd(t);maxit,200}

 Variables initialized (661), CPU time= 0.00 sec
 Commands  initialized (458), CPU time= 0.01 sec, 486 directives.
 Default parameters read. Elapsed time= 0.04 sec

 Checking input...
 Passed
1


                                         ***  PROGRAM SYSTEM MOLPRO  ***
                         Copyright, University College Cardiff Consultants Limited, 2008

                                    Version 2010.1 linked May 16 2016 07:17:05


 **********************************************************************************************************************************
 LABEL *   Optimization of formic acid                                                   
 Linux-4.4.3/n077(x86_64) 64 bit mpp version                                             DATE: 24-Oct-23          TIME: 11:27:03  
 **********************************************************************************************************************************

 SHA1:             9e8077add272b0f3cad6f7df79ec5211205f459d
 **********************************************************************************************************************************

 THRESHOLDS:

 ZERO    =  1.00D-12  ONEINT  =  1.00D-16  TWOINT  =  1.00D-16  PREFAC  =  1.00D-14  LOCALI  =  1.00D-09  EORDER  =  1.00D-04
 ENERGY  =  1.00D-12  ETEST   =  0.00D+00  EDENS   =  0.00D+00  THRDEDEF=  1.00D-06  GRADIENT=  1.00D-02  STEP    =  1.00D-03
 ORBITAL =  1.00D-10  CIVEC   =  1.00D-05  COEFF   =  1.00D-04  PRINTCI =  5.00D-02  PUNCHCI =  9.90D+01  OPTGRAD =  1.00D-06
 OPTENERG=  1.00D-06  OPTSTEP =  3.00D-04  THRGRAD =  1.00D-10  COMPRESS=  1.00D-13  VARMIN  =  1.00D-07  VARMAX  =  1.00D-03
 THRDOUB =  0.00D+00  THRDIV  =  1.00D-05  THRRED  =  1.00D-07  THRPSP  =  1.00D+00  THRDC   =  1.00D-10  THRCS   =  1.00D-10
 THRNRM  =  1.00D-08  THREQ   =  0.00D+00  THRDE   =  1.00D+00  THRREF  =  1.00D-05  SPARFAC =  1.00D+00  THRDLP  =  1.00D-07
 THRDIA  =  1.00D-10  THRDLS  =  1.00D-07  THRGPS  =  0.00D+00  THRKEX  =  0.00D+00  THRDIS  =  2.00D-01  THRVAR  =  1.00D-10
 THRLOC  =  1.00D-06  THRGAP  =  1.00D-06  THRLOCT = -1.00D+00  THRGAPT = -1.00D+00  THRORB  =  1.00D-06  THRMLTP =  0.00D+00
 THRCPQCI=  1.00D-10  KEXTA   =  0.00D+00  THRCOARS=  0.00D+00  SYMTOL  =  1.00D-06  GRADTOL =  1.00D-06  THROVL  =  1.00D-08
 THRORTH =  1.00D-08  GRID    =  1.00D-06  GRIDMAX =  1.00D-03  DTMAX   =  0.00D+00

 SETTING GEOMTYP        =    XYZ
 ZUNIT=BOHR
 

 Variable memory set to 1000000000 words,  buffer space   230000 words

 SETTING BASIS          =    VDZ


 Recomputing integrals since basis changed


 Using spherical harmonics

 Library entry C      S cc-pVDZ              selected for orbital group  1
 Library entry C      P cc-pVDZ              selected for orbital group  1
 Library entry C      D cc-pVDZ              selected for orbital group  1
 Library entry O      S cc-pVDZ              selected for orbital group  2
 Library entry O      P cc-pVDZ              selected for orbital group  2
 Library entry O      D cc-pVDZ              selected for orbital group  2
 Library entry H      S cc-pVDZ              selected for orbital group  3
 Library entry H      P cc-pVDZ              selected for orbital group  3

1PROGRAM * SEWARD (Integral evaluation for generally contracted gaussian basis sets)     Author: Roland Lindh, 1990

 Geometry written to block  1 of record 700


 Point group  C1  



 ATOMIC COORDINATES

 NR  ATOM    CHARGE       X              Y              Z

   1  C       6.00   -3.499224588   -0.830437625    0.007587675
   2  O       8.00   -3.092966859    1.622970998   -0.007574260
   3  O       8.00   -1.884004868   -2.480879811    0.013602267
   4  H       1.00   -5.525349564   -1.274599645   -0.000007746
   5  H       1.00   -1.240806249    1.954296889   -0.013604745
   6  C       6.00    3.501987461    0.831043288    0.007571058
   7  O       8.00    3.095729589   -1.622365351   -0.007584465
   8  O       8.00    1.886767800    2.481485481    0.013599389
   9  H       1.00    5.514298355    1.272177027    0.000007732
  10  H       1.00    1.243568923   -1.953691250   -0.013596904

 Bond lengths in Bohr (Angstrom)

 1-2  2.486863305  1-3  2.309313822  1-4  2.074251674  2-5  1.881571719  6-7  2.486863305
     ( 1.315991383)     ( 1.222036243)     ( 1.097646712)     ( 0.995684871)     ( 1.315991383)

  6- 8  2.309313822   6- 9  2.060109539   7-10  1.881571719
       ( 1.222036243)       ( 1.090163016)       ( 0.995684871)

 Bond angles

  1-2-5  109.54509197   2-1-3  126.21591653   2-1-4  111.76493101   3-1-4  122.01768485

  6- 7-10  109.54509197   7- 6- 8  126.21591661   7- 6- 9  111.76493097   8- 6- 9  122.01768481

 NUCLEAR CHARGE:                   48
 NUMBER OF PRIMITIVE AOS:         190
 NUMBER OF SYMMETRY AOS:          184
 NUMBER OF CONTRACTIONS:          104   ( 104A   )
 NUMBER OF CORE ORBITALS:           6   (   6A   )
 NUMBER OF VALENCE ORBITALS:       28   (  28A   )


 NUCLEAR REPULSION ENERGY  235.53053605


 Eigenvalues of metric

         1 0.818E-02 0.871E-02 0.138E-01 0.140E-01 0.165E-01 0.167E-01 0.299E-01 0.307E-01


 Contracted 2-electron integrals neglected if value below      1.0D-16
 AO integral compression algorithm  1   Integral accuracy      1.0D-16

     106.430 MB (compressed) written to integral file ( 79.7%)

     Node minimum: 106.430 MB, node maximum: 106.430 MB


 NUMBER OF SORTED TWO-ELECTRON INTEGRALS:   14908530.     BUFFER LENGTH:  32768
 NUMBER OF SEGMENTS:   1  SEGMENT LENGTH:   14908530      RECORD LENGTH: 524288

 Memory used in sort:      15.47 MW

 SORT1 READ    16652693. AND WROTE    14520481. INTEGRALS IN     42 RECORDS. CPU TIME:     0.14 SEC, REAL TIME:     0.23 SEC
 SORT2 READ    14520481. AND WROTE    14908530. INTEGRALS IN    406 RECORDS. CPU TIME:     0.15 SEC, REAL TIME:     0.20 SEC

 FILE SIZES:   FILE 1:    97.7 MBYTE,  FILE 4:   176.2 MBYTE,   TOTAL:    273.9 MBYTE

 OPERATOR DM      FOR CENTER  0  COORDINATES:    0.000000    0.000000    0.000000


 **********************************************************************************************************************************
 DATASETS  * FILE   NREC   LENGTH (MB)   RECORD NAMES
              1      19       97.79       500      610      700      900      950      970     1000      129      960     1100   
                                          VAR    BASINP    GEOM    SYMINP    ZMAT    AOBASIS   BASIS     P2S    ABASIS      S 
                                         1400     1410     1200     1210     1080     1600     1650     1300     1700   
                                           T        V       H0       H01     AOSYM     SMH    MOLCAS    ERIS     OPER   

 PROGRAMS   *        TOTAL       INT
 CPU TIMES  *         1.41      1.37
 REAL TIME  *         1.80 SEC
 DISK USED  *       381.07 MB      
 GA USED    *         0.00 MB       (max)       0.00 MB       (current)
 **********************************************************************************************************************************

1PROGRAM * RHF-SCF (CLOSED SHELL)       Authors: W. Meyer, H.-J. Werner


 NUMBER OF ELECTRONS:      24+   24-    SPACE SYMMETRY=1    SPIN SYMMETRY: Singlet 
 CONVERGENCE THRESHOLDS:    1.00E-10 (Density)    1.00E-13 (Energy)
 MAX. NUMBER OF ITERATIONS:      200
 INTERPOLATION TYPE:            DIIS
 INTERPOLATION STEPS:              2 (START)      1 (STEP)
 LEVEL SHIFTS:                  0.00 (CLOSED)  0.00 (OPEN) 



 Orbital guess generated from atomic densities. Full valence occupancy:   34

 Molecular orbital dump at record        2100.2

 ITERATION    DDIFF          GRAD             ENERGY        2-EL.EN.            DIPOLE MOMENTS         DIIS
    1      0.000D+00      0.000D+00      -377.44984547    747.055744    0.00020   -0.00001   -0.00836    0
    2      0.000D+00      0.110D-01      -377.53759333    744.207686    0.00168   -0.00005   -0.00894    1
    3      0.218D-01      0.684D-02      -377.58424295    746.456919    0.00125    0.00039   -0.00866    2
    4      0.792D-02      0.967D-03      -377.58573349    746.177047    0.00163    0.00028   -0.00838    3
    5      0.155D-02      0.402D-03      -377.58599419    746.202852    0.00161    0.00039   -0.00854    4
    6      0.637D-03      0.115D-03      -377.58604039    746.247142    0.00163    0.00037   -0.00846    5
    7      0.221D-03      0.526D-04      -377.58605174    746.231983    0.00163    0.00038   -0.00845    6
    8      0.132D-03      0.156D-04      -377.58605274    746.237188    0.00163    0.00038   -0.00844    7
    9      0.411D-04      0.529D-05      -377.58605284    746.235735    0.00163    0.00038   -0.00844    8
   10      0.143D-04      0.145D-05      -377.58605285    746.235904    0.00163    0.00038   -0.00844    7
   11      0.404D-05      0.355D-06      -377.58605285    746.235850    0.00163    0.00038   -0.00844    8
   12      0.940D-06      0.103D-06      -377.58605285    746.235871    0.00163    0.00038   -0.00844    7
   13      0.258D-06      0.418D-07      -377.58605285    746.235860    0.00163    0.00038   -0.00844    8
   14      0.747D-07      0.123D-07      -377.58605285    746.235861    0.00163    0.00038   -0.00844    8
   15      0.278D-07      0.468D-08      -377.58605285    746.235862    0.00163    0.00038   -0.00844    8
   16      0.809D-08      0.120D-08      -377.58605285    746.235861    0.00163    0.00038   -0.00844    8
   17      0.200D-08      0.314D-09      -377.58605285    746.235861    0.00163    0.00038   -0.00844    8
   18      0.616D-09      0.120D-09      -377.58605285    746.235861    0.00163    0.00038   -0.00844    8
   19      0.205D-09      0.467D-10      -377.58605285    746.235861    0.00163    0.00038   -0.00844    8
   20      0.864D-10      0.157D-10      -377.58605285    746.235861    0.00163    0.00038   -0.00844    0

 Final occupancy:  24

 !RHF STATE 1.1 Energy               -377.586052851960
 Nuclear energy                       235.53053605
 One-electron energy                 -986.23451956
 Two-electron energy                  373.11793065
 Virial quotient                       -1.00122977
 !RHF STATE 1.1 Dipole moment           0.00163262     0.00038242    -0.00844188
 Dipole moment /Debye                   0.00414944     0.00097196    -0.02145571

 Orbital energies:

         1.1          2.1          3.1          4.1          5.1          6.1          7.1          8.1          9.1         10.1
    -20.613871   -20.613787   -20.575563   -20.575461   -11.412404   -11.411730    -1.482087    -1.469365    -1.383623    -1.369629

        11.1         12.1         13.1         14.1         15.1         16.1         17.1         18.1         19.1         20.1
     -0.914417    -0.878486    -0.763260    -0.728064    -0.719292    -0.688814    -0.638425    -0.628850    -0.615088    -0.573625

        21.1         22.1         23.1         24.1         25.1         26.1
     -0.498411    -0.489558    -0.487742    -0.467776     0.160896     0.165964


 **********************************************************************************************************************************
 DATASETS  * FILE   NREC   LENGTH (MB)   RECORD NAMES
              1      19       97.79       500      610      700      900      950      970     1000      129      960     1100   
                                          VAR    BASINP    GEOM    SYMINP    ZMAT    AOBASIS   BASIS     P2S    ABASIS      S 
                                         1400     1410     1200     1210     1080     1600     1650     1300     1700   
                                           T        V       H0       H01     AOSYM     SMH    MOLCAS    ERIS     OPER   

              2       3        0.64       700     1000     2100   
                                         GEOM     BASIS     RHF  

 PROGRAMS   *        TOTAL       RHF       INT
 CPU TIMES  *         3.48      2.07      1.37
 REAL TIME  *         4.04 SEC
 DISK USED  *       381.07 MB      
 GA USED    *         0.00 MB       (max)       0.00 MB       (current)
 **********************************************************************************************************************************


1PROGRAM * CCSD (Closed-shell coupled cluster)     Authors: C. Hampel, H.-J. Werner, 1991, M. Deegan, P.J. Knowles, 1992


 Convergence thresholds:  THRVAR = 1.00D-08  THRDEN = 1.00D-12

 CCSD(T)     terms to be evaluated (factor= 1.000)


 Number of core orbitals:           6 (   6 )
 Number of closed-shell orbitals:  18 (  18 )
 Number of external orbitals:      80 (  80 )

 Molecular orbitals read from record     2100.2  Type=RHF/CANONICAL (state 1.1)

 Number of N-1 electron functions:              18
 Number of N-2 electron functions:             171
 Number of singly external CSFs:              1440
 Number of doubly external CSFs:           1037520
 Total number of CSFs:                     1038961

 Length of J-op  integral file:               0.00 MB
 Length of K-op  integral file:               0.78 MB
 Length of 3-ext integral record:             0.00 MB

 Memory could be reduced to 13.51 Mwords without degradation in triples

 Integral transformation finished. Total CPU:   0.70 sec, npass=  1  Memory used:  14.06 MW

 Reference energy:                   -377.58605285

 MP2 singlet pair energy:              -0.59906054
 MP2 triplet pair energy:              -0.40690340
 MP2 correlation energy:               -1.00596394
 MP2 total energy:                   -378.59201679

 SCS-MP2 correlation energy:           -0.97205699   (PS=  1.200000  PT=  0.333333)
 SCS-MP2 total energy:               -378.55810984

 ITER.      SQ.NORM     CORR.ENERGY   TOTAL ENERGY   ENERGY CHANGE        DEN1      VAR(S)    VAR(P)  DIIS     TIME
   1      1.28158420    -1.02620576  -378.61225862    -0.02024182     0.01051054  0.10D-01  0.55D-02  1  1     3.44
   2      1.30525317    -1.02808731  -378.61414017    -0.00188155    -0.02505190  0.25D-03  0.10D-02  2  2     6.22
   3      1.31827767    -1.02903651  -378.61508936    -0.00094920    -0.00595406  0.20D-03  0.42D-04  3  3     9.00
   4      1.32362001    -1.02880319  -378.61485604     0.00023332    -0.00175115  0.18D-04  0.71D-05  4  4    11.78
   5      1.32568461    -1.02871357  -378.61476643     0.00008962    -0.00045832  0.11D-05  0.68D-06  5  5    14.57
   6      1.32602827    -1.02869316  -378.61474601     0.00002042    -0.00001562  0.10D-06  0.60D-07  6  6    17.36
   7      1.32609703    -1.02868554  -378.61473839     0.00000762    -0.00000448  0.79D-08  0.89D-08  6  2    20.15
   8      1.32610028    -1.02868639  -378.61473924    -0.00000085     0.00000208  0.16D-08  0.90D-09  6  1    22.93
   9      1.32610106    -1.02868606  -378.61473892     0.00000032     0.00000091  0.34D-09  0.16D-09  6  4    25.72
  10      1.32610288    -1.02868591  -378.61473876     0.00000016    -0.00000062  0.96D-10  0.26D-10  6  3    28.50
  11      1.32610236    -1.02868603  -378.61473889    -0.00000013     0.00000025  0.22D-10  0.55D-11  6  5    31.29
  12      1.32610202    -1.02868605  -378.61473890    -0.00000001     0.00000005  0.30D-11  0.12D-11  6  6    34.07
  13      1.32610168    -1.02868609  -378.61473894    -0.00000004     0.00000014  0.37D-12  0.22D-12  6  1    36.85
  14      1.32610157    -1.02868610  -378.61473895    -0.00000000     0.00000002  0.56D-13  0.27D-13  6  2    39.64
  15      1.32610153    -1.02868610  -378.61473895    -0.00000000     0.00000001  0.17D-13  0.43D-14  6  4    42.43
  16      1.32610152    -1.02868610  -378.61473895    -0.00000000     0.00000000  0.44D-14  0.13D-14  6  5    45.21
  17      1.32610152    -1.02868610  -378.61473895     0.00000000    -0.00000000  0.11D-14  0.27D-15  6  3    48.00
  18      1.32610152    -1.02868610  -378.61473895    -0.00000000     0.00000000  0.27D-15  0.79D-16  6  6    50.79
  19      1.32610152    -1.02868610  -378.61473895     0.00000000    -0.00000000  0.43D-16  0.17D-16  6  1    53.57
  20      1.32610152    -1.02868610  -378.61473895     0.00000000    -0.00000000  0.95D-17  0.30D-17  6  2    56.35
  21      1.32610152    -1.02868610  -378.61473895     0.00000000     0.00000000  0.24D-17  0.78D-18  6  4    59.14
  22      1.32610152    -1.02868610  -378.61473895     0.00000000    -0.00000000  0.70D-18  0.16D-18  6  5    61.92
  23      1.32610152    -1.02868610  -378.61473895    -0.00000000    -0.00000000  0.86D-19  0.44D-19  6  3    64.71
  24      1.32610152    -1.02868610  -378.61473895    -0.00000000    -0.00000000  0.14D-19  0.77D-20  6  6    67.50

 Norm of t1 vector:      0.15246943      S-energy:     0.00000000      T1 diagnostic:  0.01796869
                                                                       D1 diagnostic:  0.06496235

 Singles amplitudes (print threshold =  0.500E-01):

         I         SYM. A    A   T(IA)

        11         1         1      0.05942251
        12         1         2      0.06126386


 Total CPU time for triples:     31.31 sec


 RESULTS
 =======

  Reference energy                   -377.586052851960
  CCSD singlet pair energy             -0.670880608775
  CCSD triplet pair energy             -0.357805489908
  CCSD correlation energy              -1.028686098668

  Triples (T) contribution             -0.031909951874
  Total correlation energy             -1.060596050542

  CCSD total energy                  -378.614738950627
  CCSD[T] energy                     -378.649933137099
  CCSD-T energy                      -378.645569242715
 !CCSD(T) total energy               -378.646648902502

 Timing summary (sec):

 STEP                 CPU(USER)    SYS     CPU(TOT)    WALL
 Transformation          0.75      0.09      0.84      0.85
 CCSD iterations        66.75      1.33     68.08     68.13
 Triples                31.31      0.82     32.13     32.14

 Program statistics:

 Available memory in ccsd:               999998604
 Min. memory needed in ccsd:               2834340
 Max. memory used in ccsd:                 3747300
 Max. memory used in cckext:               3919086 (24 integral passes)



 **********************************************************************************************************************************
 DATASETS  * FILE   NREC   LENGTH (MB)   RECORD NAMES
              1      20      157.70       500      610      700      900      950      970     1000      129      960     1100   
                                          VAR    BASINP    GEOM    SYMINP    ZMAT    AOBASIS   BASIS     P2S    ABASIS      S 
                                         1400     1410     1200     1210     1080     1600     1650     1300     1700     1380   
                                           T        V       H0       H01     AOSYM     SMH    MOLCAS    ERIS     OPER     JKOP   

              2       3        0.64       700     1000     2100   
                                         GEOM     BASIS     RHF  

 PROGRAMS   *        TOTAL   CCSD(T)       RHF       INT
 CPU TIMES  *       102.29     98.81      2.07      1.37
 REAL TIME  *       105.20 SEC
 DISK USED  *       446.50 MB      
 GA USED    *         0.00 MB       (max)       0.00 MB       (current)
 **********************************************************************************************************************************

        CCSD(T)         RHF-SCF 
   -378.64664890   -377.58605285
 **********************************************************************************************************************************
 Variable memory released
