
 Primary working directories    : /tmp/1047041.600.gen6.q
 Secondary working directories  : /tmp/1047041.600.gen6.q
 Wavefunction directory         : /home/vulcan/mel64643/wfu/
 Main file repository           : /tmp/1047041.600.gen6.q/

 ARCHNAME  : Linux/x86_64
 FC        : /opt/intel/compilers_and_libraries_2016.1.150/linux/bin/intel64/ifort
 FCVERSION : 16.0.1
 BLASLIB   : -mkl
 id        : ccgc

 Nodes     nprocs
 n082         1
 ga_uses_ma=false, calling ma_init with nominal heap.
 GA-space will be limited to   8.0 MW (determined by -G option)

 Using customized tuning parameters: mindgm=10; mindgv=16; mindgc=4; mindgr=1; noblas=0; mincuda=1000; minvec=7
 default implementation of scratch files=df  

 ***,Optimization of ben_hcn
 memory,1000,m
 gthresh,energy=1.0d-12,orbital=1.0d-10,oneint=1.0d-16,twoint=1.0d-16,optgrad=1.0d-6,compress=1.0d-13
 geomtyp=xyz
 
 
 
 bohr
 geometry = {
  C   -1.8848802666    1.3688241507    2.2849673789
  C   -1.8576357219    2.6895407653   -0.0048998318
  C   -1.8747484002    1.3669528591   -2.2937697916
  C   -1.9190683726   -1.2761413935   -2.2926889335
  C   -1.9462991090   -2.5966753052   -0.0029522307
  C   -1.9291793529   -1.2742895677    2.2858258671
  H   -1.8657465139    2.3961566306    4.0631920386
  H   -1.8176013135    4.7400104652    0.0015902234
  H   -1.8477895472    2.3822277284   -4.0688288477
  H   -1.9258624913   -2.2978978103   -4.0608581039
  H   -1.9739295787   -4.6415257699   -0.0094002931
  H   -1.9438068646   -2.2926714088    4.0658829915
  N    6.6241508618   -0.1992150923    0.0070935443
  C    4.4344398010   -0.0762426862    0.0097007386
  H    2.4147581165    0.0374699827    0.0122457640
 }
 
 basis=aug-cc-pvdz, H=cc-pvdz
 {rhf;maxit,200}
 {ccsd(t)}

 Variables initialized (661), CPU time= 0.01 sec
 Commands  initialized (458), CPU time= 0.00 sec, 486 directives.
 Default parameters read. Elapsed time= 0.05 sec

 Checking input...
 Passed
1


                                         ***  PROGRAM SYSTEM MOLPRO  ***
                         Copyright, University College Cardiff Consultants Limited, 2008

                                    Version 2010.1 linked May 16 2016 07:17:05


 **********************************************************************************************************************************
 LABEL *   Optimization of ben_hcn                                                       
 Linux-4.4.3/n082(x86_64) 64 bit mpp version                                             DATE: 07-Mar-24          TIME: 21:17:22  
 **********************************************************************************************************************************

 SHA1:             9e8077add272b0f3cad6f7df79ec5211205f459d
 **********************************************************************************************************************************

 THRESHOLDS:

 ZERO    =  1.00D-12  ONEINT  =  1.00D-16  TWOINT  =  1.00D-16  PREFAC  =  1.00D-14  LOCALI  =  1.00D-09  EORDER  =  1.00D-04
 ENERGY  =  1.00D-12  ETEST   =  0.00D+00  EDENS   =  0.00D+00  THRDEDEF=  1.00D-06  GRADIENT=  1.00D-02  STEP    =  1.00D-03
 ORBITAL =  1.00D-10  CIVEC   =  1.00D-05  COEFF   =  1.00D-04  PRINTCI =  5.00D-02  PUNCHCI =  9.90D+01  OPTGRAD =  1.00D-06
 OPTENERG=  1.00D-06  OPTSTEP =  3.00D-04  THRGRAD =  1.00D-10  COMPRESS=  1.00D-13  VARMIN  =  1.00D-07  VARMAX  =  1.00D-03
 THRDOUB =  0.00D+00  THRDIV  =  1.00D-05  THRRED  =  1.00D-07  THRPSP  =  1.00D+00  THRDC   =  1.00D-10  THRCS   =  1.00D-10
 THRNRM  =  1.00D-08  THREQ   =  0.00D+00  THRDE   =  1.00D+00  THRREF  =  1.00D-05  SPARFAC =  1.00D+00  THRDLP  =  1.00D-07
 THRDIA  =  1.00D-10  THRDLS  =  1.00D-07  THRGPS  =  0.00D+00  THRKEX  =  0.00D+00  THRDIS  =  2.00D-01  THRVAR  =  1.00D-10
 THRLOC  =  1.00D-06  THRGAP  =  1.00D-06  THRLOCT = -1.00D+00  THRGAPT = -1.00D+00  THRORB  =  1.00D-06  THRMLTP =  0.00D+00
 THRCPQCI=  1.00D-10  KEXTA   =  0.00D+00  THRCOARS=  0.00D+00  SYMTOL  =  1.00D-06  GRADTOL =  1.00D-06  THROVL  =  1.00D-08
 THRORTH =  1.00D-08  GRID    =  1.00D-06  GRIDMAX =  1.00D-03  DTMAX   =  0.00D+00

 SETTING GEOMTYP        =    XYZ
 ZUNIT=BOHR
 

 Variable memory set to 1000000000 words,  buffer space   230000 words

 SETTING BASIS          =    AUG-CC-PVDZ,H=CC-PVDZ


 Recomputing integrals since basis changed


 Using spherical harmonics

 Library entry C      S aug-cc-pVDZ          selected for orbital group  1
 Library entry C      P aug-cc-pVDZ          selected for orbital group  1
 Library entry C      D aug-cc-pVDZ          selected for orbital group  1
 Library entry H      S cc-pVDZ              selected for orbital group  2
 Library entry H      P cc-pVDZ              selected for orbital group  2
 Library entry N      S aug-cc-pVDZ          selected for orbital group  3
 Library entry N      P aug-cc-pVDZ          selected for orbital group  3
 Library entry N      D aug-cc-pVDZ          selected for orbital group  3

1PROGRAM * SEWARD (Integral evaluation for generally contracted gaussian basis sets)     Author: Roland Lindh, 1990

 Geometry written to block  1 of record 700


 Point group  C1  



 ATOMIC COORDINATES

 NR  ATOM    CHARGE       X              Y              Z

   1  C       6.00   -1.884880267    1.368824151    2.284967379
   2  C       6.00   -1.857635722    2.689540765   -0.004899832
   3  C       6.00   -1.874748400    1.366952859   -2.293769792
   4  C       6.00   -1.919068373   -1.276141394   -2.292688934
   5  C       6.00   -1.946299109   -2.596675305   -0.002952231
   6  C       6.00   -1.929179353   -1.274289568    2.285825867
   7  H       1.00   -1.865746514    2.396156631    4.063192039
   8  H       1.00   -1.817601313    4.740010465    0.001590223
   9  H       1.00   -1.847789547    2.382227728   -4.068828848
  10  H       1.00   -1.925862491   -2.297897810   -4.060858104
  11  H       1.00   -1.973929579   -4.641525770   -0.009400293
  12  H       1.00   -1.943806865   -2.292671409    4.065882991
  13  N       7.00    6.624150862   -0.199215092    0.007093544
  14  C       6.00    4.434439801   -0.076242686    0.009700739
  15  H       1.00    2.414758116    0.037469983    0.012245764

 Bond lengths in Bohr (Angstrom)

 1-2  2.643582131  1-6  2.643485062  1-7  2.053743184  2-3  2.643569047  2-8  2.050870758
     ( 1.398923414)     ( 1.398872047)     ( 1.086794086)     ( 1.398916490)     ( 1.085274064)

  3- 4  2.643466031   3- 9  2.045078114   4- 5  2.643377668   4-10  2.042169080   5- 6  2.643388414
       ( 1.398861976)       ( 1.082208729)       ( 1.398815216)       ( 1.080669334)       ( 1.398820903)

  5-11  2.045047296   6-12  2.050833710  13-14  2.193162908  14-15  2.022881893
       ( 1.082192420)       ( 1.085254459)       ( 1.160571826)       ( 1.070462995)

 Bond angles

  1- 2- 3  119.99746549   1- 2- 8  119.79880922   1- 6- 5  120.00123549   1- 6-12  119.79520439

  2-1-6  119.99850417   2-1-7  119.99930035   2-3-4  119.99920944   2-3-9  120.20181967

  3- 2- 8  120.20347503   3- 4- 5  120.00130473   3- 4-10  119.99737974   4- 3- 9  119.79868541

  4- 5- 6  120.00228067   4- 5-11  119.79663509   5- 4-10  120.00098991   5- 6-12  120.20324188

  6- 1- 7  120.00192398   6- 5-11  120.20073267  13-14-15  179.99091354

 NUCLEAR CHARGE:                   56
 NUMBER OF PRIMITIVE AOS:         345
 NUMBER OF SYMMETRY AOS:          329
 NUMBER OF CONTRACTIONS:          219   ( 219A   )
 NUMBER OF CORE ORBITALS:           8   (   8A   )
 NUMBER OF VALENCE ORBITALS:       39   (  39A   )


 NUCLEAR REPULSION ENERGY  303.39347816


 Eigenvalues of metric

         1 0.864E-05 0.186E-04 0.229E-04 0.534E-04 0.628E-04 0.633E-04 0.929E-04 0.930E-04


 Contracted 2-electron integrals neglected if value below      1.0D-16
 AO integral compression algorithm  1   Integral accuracy      1.0D-16

     2340.684 MB (compressed) written to integral file ( 91.2%)

     Node minimum: 2340.684 MB, node maximum: 2340.684 MB


 NUMBER OF SORTED TWO-ELECTRON INTEGRALS:  290176095.     BUFFER LENGTH:  32768
 NUMBER OF SEGMENTS:  19  SEGMENT LENGTH:   15999762      RECORD LENGTH: 524288

 Memory used in sort:      16.56 MW

 SORT1 READ   320642736. AND WROTE   287604338. INTEGRALS IN    832 RECORDS. CPU TIME:     2.92 SEC, REAL TIME:     4.69 SEC
 SORT2 READ   287604338. AND WROTE   290176095. INTEGRALS IN   8929 RECORDS. CPU TIME:     2.00 SEC, REAL TIME:     3.04 SEC

 FILE SIZES:   FILE 1:  2151.6 MBYTE,  FILE 4:  3489.7 MBYTE,   TOTAL:   5641.3 MBYTE

 OPERATOR DM      FOR CENTER  0  COORDINATES:    0.000000    0.000000    0.000000


 **********************************************************************************************************************************
 DATASETS  * FILE   NREC   LENGTH (MB)   RECORD NAMES
              1      19     2152.15       500      610      700      900      950      970     1000      129      960     1100   
                                          VAR    BASINP    GEOM    SYMINP    ZMAT    AOBASIS   BASIS     P2S    ABASIS      S 
                                         1400     1410     1200     1210     1080     1600     1650     1300     1700   
                                           T        V       H0       H01     AOSYM     SMH    MOLCAS    ERIS     OPER   

 PROGRAMS   *        TOTAL       INT
 CPU TIMES  *        15.78     15.74
 REAL TIME  *        20.23 SEC
 DISK USED  *         7.98 GB      
 GA USED    *         0.01 MB       (max)       0.00 MB       (current)
 **********************************************************************************************************************************

1PROGRAM * RHF-SCF (CLOSED SHELL)       Authors: W. Meyer, H.-J. Werner


 NUMBER OF ELECTRONS:      28+   28-    SPACE SYMMETRY=1    SPIN SYMMETRY: Singlet 
 CONVERGENCE THRESHOLDS:    1.00E-10 (Density)    1.00E-13 (Energy)
 MAX. NUMBER OF ITERATIONS:      200
 INTERPOLATION TYPE:            DIIS
 INTERPOLATION STEPS:              2 (START)      1 (STEP)
 LEVEL SHIFTS:                  0.00 (CLOSED)  0.00 (OPEN) 



 Orbital guess generated from atomic densities. Full valence occupancy:   47

 Molecular orbital dump at record        2100.2

 ITERATION    DDIFF          GRAD             ENERGY        2-EL.EN.            DIPOLE MOMENTS         DIIS
    1      0.000D+00      0.000D+00      -323.54135814    822.123768   -1.89876    0.10662    0.00908    0
    2      0.000D+00      0.292D-02      -323.59779849    819.103361   -1.36879    0.04799   -0.00390    1
    3      0.781D-02      0.179D-02      -323.61439490    820.248510   -1.72961    0.07866    0.00004    2
    4      0.260D-02      0.576D-03      -323.61673128    820.450205   -1.63888    0.07121   -0.00067    3
    5      0.963D-03      0.133D-03      -323.61686062    820.190222   -1.66282    0.07165   -0.00116    4
    6      0.223D-03      0.229D-04      -323.61686675    820.217080   -1.66417    0.07166   -0.00109    5
    7      0.845D-04      0.434D-05      -323.61686695    820.212205   -1.66452    0.07154   -0.00117    6
    8      0.108D-04      0.124D-05      -323.61686696    820.213185   -1.66483    0.07163   -0.00111    7
    9      0.345D-05      0.281D-06      -323.61686696    820.213233   -1.66480    0.07156   -0.00115    6
   10      0.823D-06      0.102D-06      -323.61686696    820.213200   -1.66480    0.07160   -0.00113    6
   11      0.206D-06      0.409D-07      -323.61686696    820.213221   -1.66481    0.07159   -0.00113    7
   12      0.105D-06      0.867D-08      -323.61686696    820.213212   -1.66480    0.07159   -0.00113    7
   13      0.270D-07      0.350D-08      -323.61686696    820.213217   -1.66480    0.07159   -0.00113    7
   14      0.805D-08      0.103D-08      -323.61686696    820.213215   -1.66480    0.07159   -0.00113    8
   15      0.227D-08      0.185D-09      -323.61686696    820.213216   -1.66480    0.07159   -0.00113    8
   16      0.744D-09      0.777D-10      -323.61686696    820.213216   -1.66480    0.07159   -0.00113    7
   17      0.342D-09      0.351D-10      -323.61686696    820.213216   -1.66480    0.07159   -0.00113    7
   18      0.138D-09      0.180D-10      -323.61686696    820.213216   -1.66480    0.07159   -0.00113    8
   19      0.174D-09      0.772D-11      -323.61686696    820.213216   -1.66480    0.07159   -0.00113    8
   20      0.260D-09      0.310D-11      -323.61686696    820.213216   -1.66480    0.07159   -0.00113    9
   21      0.144D-09      0.987D-12      -323.61686696    820.213216   -1.66480    0.07159   -0.00113    9
   22      0.169D-09      0.667D-12      -323.61686696    820.213216   -1.66480    0.07159   -0.00113    9
   23      0.691D-10      0.765D-12      -323.61686696    820.213216   -1.66480    0.07159   -0.00113    9
   24      0.822D-10      0.488D-12      -323.61686696    820.213216   -1.66480    0.07159   -0.00113    9
   25      0.290D-10      0.427D-12      -323.61686696    820.213216   -1.66480    0.07159   -0.00113    9
   26      0.238D-10      0.582D-12      -323.61686696    820.213216   -1.66480    0.07159   -0.00113    9
   27      0.205D-10      0.447D-12      -323.61686696    820.213216   -1.66480    0.07159   -0.00113    9
   28      0.213D-10      0.421D-12      -323.61686696    820.213216   -1.66480    0.07159   -0.00113    9
   29      0.114D-10      0.410D-12      -323.61686696    820.213216   -1.66480    0.07159   -0.00113    9
   30      0.120D-10      0.515D-12      -323.61686696    820.213216   -1.66480    0.07159   -0.00113    9
   31      0.156D-10      0.457D-12      -323.61686696    820.213216   -1.66480    0.07159   -0.00113    9
   32      0.211D-10      0.425D-12      -323.61686696    820.213216   -1.66480    0.07159   -0.00113    9
   33      0.128D-10      0.481D-12      -323.61686696    820.213216   -1.66480    0.07159   -0.00113    9
   34      0.107D-10      0.497D-12      -323.61686696    820.213216   -1.66480    0.07159   -0.00113    9
   35      0.152D-10      0.506D-12      -323.61686696    820.213216   -1.66480    0.07159   -0.00113    9
   36      0.172D-10      0.450D-12      -323.61686696    820.213216   -1.66480    0.07159   -0.00113    9
   37      0.237D-10      0.449D-12      -323.61686696    820.213216   -1.66480    0.07159   -0.00113    9
   38      0.169D-10      0.469D-12      -323.61686696    820.213216   -1.66480    0.07159   -0.00113    9
   39      0.210D-10      0.432D-12      -323.61686696    820.213216   -1.66480    0.07159   -0.00113    9
   40      0.162D-10      0.445D-12      -323.61686696    820.213216   -1.66480    0.07159   -0.00113    9
   41      0.141D-10      0.426D-12      -323.61686696    820.213216   -1.66480    0.07159   -0.00113    9
   42      0.126D-10      0.424D-12      -323.61686696    820.213216   -1.66480    0.07159   -0.00113    9
   43      0.938D-11      0.432D-12      -323.61686696    820.213216   -1.66480    0.07159   -0.00113    9
   44      0.164D-10      0.448D-12      -323.61686696    820.213216   -1.66480    0.07159   -0.00113    9
   45      0.141D-10      0.421D-12      -323.61686696    820.213216   -1.66480    0.07159   -0.00113    9
   46      0.163D-10      0.381D-12      -323.61686696    820.213216   -1.66480    0.07159   -0.00113    9
   47      0.146D-10      0.452D-12      -323.61686696    820.213216   -1.66480    0.07159   -0.00113    9
   48      0.141D-10      0.438D-12      -323.61686696    820.213216   -1.66480    0.07159   -0.00113    9
   49      0.938D-11      0.374D-12      -323.61686696    820.213216   -1.66480    0.07159   -0.00113    9
   50      0.134D-10      0.430D-12      -323.61686696    820.213216   -1.66480    0.07159   -0.00113    9
   51      0.833D-11      0.434D-12      -323.61686696    820.213216   -1.66480    0.07159   -0.00113    9
   52      0.105D-10      0.384D-12      -323.61686696    820.213216   -1.66480    0.07159   -0.00113    9
   53      0.167D-10      0.476D-12      -323.61686696    820.213216   -1.66480    0.07159   -0.00113    9
   54      0.116D-10      0.395D-12      -323.61686696    820.213216   -1.66480    0.07159   -0.00113    9
   55      0.861D-11      0.397D-12      -323.61686696    820.213216   -1.66480    0.07159   -0.00113    9
   56      0.191D-10      0.509D-12      -323.61686696    820.213216   -1.66480    0.07159   -0.00113    9
   57      0.164D-10      0.416D-12      -323.61686696    820.213216   -1.66480    0.07159   -0.00113    9
   58      0.152D-10      0.423D-12      -323.61686696    820.213216   -1.66480    0.07159   -0.00113    9
   59      0.183D-10      0.422D-12      -323.61686696    820.213216   -1.66480    0.07159   -0.00113    9
   60      0.174D-10      0.434D-12      -323.61686696    820.213216   -1.66480    0.07159   -0.00113    9
   61      0.167D-10      0.423D-12      -323.61686696    820.213216   -1.66480    0.07159   -0.00113    9
   62      0.161D-10      0.507D-12      -323.61686696    820.213216   -1.66480    0.07159   -0.00113    9
   63      0.107D-10      0.458D-12      -323.61686696    820.213216   -1.66480    0.07159   -0.00113    9
   64      0.101D-10      0.419D-12      -323.61686696    820.213216   -1.66480    0.07159   -0.00113    9
   65      0.167D-10      0.522D-12      -323.61686696    820.213216   -1.66480    0.07159   -0.00113    9
   66      0.106D-10      0.403D-12      -323.61686696    820.213216   -1.66480    0.07159   -0.00113    9
   67      0.168D-10      0.454D-12      -323.61686696    820.213216   -1.66480    0.07159   -0.00113    9
   68      0.141D-10      0.450D-12      -323.61686696    820.213216   -1.66480    0.07159   -0.00113    9
   69      0.148D-10      0.419D-12      -323.61686696    820.213216   -1.66480    0.07159   -0.00113    9
   70      0.233D-10      0.464D-12      -323.61686696    820.213216   -1.66480    0.07159   -0.00113    9
   71      0.237D-10      0.436D-12      -323.61686696    820.213216   -1.66480    0.07159   -0.00113    9
   72      0.676D-11      0.385D-12      -323.61686696    820.213216   -1.66480    0.07159   -0.00113    9
   73      0.100D-10      0.463D-12      -323.61686696    820.213216   -1.66480    0.07159   -0.00113    9
   74      0.118D-10      0.372D-12      -323.61686696    820.213216   -1.66480    0.07159   -0.00113    9
   75      0.915D-11      0.424D-12      -323.61686696    820.213216   -1.66480    0.07159   -0.00113    9
   76      0.185D-10      0.460D-12      -323.61686696    820.213216   -1.66480    0.07159   -0.00113    9
   77      0.152D-10      0.438D-12      -323.61686696    820.213216   -1.66480    0.07159   -0.00113    9
   78      0.117D-10      0.483D-12      -323.61686696    820.213216   -1.66480    0.07159   -0.00113    9
   79      0.191D-10      0.496D-12      -323.61686696    820.213216   -1.66480    0.07159   -0.00113    9
   80      0.110D-10      0.450D-12      -323.61686696    820.213216   -1.66480    0.07159   -0.00113    0

 Final occupancy:  28

 !RHF STATE 1.1 Energy               -323.616866963971
 Nuclear energy                       303.39347816
 One-electron energy                -1037.11695289
 Two-electron energy                  410.10660776
 Virial quotient                       -1.00170982
 !RHF STATE 1.1 Dipole moment          -1.66480233     0.07159442    -0.00113420
 Dipole moment /Debye                  -4.23122830     0.18196296    -0.00288267

 Orbital energies:

         1.1          2.1          3.1          4.1          5.1          6.1          7.1          8.1          9.1         10.1
    -15.591649   -11.283865   -11.266359   -11.265763   -11.265591   -11.264577   -11.264507   -11.263806    -1.218335    -1.173918

        11.1         12.1         13.1         14.1         15.1         16.1         17.1         18.1         19.1         20.1
     -1.037879    -1.037698    -0.845989    -0.845453    -0.789909    -0.729362    -0.664877    -0.639200    -0.608557    -0.608555

        21.1         22.1         23.1         24.1         25.1         26.1         27.1         28.1         29.1         30.1
     -0.565229    -0.520375    -0.515192    -0.514510    -0.475691    -0.475686    -0.359671    -0.359663     0.055870     0.060059


 **********************************************************************************************************************************
 DATASETS  * FILE   NREC   LENGTH (MB)   RECORD NAMES
              1      19     2152.15       500      610      700      900      950      970     1000      129      960     1100   
                                          VAR    BASINP    GEOM    SYMINP    ZMAT    AOBASIS   BASIS     P2S    ABASIS      S 
                                         1400     1410     1200     1210     1080     1600     1650     1300     1700   
                                           T        V       H0       H01     AOSYM     SMH    MOLCAS    ERIS     OPER   

              2       3        1.49       700     1000     2100   
                                         GEOM     BASIS     RHF  

 PROGRAMS   *        TOTAL       RHF       INT
 CPU TIMES  *       167.45    151.67     15.74
 REAL TIME  *       187.34 SEC
 DISK USED  *         7.98 GB      
 GA USED    *         0.01 MB       (max)       0.00 MB       (current)
 **********************************************************************************************************************************


1PROGRAM * CCSD (Closed-shell coupled cluster)     Authors: C. Hampel, H.-J. Werner, 1991, M. Deegan, P.J. Knowles, 1992


 Convergence thresholds:  THRVAR = 1.00D-08  THRDEN = 1.00D-12

 CCSD(T)     terms to be evaluated (factor= 1.000)


 Number of core orbitals:           8 (   8 )
 Number of closed-shell orbitals:  20 (  20 )
 Number of external orbitals:     191 ( 191 )

 Molecular orbitals read from record     2100.2  Type=RHF/CANONICAL (state 1.1)

 Number of N-1 electron functions:              20
 Number of N-2 electron functions:             210
 Number of singly external CSFs:              3820
 Number of doubly external CSFs:           7298110
 Total number of CSFs:                     7301931

 Length of J-op  integral file:               0.00 MB
 Length of K-op  integral file:               3.32 MB
 Length of 3-ext integral record:             0.00 MB

 Memory could be reduced to 174.82 Mwords without degradation in triples

 Integral transformation finished. Total CPU:  14.11 sec, npass=  1  Memory used: 128.13 MW

 Reference energy:                   -323.61686696

 MP2 singlet pair energy:              -0.67334339
 MP2 triplet pair energy:              -0.43519832
 MP2 correlation energy:               -1.10854171
 MP2 total energy:                   -324.72540868

 SCS-MP2 correlation energy:           -1.07880214   (PS=  1.200000  PT=  0.333333)
 SCS-MP2 total energy:               -324.69566910

 ITER.      SQ.NORM     CORR.ENERGY   TOTAL ENERGY   ENERGY CHANGE        DEN1      VAR(S)    VAR(P)  DIIS     TIME
   1      1.42873360    -1.14462380  -324.76149077    -0.03608209    -0.00288968  0.51D-02  0.99D-02  1  1    60.47
   2      1.46305611    -1.15049729  -324.76736425    -0.00587349    -0.03103153  0.83D-04  0.13D-02  2  2   107.12
   3      1.47634791    -1.15094499  -324.76781196    -0.00044770    -0.00655953  0.40D-04  0.12D-03  3  3   153.81
   4      1.48204015    -1.15119468  -324.76806165    -0.00024969    -0.00178587  0.22D-05  0.15D-04  4  4   200.50
   5      1.48356946    -1.15123038  -324.76809734    -0.00003570    -0.00036586  0.25D-06  0.14D-05  5  5   247.23
   6      1.48387564    -1.15122186  -324.76808883     0.00000852    -0.00005025  0.24D-07  0.91D-07  6  6   293.97
   7      1.48391042    -1.15122527  -324.76809224    -0.00000341    -0.00000225  0.34D-08  0.80D-08  6  2   340.69
   8      1.48391509    -1.15122563  -324.76809259    -0.00000036    -0.00000042  0.41D-09  0.83D-09  6  1   387.40
   9      1.48391532    -1.15122580  -324.76809276    -0.00000017     0.00000079  0.63D-10  0.78D-10  6  3   434.14
  10      1.48391569    -1.15122586  -324.76809282    -0.00000006     0.00000002  0.10D-10  0.99D-11  6  4   480.87
  11      1.48391542    -1.15122589  -324.76809286    -0.00000004     0.00000022  0.16D-11  0.14D-11  6  5   527.61
  12      1.48391525    -1.15122590  -324.76809287    -0.00000001     0.00000008  0.25D-12  0.27D-12  6  6   574.32
  13      1.48391512    -1.15122591  -324.76809287    -0.00000000     0.00000005  0.14D-13  0.52D-13  6  2   621.06
  14      1.48391506    -1.15122591  -324.76809287    -0.00000000     0.00000002  0.22D-14  0.94D-14  6  1   667.79
  15      1.48391503    -1.15122591  -324.76809287     0.00000000     0.00000001  0.46D-15  0.13D-14  6  3   714.54
  16      1.48391502    -1.15122591  -324.76809287    -0.00000000     0.00000000  0.98D-16  0.19D-15  6  4   761.25
  17      1.48391502    -1.15122591  -324.76809287    -0.00000000     0.00000000  0.19D-16  0.28D-16  6  5   807.97
  18      1.48391501    -1.15122591  -324.76809287    -0.00000000     0.00000000  0.36D-17  0.36D-17  6  6   854.70
  19      1.48391501    -1.15122591  -324.76809287    -0.00000000     0.00000000  0.83D-18  0.61D-18  6  2   901.40
  20      1.48391501    -1.15122591  -324.76809287    -0.00000000     0.00000000  0.19D-18  0.13D-18  6  1   948.11
  21      1.48391501    -1.15122591  -324.76809287    -0.00000000     0.00000000  0.66D-19  0.39D-19  6  3   994.84
  22      1.48391501    -1.15122591  -324.76809287     0.00000000     0.00000000  0.30D-19  0.18D-19  6  4  1041.59

 Norm of t1 vector:      0.09773667      S-energy:     0.00000000      T1 diagnostic:  0.01092729
                                                                       D1 diagnostic:  0.02771759

 Doubles amplitudes (print threshold =  0.500E-01):

         I         J         SYM. A    SYM. B    A         B      T(IJ, AB)

        19        19         1         1         7         7     -0.05831460
        20        20         1         1         8         8     -0.05827745


 Total CPU time for triples:   1000.99 sec


 RESULTS
 =======

  Reference energy                   -323.616866963970
  CCSD singlet pair energy             -0.770020484824
  CCSD triplet pair energy             -0.381205424404
  CCSD correlation energy              -1.151225909228

  Triples (T) contribution             -0.054015646707
  Total correlation energy             -1.205241555935

  CCSD total energy                  -324.768092873198
  CCSD[T] energy                     -324.823440838640
  CCSD-T energy                      -324.821503039445
 !CCSD(T) total energy               -324.822108519905

 Timing summary (sec):

 STEP                 CPU(USER)    SYS     CPU(TOT)    WALL
 Transformation         14.57      1.00     15.57     15.61
 CCSD iterations      1027.03     13.58   1040.61   1040.81
 Triples              1000.99     13.93   1014.92   1015.04

 Program statistics:

 Available memory in ccsd:               999998300
 Min. memory needed in ccsd:              17709720
 Max. memory used in ccsd:                24415330
 Max. memory used in cckext:              20754978 (22 integral passes)



 **********************************************************************************************************************************
 DATASETS  * FILE   NREC   LENGTH (MB)   RECORD NAMES
              1      20     2834.32       500      610      700      900      950      970     1000      129      960     1100   
                                          VAR    BASINP    GEOM    SYMINP    ZMAT    AOBASIS   BASIS     P2S    ABASIS      S 
                                         1400     1410     1200     1210     1080     1600     1650     1300     1700     1380   
                                           T        V       H0       H01     AOSYM     SMH    MOLCAS    ERIS     OPER     JKOP   

              2       3        1.49       700     1000     2100   
                                         GEOM     BASIS     RHF  

 PROGRAMS   *        TOTAL   CCSD(T)       RHF       INT
 CPU TIMES  *      2210.05   2042.60    151.67     15.74
 REAL TIME  *      2258.93 SEC
 DISK USED  *         7.98 GB      
 GA USED    *         0.01 MB       (max)       0.00 MB       (current)
 **********************************************************************************************************************************

        CCSD(T)         RHF-SCF 
   -324.82210852   -323.61686696
 **********************************************************************************************************************************
 Variable memory released
