
 Primary working directories    : /tmp/943217.267.gen5.q
 Secondary working directories  : /tmp/943217.267.gen5.q
 Wavefunction directory         : /home/vulcan/mel64643/wfu/
 Main file repository           : /tmp/943217.267.gen5.q/

 ARCHNAME  : Linux/x86_64
 FC        : /opt/intel/compilers_and_libraries_2016.1.150/linux/bin/intel64/ifort
 FCVERSION : 16.0.1
 BLASLIB   : -mkl
 id        : ccgc

 Nodes     nprocs
 n070         1
 ga_uses_ma=false, calling ma_init with nominal heap.
 GA-space will be limited to   8.0 MW (determined by -G option)

 Using customized tuning parameters: mindgm=10; mindgv=16; mindgc=4; mindgr=1; noblas=0; mincuda=1000; minvec=7
 default implementation of scratch files=df  

 ***,Optimization of formic acid
 memory,1000,m
 gthresh,energy=1.0d-12,orbital=1.0d-10,oneint=1.0d-16,twoint=1.0d-16,optgrad=1.0d-6,compress=1.0d-13
 geomtyp=xyz
 
 bohr
 geometry = {
  C   -3.5079860360   -0.8317565810   -0.0000000000
  O   -3.0940294543    1.6204116529    0.0000000000
  O   -1.8862841446   -2.4758409177   -0.0000000000
  H   -5.5201433784   -1.2736549187   -0.0000000000
  H   -1.2408335023    1.9459525853    0.0000000000
  C    3.5079860360    0.8317565810   -0.0000000000
  O    3.0940294543   -1.6204116529    0.0000000000
  O    1.8862841446    2.4758409177   -0.0000000000
  H    5.5201433784    1.2736549187   -0.0000000000
  H    1.2408335023   -1.9459525853    0.0000000000
 }
 
 basis=VDZ
 {rhf;maxit,200}
 {ccsd(t);maxit,200}

 Variables initialized (661), CPU time= 0.00 sec
 Commands  initialized (458), CPU time= 0.01 sec, 486 directives.
 Default parameters read. Elapsed time= 0.11 sec

 Checking input...
 Passed
1


                                         ***  PROGRAM SYSTEM MOLPRO  ***
                         Copyright, University College Cardiff Consultants Limited, 2008

                                    Version 2010.1 linked May 16 2016 07:17:05


 **********************************************************************************************************************************
 LABEL *   Optimization of formic acid                                                   
 Linux-4.4.3/n070(x86_64) 64 bit mpp version                                             DATE: 24-Oct-23          TIME: 11:16:07  
 **********************************************************************************************************************************

 SHA1:             9e8077add272b0f3cad6f7df79ec5211205f459d
 **********************************************************************************************************************************

 THRESHOLDS:

 ZERO    =  1.00D-12  ONEINT  =  1.00D-16  TWOINT  =  1.00D-16  PREFAC  =  1.00D-14  LOCALI  =  1.00D-09  EORDER  =  1.00D-04
 ENERGY  =  1.00D-12  ETEST   =  0.00D+00  EDENS   =  0.00D+00  THRDEDEF=  1.00D-06  GRADIENT=  1.00D-02  STEP    =  1.00D-03
 ORBITAL =  1.00D-10  CIVEC   =  1.00D-05  COEFF   =  1.00D-04  PRINTCI =  5.00D-02  PUNCHCI =  9.90D+01  OPTGRAD =  1.00D-06
 OPTENERG=  1.00D-06  OPTSTEP =  3.00D-04  THRGRAD =  1.00D-10  COMPRESS=  1.00D-13  VARMIN  =  1.00D-07  VARMAX  =  1.00D-03
 THRDOUB =  0.00D+00  THRDIV  =  1.00D-05  THRRED  =  1.00D-07  THRPSP  =  1.00D+00  THRDC   =  1.00D-10  THRCS   =  1.00D-10
 THRNRM  =  1.00D-08  THREQ   =  0.00D+00  THRDE   =  1.00D+00  THRREF  =  1.00D-05  SPARFAC =  1.00D+00  THRDLP  =  1.00D-07
 THRDIA  =  1.00D-10  THRDLS  =  1.00D-07  THRGPS  =  0.00D+00  THRKEX  =  0.00D+00  THRDIS  =  2.00D-01  THRVAR  =  1.00D-10
 THRLOC  =  1.00D-06  THRGAP  =  1.00D-06  THRLOCT = -1.00D+00  THRGAPT = -1.00D+00  THRORB  =  1.00D-06  THRMLTP =  0.00D+00
 THRCPQCI=  1.00D-10  KEXTA   =  0.00D+00  THRCOARS=  0.00D+00  SYMTOL  =  1.00D-06  GRADTOL =  1.00D-06  THROVL  =  1.00D-08
 THRORTH =  1.00D-08  GRID    =  1.00D-06  GRIDMAX =  1.00D-03  DTMAX   =  0.00D+00

 SETTING GEOMTYP        =    XYZ
 ZUNIT=BOHR
 

 Variable memory set to 1000000000 words,  buffer space   230000 words

 SETTING BASIS          =    VDZ


 Recomputing integrals since basis changed


 Using spherical harmonics

 Library entry C      S cc-pVDZ              selected for orbital group  1
 Library entry C      P cc-pVDZ              selected for orbital group  1
 Library entry C      D cc-pVDZ              selected for orbital group  1
 Library entry O      S cc-pVDZ              selected for orbital group  2
 Library entry O      P cc-pVDZ              selected for orbital group  2
 Library entry O      D cc-pVDZ              selected for orbital group  2
 Library entry H      S cc-pVDZ              selected for orbital group  3
 Library entry H      P cc-pVDZ              selected for orbital group  3

1PROGRAM * SEWARD (Integral evaluation for generally contracted gaussian basis sets)     Author: Roland Lindh, 1990

 Geometry written to block  1 of record 700


 Point group  C2h 



 ATOMIC COORDINATES

 NR  ATOM    CHARGE       X              Y              Z

   1  C       6.00   -3.507986036   -0.831756581    0.000000000
   2  C       6.00    3.507986036    0.831756581    0.000000000
   3  O       8.00   -3.094029454    1.620411653    0.000000000
   4  O       8.00    3.094029454   -1.620411653    0.000000000
   5  O       8.00   -1.886284145   -2.475840918    0.000000000
   6  O       8.00    1.886284145    2.475840918    0.000000000
   7  H       1.00   -5.520143378   -1.273654919    0.000000000
   8  H       1.00    5.520143378    1.273654919    0.000000000
   9  H       1.00   -1.240833502    1.945952585    0.000000000
  10  H       1.00    1.240833502   -1.945952585    0.000000000

 Bond lengths in Bohr (Angstrom)

 1-3  2.486863305  1-5  2.309313822  1-7  2.060109539  2-4  2.486863305  2-6  2.309313822
     ( 1.315991383)     ( 1.222036243)     ( 1.090163016)     ( 1.315991383)     ( 1.222036243)

  2- 8  2.060109539   3- 9  1.881571719   4-10  1.881571719
       ( 1.090163016)       ( 0.995684871)       ( 0.995684871)

 Bond angles

  1- 3- 9  109.54509197   2- 4-10  109.54509197   3- 1- 5  125.81077396   3- 1- 7  111.96823610

  4-2-6  125.81077396   4-2-8  111.96823610   5-1-7  122.22098994   6-2-8  122.22098994

 NUCLEAR CHARGE:                   48
 NUMBER OF PRIMITIVE AOS:         190
 NUMBER OF SYMMETRY AOS:          184
 NUMBER OF CONTRACTIONS:          104   (  38Ag  +  14Au  +  38Bu  +  14Bg  )
 NUMBER OF CORE ORBITALS:           6   (   3Ag  +   0Au  +   3Bu  +   0Bg  )
 NUMBER OF VALENCE ORBITALS:       28   (  11Ag  +   3Au  +  11Bu  +   3Bg  )


 NUCLEAR REPULSION ENERGY  235.60048125


 Eigenvalues of metric

         1 0.815E-02 0.138E-01 0.166E-01 0.298E-01 0.373E-01 0.441E-01 0.554E-01 0.934E-01
         2 0.115E+00 0.174E+00 0.194E+00 0.419E+00 0.479E+00 0.557E+00 0.674E+00 0.999E+00
         3 0.870E-02 0.141E-01 0.164E-01 0.306E-01 0.351E-01 0.439E-01 0.528E-01 0.963E-01
         4 0.116E+00 0.175E+00 0.191E+00 0.419E+00 0.477E+00 0.571E+00 0.652E+00 0.999E+00


 Contracted 2-electron integrals neglected if value below      1.0D-16
 AO integral compression algorithm  1   Integral accuracy      1.0D-16

     40.632 MB (compressed) written to integral file (100.0%)

     Node minimum: 40.632 MB, node maximum: 40.632 MB


 NUMBER OF SORTED TWO-ELECTRON INTEGRALS:    4024002.     BUFFER LENGTH:  32768
 NUMBER OF SEGMENTS:   1  SEGMENT LENGTH:    4024002      RECORD LENGTH: 524288

 Memory used in sort:       4.58 MW

 SORT1 READ     4964096. AND WROTE     4024002. INTEGRALS IN     12 RECORDS. CPU TIME:     0.09 SEC, REAL TIME:     0.12 SEC
 SORT2 READ     4024002. AND WROTE     4024002. INTEGRALS IN    155 RECORDS. CPU TIME:     0.07 SEC, REAL TIME:     0.11 SEC

 FILE SIZES:   FILE 1:    35.7 MBYTE,  FILE 4:    50.4 MBYTE,   TOTAL:     86.0 MBYTE

 OPERATOR DM      FOR CENTER  0  COORDINATES:    0.000000    0.000000    0.000000


 **********************************************************************************************************************************
 DATASETS  * FILE   NREC   LENGTH (MB)   RECORD NAMES
              1      19       35.70       500      610      700      900      950      970     1000      129      960     1100   
                                          VAR    BASINP    GEOM    SYMINP    ZMAT    AOBASIS   BASIS     P2S    ABASIS      S 
                                         1400     1410     1200     1210     1080     1600     1650     1300     1700   
                                           T        V       H0       H01     AOSYM     SMH    MOLCAS    ERIS     OPER   

 PROGRAMS   *        TOTAL       INT
 CPU TIMES  *         1.66      1.54
 REAL TIME  *         2.28 SEC
 DISK USED  *       127.45 MB      
 GA USED    *         0.00 MB       (max)       0.00 MB       (current)
 **********************************************************************************************************************************

1PROGRAM * RHF-SCF (CLOSED SHELL)       Authors: W. Meyer, H.-J. Werner


 NUMBER OF ELECTRONS:      24+   24-
 CONVERGENCE THRESHOLDS:    1.00E-10 (Density)    1.00E-13 (Energy)
 MAX. NUMBER OF ITERATIONS:      200
 INTERPOLATION TYPE:            DIIS
 INTERPOLATION STEPS:              2 (START)      1 (STEP)
 LEVEL SHIFTS:                  0.00 (CLOSED)  0.00 (OPEN) 



 Orbital guess generated from atomic densities. Full valence occupancy:   14   3  14   3

 Molecular orbital dump at record        2100.2

 Initial alpha occupancy:  10   2  10   2
 Initial beta  occupancy:  10   2  10   2
 Wave function symmetry:    1

 ITERATION    DDIFF          GRAD             ENERGY        2-EL.EN.            DIPOLE MOMENTS         DIIS
    1      0.000D+00      0.000D+00      -377.44996806    747.248732    0.00000    0.00000    0.00000    0
    2      0.000D+00      0.198D-01      -377.53774235    744.353948    0.00000    0.00000    0.00000    1
    3      0.391D-01      0.123D-01      -377.58433634    746.620175    0.00000    0.00000    0.00000    2
    4      0.142D-01      0.174D-02      -377.58582629    746.340713    0.00000    0.00000    0.00000    3
    5      0.278D-02      0.723D-03      -377.58608674    746.365975    0.00000    0.00000    0.00000    4
    6      0.114D-02      0.207D-03      -377.58613299    746.410170    0.00000    0.00000    0.00000    5
    7      0.397D-03      0.947D-04      -377.58614437    746.395058    0.00000    0.00000    0.00000    6
    8      0.238D-03      0.281D-04      -377.58614537    746.400249    0.00000    0.00000    0.00000    7
    9      0.741D-04      0.949D-05      -377.58614547    746.398800    0.00000    0.00000    0.00000    8
   10      0.256D-04      0.260D-05      -377.58614548    746.398970    0.00000    0.00000    0.00000    7
   11      0.724D-05      0.636D-06      -377.58614548    746.398915    0.00000    0.00000    0.00000    8
   12      0.169D-05      0.179D-06      -377.58614548    746.398937    0.00000    0.00000    0.00000    7
   13      0.466D-06      0.715D-07      -377.58614548    746.398925    0.00000    0.00000    0.00000    8
   14      0.135D-06      0.216D-07      -377.58614548    746.398927    0.00000    0.00000    0.00000    7
   15      0.555D-07      0.649D-08      -377.58614548    746.398927    0.00000    0.00000    0.00000    7
   16      0.115D-07      0.179D-08      -377.58614548    746.398927    0.00000    0.00000    0.00000    7
   17      0.365D-08      0.700D-09      -377.58614548    746.398927    0.00000    0.00000    0.00000    7
   18      0.138D-08      0.208D-09      -377.58614548    746.398927    0.00000    0.00000    0.00000    8
   19      0.508D-09      0.680D-10      -377.58614548    746.398927    0.00000    0.00000    0.00000    8
   20      0.168D-09      0.151D-10      -377.58614548    746.398927    0.00000    0.00000    0.00000    7
   21      0.403D-10      0.280D-11      -377.58614548    746.398927    0.00000    0.00000    0.00000    0

 Final occupancy:  10   2  10   2

 !RHF STATE 1.1 Energy               -377.586145482658
 Nuclear energy                       235.60048125
 One-electron energy                 -986.38609013
 Two-electron energy                  373.19946340
 Virial quotient                       -1.00119595
 !RHF STATE 1.1 Dipole moment           0.00000000     0.00000000     0.00000000
 Dipole moment /Debye                   0.00000000     0.00000000     0.00000000

 Orbital energies:

         1.1          2.1          3.1          4.1          5.1          6.1          7.1          8.1          9.1         10.1
    -20.613199   -20.575016   -11.411565    -1.482016    -1.368808    -0.914831    -0.728282    -0.688387    -0.615815    -0.489190

        11.1         12.1
      0.204272     0.291128

         1.2          2.2          3.2          4.2
     -0.638131    -0.487168     0.160826     0.632135

         1.3          2.3          3.3          4.3          5.3          6.3          7.3          8.3          9.3         10.3
    -20.613197   -20.575016   -11.411566    -1.469315    -1.382801    -0.878965    -0.763166    -0.719530    -0.573105    -0.468106

        11.3         12.3
      0.209785     0.315704

         1.4          2.4          3.4          4.4
     -0.628578    -0.497830     0.165915     0.658243


 **********************************************************************************************************************************
 DATASETS  * FILE   NREC   LENGTH (MB)   RECORD NAMES
              1      19       35.70       500      610      700      900      950      970     1000      129      960     1100   
                                          VAR    BASINP    GEOM    SYMINP    ZMAT    AOBASIS   BASIS     P2S    ABASIS      S 
                                         1400     1410     1200     1210     1080     1600     1650     1300     1700   
                                           T        V       H0       H01     AOSYM     SMH    MOLCAS    ERIS     OPER   

              2       3        0.49       700     1000     2100   
                                         GEOM     BASIS     RHF  

 PROGRAMS   *        TOTAL       RHF       INT
 CPU TIMES  *         1.95      0.29      1.54
 REAL TIME  *         2.68 SEC
 DISK USED  *       127.45 MB      
 GA USED    *         0.00 MB       (max)       0.00 MB       (current)
 **********************************************************************************************************************************


1PROGRAM * CCSD (Closed-shell coupled cluster)     Authors: C. Hampel, H.-J. Werner, 1991, M. Deegan, P.J. Knowles, 1992


 Convergence thresholds:  THRVAR = 1.00D-08  THRDEN = 1.00D-12

 CCSD(T)     terms to be evaluated (factor= 1.000)


 Number of core orbitals:           6 (   3   0   3   0 )
 Number of closed-shell orbitals:  18 (   7   2   7   2 )
 Number of external orbitals:      80 (  28  12  28  12 )

 Molecular orbitals read from record     2100.2  Type=RHF/CANONICAL (state 1.1)

 Number of N-1 electron functions:              18
 Number of N-2 electron functions:             171
 Number of singly external CSFs:               440
 Number of doubly external CSFs:            272720
 Total number of CSFs:                      273161

 Length of J-op  integral file:               0.00 MB
 Length of K-op  integral file:               0.26 MB
 Length of 3-ext integral record:             0.00 MB

 Memory could be reduced to 3.82 Mwords without degradation in triples

 Integral transformation finished. Total CPU:   0.14 sec, npass=  1  Memory used:   1.67 MW

 Reference energy:                   -377.58614548

 MP2 singlet pair energy:              -0.59888510
 MP2 triplet pair energy:              -0.40679660
 MP2 correlation energy:               -1.00568170
 MP2 total energy:                   -378.59182718

 SCS-MP2 correlation energy:           -0.97178001   (PS=  1.200000  PT=  0.333333)
 SCS-MP2 total energy:               -378.55792549

 ITER.      SQ.NORM     CORR.ENERGY   TOTAL ENERGY   ENERGY CHANGE        DEN1      VAR(S)    VAR(P)  DIIS     TIME
   1      1.28137328    -1.02593632  -378.61208180    -0.02025462     0.01045130  0.10D-01  0.55D-02  1  1     0.47
   2      1.30501190    -1.02782302  -378.61396850    -0.00188670    -0.02502429  0.25D-03  0.10D-02  2  2     0.82
   3      1.31801193    -1.02877107  -378.61491655    -0.00094806    -0.00594176  0.20D-03  0.42D-04  3  3     1.17
   4      1.32335334    -1.02853828  -378.61468376     0.00023279    -0.00174970  0.18D-04  0.71D-05  4  4     1.52
   5      1.32541877    -1.02844875  -378.61459424     0.00008953    -0.00045798  0.11D-05  0.68D-06  5  5     1.86
   6      1.32576215    -1.02842835  -378.61457383     0.00002041    -0.00001558  0.10D-06  0.60D-07  6  6     2.20
   7      1.32583075    -1.02842077  -378.61456625     0.00000758    -0.00000445  0.79D-08  0.88D-08  6  2     2.53
   8      1.32583397    -1.02842162  -378.61456710    -0.00000085     0.00000208  0.16D-08  0.89D-09  6  1     2.91
   9      1.32583475    -1.02842129  -378.61456678     0.00000033     0.00000091  0.33D-09  0.16D-09  6  4     3.25
  10      1.32583656    -1.02842114  -378.61456662     0.00000016    -0.00000062  0.93D-10  0.26D-10  6  3     3.58
  11      1.32583604    -1.02842126  -378.61456675    -0.00000012     0.00000025  0.21D-10  0.54D-11  6  5     3.91
  12      1.32583569    -1.02842128  -378.61456676    -0.00000002     0.00000005  0.27D-11  0.11D-11  6  6     4.25
  13      1.32583536    -1.02842132  -378.61456680    -0.00000004     0.00000013  0.30D-12  0.21D-12  6  1     4.58
  14      1.32583525    -1.02842133  -378.61456681    -0.00000000     0.00000002  0.28D-13  0.23D-13  6  2     4.91
  15      1.32583522    -1.02842133  -378.61456681    -0.00000000     0.00000001  0.59D-14  0.28D-14  6  4     5.24
  16      1.32583520    -1.02842133  -378.61456681    -0.00000000     0.00000000  0.84D-15  0.60D-15  6  5     5.58
  17      1.32583520    -1.02842133  -378.61456681    -0.00000000    -0.00000000  0.93D-16  0.52D-16  6  3     5.91
  18      1.32583520    -1.02842133  -378.61456681    -0.00000000     0.00000000  0.26D-16  0.13D-16  6  5     6.26
  19      1.32583520    -1.02842133  -378.61456681    -0.00000000     0.00000000  0.36D-17  0.18D-17  6  6     6.58
  20      1.32583520    -1.02842133  -378.61456681     0.00000000     0.00000000  0.63D-18  0.29D-18  6  1     6.92
  21      1.32583520    -1.02842133  -378.61456681    -0.00000000     0.00000000  0.15D-18  0.47D-19  6  2     7.26
  22      1.32583520    -1.02842133  -378.61456681     0.00000000    -0.00000000  0.34D-19  0.87D-20  6  4     7.59
  23      1.32583520    -1.02842133  -378.61456681     0.00000000    -0.00000000  0.52D-20  0.23D-20  6  3     7.92
  24      1.32583520    -1.02842133  -378.61456681     0.00000000    -0.00000000  0.64D-21  0.51D-21  6  6     8.26
  25      1.32583520    -1.02842133  -378.61456681     0.00000000    -0.00000000  0.10D-21  0.51D-22  6  5     8.59

 Norm of t1 vector:      0.15242112      S-energy:     0.00000000      T1 diagnostic:  0.01796300
                                                                       D1 diagnostic:  0.06497244

 Singles amplitudes (print threshold =  0.500E-01):

         I         SYM. A    A   T(IA)

         8         2         1      0.05946000
        17         4         1      0.06128541


 Total CPU time for triples:      4.91 sec


 RESULTS
 =======

  Reference energy                   -377.586145482658
  CCSD singlet pair energy             -0.670670217701
  CCSD triplet pair energy             -0.357751111174
  CCSD correlation energy              -1.028421328874

  Triples (T) contribution             -0.031870751015
  Total correlation energy             -1.060292079888

  CCSD total energy                  -378.614566811531
  CCSD[T] energy                     -378.649716364975
  CCSD-T energy                      -378.645360159605
 !CCSD(T) total energy               -378.646437562546

 Timing summary (sec):

 STEP                 CPU(USER)    SYS     CPU(TOT)    WALL
 Transformation          0.15      0.03      0.18      0.18
 CCSD iterations         8.44      0.51      8.95      9.01
 Triples                 4.91      0.14      5.05      5.05

 Program statistics:

 Available memory in ccsd:               999998604
 Min. memory needed in ccsd:                781956
 Max. memory used in ccsd:                 1028476
 Max. memory used in cckext:               1140120 (25 integral passes)



 **********************************************************************************************************************************
 DATASETS  * FILE   NREC   LENGTH (MB)   RECORD NAMES
              1      20       52.00       500      610      700      900      950      970     1000      129      960     1100   
                                          VAR    BASINP    GEOM    SYMINP    ZMAT    AOBASIS   BASIS     P2S    ABASIS      S 
                                         1400     1410     1200     1210     1080     1600     1650     1300     1700     1380   
                                           T        V       H0       H01     AOSYM     SMH    MOLCAS    ERIS     OPER     JKOP   

              2       3        0.49       700     1000     2100   
                                         GEOM     BASIS     RHF  

 PROGRAMS   *        TOTAL   CCSD(T)       RHF       INT
 CPU TIMES  *        15.46     13.51      0.29      1.54
 REAL TIME  *        16.96 SEC
 DISK USED  *       143.18 MB      
 GA USED    *         0.00 MB       (max)       0.00 MB       (current)
 **********************************************************************************************************************************

        CCSD(T)         RHF-SCF 
   -378.64643756   -377.58614548
 **********************************************************************************************************************************
 Variable memory released
