
 Primary working directories    : /tmp/1049102.167.gen6.q
 Secondary working directories  : /tmp/1049102.167.gen6.q
 Wavefunction directory         : /home/vulcan/mel64643/wfu/
 Main file repository           : /tmp/1049102.167.gen6.q/

 ARCHNAME  : Linux/x86_64
 FC        : /opt/intel/compilers_and_libraries_2016.1.150/linux/bin/intel64/ifort
 FCVERSION : 16.0.1
 BLASLIB   : -mkl
 id        : ccgc

 Nodes     nprocs
 n090         1
 ga_uses_ma=false, calling ma_init with nominal heap.
 GA-space will be limited to   8.0 MW (determined by -G option)

 Using customized tuning parameters: mindgm=10; mindgv=16; mindgc=4; mindgr=1; noblas=0; mincuda=1000; minvec=7
 default implementation of scratch files=df  

 ***,Optimization of h2o_3
 memory,1000,m
 gthresh,energy=1.0d-12,orbital=1.0d-10,oneint=1.0d-16,twoint=1.0d-16,optgrad=1.0d-6,compress=1.0d-13
 geomtyp=xyz
 
 
 
 bohr
 geometry = {
  C    0.9148049621    1.4074985958   -2.2717043874
  C    0.7390788773    2.7091989016    0.0162737185
  C    0.9981014288    1.4037557710    2.3037964607
  C    1.4304546606   -1.1994136891    2.2962843485
  C    1.6074513425   -2.5046499188    0.0012667163
  C    1.3492845406   -1.2030098258   -2.2789937882
  H    0.7052544877    2.4167497020   -4.0414848943
  H    0.3879705272    4.7267143258    0.0221477437
  H    0.8564508070    2.4137050253    4.0801340291
  H    1.6282730655   -2.2097271681    4.0672239068
  H    1.9410534102   -4.5256131625   -0.0046014597
  H    1.4838431266   -2.2135734869   -4.0558194318
  N   -5.4435792048   -0.3543483720   -0.0710652666
  H   -5.5887582656   -1.5690265507   -1.5491633454
  H   -6.0662834487   -1.3161331663    1.4678791640
  H   -3.5624684501   -0.0739165792    0.1979041625
 }
 
 basis=aug-cc-pvdz, H=cc-pvdz
 {rhf;maxit,200}
 {ccsd(t)}

 Variables initialized (661), CPU time= 0.00 sec
 Commands  initialized (458), CPU time= 0.01 sec, 486 directives.
 Default parameters read. Elapsed time= 0.05 sec

 Checking input...
 Passed
1


                                         ***  PROGRAM SYSTEM MOLPRO  ***
                         Copyright, University College Cardiff Consultants Limited, 2008

                                    Version 2010.1 linked May 16 2016 07:17:05


 **********************************************************************************************************************************
 LABEL *   Optimization of h2o_3                                                         
 Linux-4.4.3/n090(x86_64) 64 bit mpp version                                             DATE: 18-Mar-24          TIME: 18:08:21  
 **********************************************************************************************************************************

 SHA1:             9e8077add272b0f3cad6f7df79ec5211205f459d
 **********************************************************************************************************************************

 THRESHOLDS:

 ZERO    =  1.00D-12  ONEINT  =  1.00D-16  TWOINT  =  1.00D-16  PREFAC  =  1.00D-14  LOCALI  =  1.00D-09  EORDER  =  1.00D-04
 ENERGY  =  1.00D-12  ETEST   =  0.00D+00  EDENS   =  0.00D+00  THRDEDEF=  1.00D-06  GRADIENT=  1.00D-02  STEP    =  1.00D-03
 ORBITAL =  1.00D-10  CIVEC   =  1.00D-05  COEFF   =  1.00D-04  PRINTCI =  5.00D-02  PUNCHCI =  9.90D+01  OPTGRAD =  1.00D-06
 OPTENERG=  1.00D-06  OPTSTEP =  3.00D-04  THRGRAD =  1.00D-10  COMPRESS=  1.00D-13  VARMIN  =  1.00D-07  VARMAX  =  1.00D-03
 THRDOUB =  0.00D+00  THRDIV  =  1.00D-05  THRRED  =  1.00D-07  THRPSP  =  1.00D+00  THRDC   =  1.00D-10  THRCS   =  1.00D-10
 THRNRM  =  1.00D-08  THREQ   =  0.00D+00  THRDE   =  1.00D+00  THRREF  =  1.00D-05  SPARFAC =  1.00D+00  THRDLP  =  1.00D-07
 THRDIA  =  1.00D-10  THRDLS  =  1.00D-07  THRGPS  =  0.00D+00  THRKEX  =  0.00D+00  THRDIS  =  2.00D-01  THRVAR  =  1.00D-10
 THRLOC  =  1.00D-06  THRGAP  =  1.00D-06  THRLOCT = -1.00D+00  THRGAPT = -1.00D+00  THRORB  =  1.00D-06  THRMLTP =  0.00D+00
 THRCPQCI=  1.00D-10  KEXTA   =  0.00D+00  THRCOARS=  0.00D+00  SYMTOL  =  1.00D-06  GRADTOL =  1.00D-06  THROVL  =  1.00D-08
 THRORTH =  1.00D-08  GRID    =  1.00D-06  GRIDMAX =  1.00D-03  DTMAX   =  0.00D+00

 SETTING GEOMTYP        =    XYZ
 ZUNIT=BOHR
 

 Variable memory set to 1000000000 words,  buffer space   230000 words

 SETTING BASIS          =    AUG-CC-PVDZ,H=CC-PVDZ


 Recomputing integrals since basis changed


 Using spherical harmonics

 Library entry C      S aug-cc-pVDZ          selected for orbital group  1
 Library entry C      P aug-cc-pVDZ          selected for orbital group  1
 Library entry C      D aug-cc-pVDZ          selected for orbital group  1
 Library entry H      S cc-pVDZ              selected for orbital group  2
 Library entry H      P cc-pVDZ              selected for orbital group  2
 Library entry N      S aug-cc-pVDZ          selected for orbital group  3
 Library entry N      P aug-cc-pVDZ          selected for orbital group  3
 Library entry N      D aug-cc-pVDZ          selected for orbital group  3

1PROGRAM * SEWARD (Integral evaluation for generally contracted gaussian basis sets)     Author: Roland Lindh, 1990

 Geometry written to block  1 of record 700


 Point group  C1  



 ATOMIC COORDINATES

 NR  ATOM    CHARGE       X              Y              Z

   1  C       6.00    0.914804962    1.407498596   -2.271704387
   2  C       6.00    0.739078877    2.709198902    0.016273718
   3  C       6.00    0.998101429    1.403755771    2.303796461
   4  C       6.00    1.430454661   -1.199413689    2.296284348
   5  C       6.00    1.607451343   -2.504649919    0.001266716
   6  C       6.00    1.349284541   -1.203009826   -2.278993788
   7  H       1.00    0.705254488    2.416749702   -4.041484894
   8  H       1.00    0.387970527    4.726714326    0.022147744
   9  H       1.00    0.856450807    2.413705025    4.080134029
  10  H       1.00    1.628273065   -2.209727168    4.067223907
  11  H       1.00    1.941053410   -4.525613163   -0.004601460
  12  H       1.00    1.483843127   -2.213573487   -4.055819432
  13  N       7.00   -5.443579205   -0.354348372   -0.071065267
  14  H       1.00   -5.588758266   -1.569026551   -1.549163345
  15  H       1.00   -6.066283449   -1.316133166    1.467879164
  16  H       1.00   -3.562468450   -0.073916579    0.197904163

 Bond lengths in Bohr (Angstrom)

 1-2  2.638209081  1-6  2.646427754  1-7  2.048077694  2-3  2.646513696  2-8  2.047847666
     ( 1.396080118)     ( 1.400429253)     ( 1.083796038)     ( 1.400474731)     ( 1.083674313)

  3- 4  2.638840084   3- 9  2.048276727   4- 5  2.646143491   4-10  2.048436566   5- 6  2.638276899
       ( 1.396414030)       ( 1.083901362)       ( 1.400278827)       ( 1.083985945)       ( 1.396116006)

  5-11  2.048320582   6-12  2.048524907  13-14  1.918669843  13-15  1.918629857  13-16  1.920823838
       ( 1.083924569)       ( 1.084032693)       ( 1.015316353)       ( 1.015295193)       ( 1.016456197)

 Bond angles

  1- 2- 3  119.98068082   1- 2- 8  120.00016931   1- 6- 5  120.02354320   1- 6-12  119.98612924

  2-1-6  120.00201014   2-1-7  119.96357367   2-3-4  120.01166797   2-3-9  119.97430446

  3- 2- 8  120.01747286   3- 4- 5  120.00134403   3- 4-10  119.99379320   4- 3- 9  120.01369584

  4- 5- 6  119.98072590   4- 5-11  120.00333703   5- 4-10  120.00485805   5- 6-12  119.99031303

  6- 1- 7  120.03367629   6- 5-11  120.01582306  14-13-15  106.02213835  14-13-16  105.92649348

 15-13-16  106.18351657

 NUCLEAR CHARGE:                   52
 NUMBER OF PRIMITIVE AOS:         322
 NUMBER OF SYMMETRY AOS:          308
 NUMBER OF CONTRACTIONS:          206   ( 206A   )
 NUMBER OF CORE ORBITALS:           7   (   7A   )
 NUMBER OF VALENCE ORBITALS:       37   (  37A   )


 NUCLEAR REPULSION ENERGY  273.71499360


 Eigenvalues of metric

         1 0.861E-05 0.184E-04 0.228E-04 0.532E-04 0.642E-04 0.644E-04 0.107E-03 0.107E-03


 Contracted 2-electron integrals neglected if value below      1.0D-16
 AO integral compression algorithm  1   Integral accuracy      1.0D-16

     1893.204 MB (compressed) written to integral file ( 94.6%)

     Node minimum: 1893.204 MB, node maximum: 1893.204 MB


 NUMBER OF SORTED TWO-ELECTRON INTEGRALS:  227303181.     BUFFER LENGTH:  32768
 NUMBER OF SEGMENTS:  15  SEGMENT LENGTH:   15999503      RECORD LENGTH: 524288

 Memory used in sort:      16.56 MW

 SORT1 READ   250230697. AND WROTE   226410198. INTEGRALS IN    654 RECORDS. CPU TIME:     2.15 SEC, REAL TIME:     3.72 SEC
 SORT2 READ   226410198. AND WROTE   227303181. INTEGRALS IN   7222 RECORDS. CPU TIME:     1.37 SEC, REAL TIME:     2.25 SEC

 FILE SIZES:   FILE 1:  1743.7 MBYTE,  FILE 4:  2743.1 MBYTE,   TOTAL:   4486.9 MBYTE

 OPERATOR DM      FOR CENTER  0  COORDINATES:    0.000000    0.000000    0.000000


 **********************************************************************************************************************************
 DATASETS  * FILE   NREC   LENGTH (MB)   RECORD NAMES
              1      19     1744.26       500      610      700      900      950      970     1000      129      960     1100   
                                          VAR    BASINP    GEOM    SYMINP    ZMAT    AOBASIS   BASIS     P2S    ABASIS      S 
                                         1400     1410     1200     1210     1080     1600     1650     1300     1700   
                                           T        V       H0       H01     AOSYM     SMH    MOLCAS    ERIS     OPER   

 PROGRAMS   *        TOTAL       INT
 CPU TIMES  *        12.32     12.28
 REAL TIME  *        16.16 SEC
 DISK USED  *         6.38 GB      
 GA USED    *         0.01 MB       (max)       0.00 MB       (current)
 **********************************************************************************************************************************

1PROGRAM * RHF-SCF (CLOSED SHELL)       Authors: W. Meyer, H.-J. Werner


 NUMBER OF ELECTRONS:      26+   26-    SPACE SYMMETRY=1    SPIN SYMMETRY: Singlet 
 CONVERGENCE THRESHOLDS:    1.00E-10 (Density)    1.00E-13 (Energy)
 MAX. NUMBER OF ITERATIONS:      200
 INTERPOLATION TYPE:            DIIS
 INTERPOLATION STEPS:              2 (START)      1 (STEP)
 LEVEL SHIFTS:                  0.00 (CLOSED)  0.00 (OPEN) 



 Orbital guess generated from atomic densities. Full valence occupancy:   44

 Molecular orbital dump at record        2100.2

 ITERATION    DDIFF          GRAD             ENERGY        2-EL.EN.            DIPOLE MOMENTS         DIIS
    1      0.000D+00      0.000D+00      -286.85319334    740.887016    0.52221   -0.77136    0.13694    0
    2      0.000D+00      0.322D-02      -286.92077863    735.099894    0.43693   -0.38546    0.06269    1
    3      0.826D-02      0.133D-02      -286.93010889    737.730507    0.45366   -0.52481    0.09285    2
    4      0.218D-02      0.381D-03      -286.93132710    737.211109    0.45221   -0.49779    0.08506    3
    5      0.783D-03      0.527D-04      -286.93135104    737.199880    0.45804   -0.50798    0.08903    4
    6      0.135D-03      0.177D-04      -286.93135349    737.214792    0.45689   -0.50244    0.08695    5
    7      0.512D-04      0.557D-05      -286.93135378    737.211711    0.45755   -0.50467    0.08770    6
    8      0.150D-04      0.133D-05      -286.93135380    737.210696    0.45770   -0.50431    0.08756    7
    9      0.424D-05      0.574D-06      -286.93135380    737.211168    0.45773   -0.50440    0.08759    7
   10      0.156D-05      0.178D-06      -286.93135380    737.211111    0.45774   -0.50441    0.08759    7
   11      0.641D-06      0.643D-07      -286.93135380    737.211096    0.45775   -0.50441    0.08759    7
   12      0.241D-06      0.299D-07      -286.93135380    737.211114    0.45774   -0.50441    0.08759    8
   13      0.113D-06      0.124D-07      -286.93135380    737.211105    0.45774   -0.50441    0.08759    8
   14      0.567D-07      0.453D-08      -286.93135380    737.211109    0.45774   -0.50441    0.08759    8
   15      0.189D-07      0.148D-08      -286.93135380    737.211107    0.45774   -0.50441    0.08759    9
   16      0.541D-08      0.307D-09      -286.93135380    737.211107    0.45774   -0.50441    0.08759    9
   17      0.112D-08      0.108D-09      -286.93135380    737.211107    0.45774   -0.50441    0.08759    8
   18      0.430D-09      0.549D-10      -286.93135380    737.211108    0.45774   -0.50441    0.08759    8
   19      0.238D-09      0.272D-10      -286.93135380    737.211108    0.45774   -0.50441    0.08759    9
   20      0.188D-09      0.114D-10      -286.93135380    737.211107    0.45774   -0.50441    0.08759    9
   21      0.281D-09      0.289D-11      -286.93135380    737.211108    0.45774   -0.50441    0.08759    8
   22      0.269D-09      0.117D-11      -286.93135380    737.211107    0.45774   -0.50441    0.08759    9
   23      0.128D-09      0.765D-12      -286.93135380    737.211107    0.45774   -0.50441    0.08759    9
   24      0.762D-10      0.618D-12      -286.93135380    737.211107    0.45774   -0.50441    0.08759    9
   25      0.508D-10      0.653D-12      -286.93135380    737.211107    0.45774   -0.50441    0.08759    9
   26      0.450D-10      0.547D-12      -286.93135380    737.211107    0.45774   -0.50441    0.08759    9
   27      0.339D-10      0.558D-12      -286.93135380    737.211107    0.45774   -0.50441    0.08759    9
   28      0.230D-10      0.482D-12      -286.93135380    737.211107    0.45774   -0.50441    0.08759    9
   29      0.203D-10      0.582D-12      -286.93135380    737.211107    0.45774   -0.50441    0.08759    9
   30      0.169D-10      0.502D-12      -286.93135380    737.211107    0.45774   -0.50441    0.08759    9
   31      0.120D-10      0.438D-12      -286.93135380    737.211107    0.45774   -0.50441    0.08759    9
   32      0.160D-10      0.479D-12      -286.93135380    737.211107    0.45774   -0.50441    0.08759    9
   33      0.234D-10      0.549D-12      -286.93135380    737.211107    0.45774   -0.50441    0.08759    0

 Final occupancy:  26

 !RHF STATE 1.1 Energy               -286.931353802990
 Nuclear energy                       273.71499360
 One-electron energy                 -929.25190116
 Two-electron energy                  368.60555375
 Virial quotient                       -1.00146213
 !RHF STATE 1.1 Dipole moment           0.45774415    -0.50440712     0.08758988
 Dipole moment /Debye                   1.16339339    -1.28199105     0.22261670

 Orbital energies:

         1.1          2.1          3.1          4.1          5.1          6.1          7.1          8.1          9.1         10.1
    -15.535107   -11.250651   -11.250048   -11.249679   -11.248818   -11.248678   -11.247834    -1.157523    -1.125820    -1.022080

        11.1         12.1         13.1         14.1         15.1         16.1         17.1         18.1         19.1         20.1
     -1.021968    -0.830651    -0.830547    -0.714519    -0.650469    -0.623936    -0.611449    -0.609576    -0.593603    -0.593470

        21.1         22.1         23.1         24.1         25.1         26.1         27.1         28.1
     -0.504917    -0.500114    -0.500032    -0.413891    -0.343002    -0.342014     0.063865     0.066415


 **********************************************************************************************************************************
 DATASETS  * FILE   NREC   LENGTH (MB)   RECORD NAMES
              1      19     1744.26       500      610      700      900      950      970     1000      129      960     1100   
                                          VAR    BASINP    GEOM    SYMINP    ZMAT    AOBASIS   BASIS     P2S    ABASIS      S 
                                         1400     1410     1200     1210     1080     1600     1650     1300     1700   
                                           T        V       H0       H01     AOSYM     SMH    MOLCAS    ERIS     OPER   

              2       3        1.40       700     1000     2100   
                                         GEOM     BASIS     RHF  

 PROGRAMS   *        TOTAL       RHF       INT
 CPU TIMES  *        55.68     43.36     12.28
 REAL TIME  *        65.02 SEC
 DISK USED  *         6.38 GB      
 GA USED    *         0.01 MB       (max)       0.00 MB       (current)
 **********************************************************************************************************************************


1PROGRAM * CCSD (Closed-shell coupled cluster)     Authors: C. Hampel, H.-J. Werner, 1991, M. Deegan, P.J. Knowles, 1992


 Convergence thresholds:  THRVAR = 1.00D-08  THRDEN = 1.00D-12

 CCSD(T)     terms to be evaluated (factor= 1.000)


 Number of core orbitals:           7 (   7 )
 Number of closed-shell orbitals:  19 (  19 )
 Number of external orbitals:     180 ( 180 )

 Molecular orbitals read from record     2100.2  Type=RHF/CANONICAL (state 1.1)

 Number of N-1 electron functions:              19
 Number of N-2 electron functions:             190
 Number of singly external CSFs:              3420
 Number of doubly external CSFs:           5849910
 Total number of CSFs:                     5853331

 Length of J-op  integral file:               0.00 MB
 Length of K-op  integral file:               2.96 MB
 Length of 3-ext integral record:             0.00 MB

 Memory could be reduced to 140.12 Mwords without degradation in triples

 Integral transformation finished. Total CPU:  10.28 sec, npass=  1  Memory used: 101.90 MW

 Reference energy:                   -286.93135380

 MP2 singlet pair energy:              -0.62063745
 MP2 triplet pair energy:              -0.38983049
 MP2 correlation energy:               -1.01046794
 MP2 total energy:                   -287.94182174

 SCS-MP2 correlation energy:           -0.98732613   (PS=  1.200000  PT=  0.333333)
 SCS-MP2 total energy:               -287.91867994

 ITER.      SQ.NORM     CORR.ENERGY   TOTAL ENERGY   ENERGY CHANGE        DEN1      VAR(S)    VAR(P)  DIIS     TIME
   1      1.38488640    -1.05476400  -287.98611781    -0.04429607    -0.01721676  0.36D-02  0.80D-02  1  1    42.52
   2      1.41439963    -1.06062672  -287.99198053    -0.00586272    -0.02705354  0.63D-04  0.10D-02  2  2    75.03
   3      1.42353082    -1.06072247  -287.99207627    -0.00009574    -0.00464369  0.27D-04  0.84D-04  3  3   107.58
   4      1.42746765    -1.06089121  -287.99224501    -0.00016874    -0.00121414  0.22D-05  0.11D-04  4  4   140.12
   5      1.42868102    -1.06092217  -287.99227597    -0.00003096    -0.00027317  0.27D-06  0.13D-05  5  5   172.71
   6      1.42898359    -1.06091194  -287.99226574     0.00001023    -0.00004348  0.24D-07  0.79D-07  6  6   205.30
   7      1.42902436    -1.06091357  -287.99226737    -0.00000163    -0.00000103  0.36D-08  0.82D-08  6  2   237.86
   8      1.42903357    -1.06091343  -287.99226723     0.00000014    -0.00000117  0.81D-09  0.77D-09  6  1   270.44
   9      1.42903341    -1.06091356  -287.99226737    -0.00000014     0.00000123  0.23D-09  0.97D-10  6  4   303.04
  10      1.42903464    -1.06091358  -287.99226738    -0.00000001    -0.00000019  0.66D-10  0.17D-10  6  3   335.63
  11      1.42903460    -1.06091359  -287.99226739    -0.00000002     0.00000013  0.16D-10  0.45D-11  6  5   368.21
  12      1.42903456    -1.06091359  -287.99226740    -0.00000000     0.00000003  0.20D-11  0.13D-11  6  6   400.80
  13      1.42903438    -1.06091360  -287.99226740    -0.00000000     0.00000006  0.24D-12  0.27D-12  6  2   433.35
  14      1.42903426    -1.06091360  -287.99226740    -0.00000000     0.00000003  0.67D-13  0.56D-13  6  1   465.92
  15      1.42903419    -1.06091360  -287.99226740    -0.00000000     0.00000002  0.18D-13  0.85D-14  6  3   498.49
  16      1.42903417    -1.06091360  -287.99226740    -0.00000000     0.00000000  0.44D-14  0.13D-14  6  4   531.12
  17      1.42903417    -1.06091360  -287.99226740     0.00000000    -0.00000000  0.14D-14  0.45D-15  6  5   563.67
  18      1.42903417    -1.06091360  -287.99226740     0.00000000    -0.00000000  0.20D-15  0.11D-15  6  6   596.25
  19      1.42903417    -1.06091360  -287.99226740     0.00000000    -0.00000000  0.25D-16  0.19D-16  6  2   628.83
  20      1.42903417    -1.06091360  -287.99226740     0.00000000    -0.00000000  0.85D-17  0.32D-17  6  1   661.44
  21      1.42903417    -1.06091360  -287.99226740     0.00000000    -0.00000000  0.30D-17  0.80D-18  6  3   694.05
  22      1.42903417    -1.06091360  -287.99226740     0.00000000    -0.00000000  0.89D-18  0.26D-18  6  4   726.63
  23      1.42903417    -1.06091360  -287.99226740     0.00000000    -0.00000000  0.36D-18  0.11D-18  6  3   759.21
  24      1.42903417    -1.06091360  -287.99226740     0.00000000    -0.00000000  0.10D-18  0.43D-19  6  5   791.78

 Norm of t1 vector:      0.08385249      S-energy:     0.00000000      T1 diagnostic:  0.00961854
                                                                       D1 diagnostic:  0.02618852

 Doubles amplitudes (print threshold =  0.500E-01):

         I         J         SYM. A    SYM. B    A         B      T(IJ, AB)

        18        18         1         1         6         6     -0.05141993
        19        19         1         1         7         7     -0.05462781


 Total CPU time for triples:    637.81 sec


 RESULTS
 =======

  Reference energy                   -286.931353802991
  CCSD singlet pair energy             -0.711164627784
  CCSD triplet pair energy             -0.349748971085
  CCSD correlation energy              -1.060913598867

  Triples (T) contribution             -0.045603621236
  Total correlation energy             -1.106517220103

  CCSD total energy                  -287.992267401858
  CCSD[T] energy                     -288.038741139937
  CCSD-T energy                      -288.037482458519
 !CCSD(T) total energy               -288.037871023094

 Timing summary (sec):

 STEP                 CPU(USER)    SYS     CPU(TOT)    WALL
 Transformation         10.63      0.75     11.38     11.39
 CCSD iterations       781.17     12.29    793.46    793.61
 Triples               637.81     10.44    648.25    648.33

 Program statistics:

 Available memory in ccsd:               999998456
 Min. memory needed in ccsd:              14392275
 Max. memory used in ccsd:                19775697
 Max. memory used in cckext:              16737545 (24 integral passes)



 **********************************************************************************************************************************
 DATASETS  * FILE   NREC   LENGTH (MB)   RECORD NAMES
              1      20     2287.87       500      610      700      900      950      970     1000      129      960     1100   
                                          VAR    BASINP    GEOM    SYMINP    ZMAT    AOBASIS   BASIS     P2S    ABASIS      S 
                                         1400     1410     1200     1210     1080     1600     1650     1300     1700     1380   
                                           T        V       H0       H01     AOSYM     SMH    MOLCAS    ERIS     OPER     JKOP   

              2       3        1.40       700     1000     2100   
                                         GEOM     BASIS     RHF  

 PROGRAMS   *        TOTAL   CCSD(T)       RHF       INT
 CPU TIMES  *      1485.30   1429.62     43.36     12.28
 REAL TIME  *      1518.46 SEC
 DISK USED  *         6.38 GB      
 GA USED    *         0.01 MB       (max)       0.00 MB       (current)
 **********************************************************************************************************************************

        CCSD(T)         RHF-SCF 
   -288.03787102   -286.93135380
 **********************************************************************************************************************************
 Variable memory released
