[Molden Format]                                                                 
[ATOMS] AU                                                                      
B        1    5        0.0000000000        0.0000000000       -0.0000000000     
F        2    9        0.0000000000       -2.1484899385        1.2404312443     
F        3    9        0.0000000000       -0.0000000000       -2.4808624887     
F        4    9       -0.0000000000        2.1484899385        1.2404312443     
[Molden Format]                                                                 
[GTO]                                                                           
  1 0
s  10 1.00
   5473.00000000000       5.550000000000000E-004                                
   820.900000000000       4.291000000000000E-003                                
   186.800000000000       2.194900000000000E-002                                
   52.8300000000000       8.444100000000000E-002                                
   17.0800000000000       0.238557000000000                                     
   5.99900000000000       0.435072000000000                                     
   2.20800000000000       0.341955000000000                                     
  0.587900000000000       3.685600000000000E-002                                
  0.241500000000000      -9.545000000000000E-003                                
  8.610000000000000E-002  2.368000000000000E-003                                
s  10 1.00
   5473.00000000000      -1.120000000000000E-004                                
   820.900000000000      -8.680000000000000E-004                                
   186.800000000000      -4.484000000000000E-003                                
   52.8300000000000      -1.768300000000000E-002                                
   17.0800000000000      -5.363900000000000E-002                                
   5.99900000000000      -0.119005000000000                                     
   2.20800000000000      -0.165824000000000                                     
  0.587900000000000       0.120107000000000                                     
  0.241500000000000       0.595981000000000                                     
  8.610000000000000E-002  0.411021000000000                                     
s  10 1.00
   5473.00000000000       0.000000000000000E+000                                
   820.900000000000       0.000000000000000E+000                                
   186.800000000000       0.000000000000000E+000                                
   52.8300000000000       0.000000000000000E+000                                
   17.0800000000000       0.000000000000000E+000                                
   5.99900000000000       0.000000000000000E+000                                
   2.20800000000000       0.000000000000000E+000                                
  0.587900000000000        1.00000000000000                                     
  0.241500000000000       0.000000000000000E+000                                
  8.610000000000000E-002  0.000000000000000E+000                                
s  10 1.00
   5473.00000000000       0.000000000000000E+000                                
   820.900000000000       0.000000000000000E+000                                
   186.800000000000       0.000000000000000E+000                                
   52.8300000000000       0.000000000000000E+000                                
   17.0800000000000       0.000000000000000E+000                                
   5.99900000000000       0.000000000000000E+000                                
   2.20800000000000       0.000000000000000E+000                                
  0.587900000000000       0.000000000000000E+000                                
  0.241500000000000       0.000000000000000E+000                                
  8.610000000000000E-002   1.00000000000000                                     
p   5 1.00
   12.0500000000000       1.311800000000000E-002                                
   2.61300000000000       7.989599999999999E-002                                
  0.747500000000000       0.277275000000000                                     
  0.238500000000000       0.504270000000000                                     
  7.698000000000001E-002  0.353680000000000                                     
p   5 1.00
   12.0500000000000       0.000000000000000E+000                                
   2.61300000000000       0.000000000000000E+000                                
  0.747500000000000       0.000000000000000E+000                                
  0.238500000000000        1.00000000000000                                     
  7.698000000000001E-002  0.000000000000000E+000                                
p   5 1.00
   12.0500000000000       0.000000000000000E+000                                
   2.61300000000000       0.000000000000000E+000                                
  0.747500000000000       0.000000000000000E+000                                
  0.238500000000000       0.000000000000000E+000                                
  7.698000000000001E-002   1.00000000000000                                     
d   2 1.00
  0.661000000000000        1.00000000000000                                     
  0.199000000000000       0.000000000000000E+000                                
d   2 1.00
  0.661000000000000       0.000000000000000E+000                                
  0.199000000000000        1.00000000000000                                     
f   1 1.00
  0.490000000000000        1.00000000000000                                     
 
  2 0
s  10 1.00
   19500.0000000000       5.070000000000000E-004                                
   2923.00000000000       3.923000000000000E-003                                
   664.500000000000       2.020000000000000E-002                                
   187.500000000000       7.901000000000000E-002                                
   60.6200000000000       0.230439000000000                                     
   21.4200000000000       0.432872000000000                                     
   7.95000000000000       0.349964000000000                                     
   2.25700000000000       4.323300000000000E-002                                
  0.881500000000000      -7.892000000000000E-003                                
  0.304100000000000       2.384000000000000E-003                                
s  10 1.00
   19500.0000000000      -1.170000000000000E-004                                
   2923.00000000000      -9.120000000000001E-004                                
   664.500000000000      -4.717000000000000E-003                                
   187.500000000000      -1.908600000000000E-002                                
   60.6200000000000      -5.965500000000000E-002                                
   21.4200000000000      -0.140010000000000                                     
   7.95000000000000      -0.176782000000000                                     
   2.25700000000000       0.171625000000000                                     
  0.881500000000000       0.605043000000000                                     
  0.304100000000000       0.369512000000000                                     
s  10 1.00
   19500.0000000000       0.000000000000000E+000                                
   2923.00000000000       0.000000000000000E+000                                
   664.500000000000       0.000000000000000E+000                                
   187.500000000000       0.000000000000000E+000                                
   60.6200000000000       0.000000000000000E+000                                
   21.4200000000000       0.000000000000000E+000                                
   7.95000000000000       0.000000000000000E+000                                
   2.25700000000000        1.00000000000000                                     
  0.881500000000000       0.000000000000000E+000                                
  0.304100000000000       0.000000000000000E+000                                
s  10 1.00
   19500.0000000000       0.000000000000000E+000                                
   2923.00000000000       0.000000000000000E+000                                
   664.500000000000       0.000000000000000E+000                                
   187.500000000000       0.000000000000000E+000                                
   60.6200000000000       0.000000000000000E+000                                
   21.4200000000000       0.000000000000000E+000                                
   7.95000000000000       0.000000000000000E+000                                
   2.25700000000000       0.000000000000000E+000                                
  0.881500000000000       0.000000000000000E+000                                
  0.304100000000000        1.00000000000000                                     
p   5 1.00
   43.8800000000000       1.666500000000000E-002                                
   9.92600000000000       0.104472000000000                                     
   2.93000000000000       0.317260000000000                                     
  0.913200000000000       0.487343000000000                                     
  0.267200000000000       0.334604000000000                                     
p   5 1.00
   43.8800000000000       0.000000000000000E+000                                
   9.92600000000000       0.000000000000000E+000                                
   2.93000000000000       0.000000000000000E+000                                
  0.913200000000000        1.00000000000000                                     
  0.267200000000000       0.000000000000000E+000                                
p   5 1.00
   43.8800000000000       0.000000000000000E+000                                
   9.92600000000000       0.000000000000000E+000                                
   2.93000000000000       0.000000000000000E+000                                
  0.913200000000000       0.000000000000000E+000                                
  0.267200000000000        1.00000000000000                                     
d   2 1.00
   3.10700000000000        1.00000000000000                                     
  0.855000000000000       0.000000000000000E+000                                
d   2 1.00
   3.10700000000000       0.000000000000000E+000                                
  0.855000000000000        1.00000000000000                                     
f   1 1.00
   1.91700000000000        1.00000000000000                                     
 
  3 0
s  10 1.00
   19500.0000000000       5.070000000000000E-004                                
   2923.00000000000       3.923000000000000E-003                                
   664.500000000000       2.020000000000000E-002                                
   187.500000000000       7.901000000000000E-002                                
   60.6200000000000       0.230439000000000                                     
   21.4200000000000       0.432872000000000                                     
   7.95000000000000       0.349964000000000                                     
   2.25700000000000       4.323300000000000E-002                                
  0.881500000000000      -7.892000000000000E-003                                
  0.304100000000000       2.384000000000000E-003                                
s  10 1.00
   19500.0000000000      -1.170000000000000E-004                                
   2923.00000000000      -9.120000000000001E-004                                
   664.500000000000      -4.717000000000000E-003                                
   187.500000000000      -1.908600000000000E-002                                
   60.6200000000000      -5.965500000000000E-002                                
   21.4200000000000      -0.140010000000000                                     
   7.95000000000000      -0.176782000000000                                     
   2.25700000000000       0.171625000000000                                     
  0.881500000000000       0.605043000000000                                     
  0.304100000000000       0.369512000000000                                     
s  10 1.00
   19500.0000000000       0.000000000000000E+000                                
   2923.00000000000       0.000000000000000E+000                                
   664.500000000000       0.000000000000000E+000                                
   187.500000000000       0.000000000000000E+000                                
   60.6200000000000       0.000000000000000E+000                                
   21.4200000000000       0.000000000000000E+000                                
   7.95000000000000       0.000000000000000E+000                                
   2.25700000000000        1.00000000000000                                     
  0.881500000000000       0.000000000000000E+000                                
  0.304100000000000       0.000000000000000E+000                                
s  10 1.00
   19500.0000000000       0.000000000000000E+000                                
   2923.00000000000       0.000000000000000E+000                                
   664.500000000000       0.000000000000000E+000                                
   187.500000000000       0.000000000000000E+000                                
   60.6200000000000       0.000000000000000E+000                                
   21.4200000000000       0.000000000000000E+000                                
   7.95000000000000       0.000000000000000E+000                                
   2.25700000000000       0.000000000000000E+000                                
  0.881500000000000       0.000000000000000E+000                                
  0.304100000000000        1.00000000000000                                     
p   5 1.00
   43.8800000000000       1.666500000000000E-002                                
   9.92600000000000       0.104472000000000                                     
   2.93000000000000       0.317260000000000                                     
  0.913200000000000       0.487343000000000                                     
  0.267200000000000       0.334604000000000                                     
p   5 1.00
   43.8800000000000       0.000000000000000E+000                                
   9.92600000000000       0.000000000000000E+000                                
   2.93000000000000       0.000000000000000E+000                                
  0.913200000000000        1.00000000000000                                     
  0.267200000000000       0.000000000000000E+000                                
p   5 1.00
   43.8800000000000       0.000000000000000E+000                                
   9.92600000000000       0.000000000000000E+000                                
   2.93000000000000       0.000000000000000E+000                                
  0.913200000000000       0.000000000000000E+000                                
  0.267200000000000        1.00000000000000                                     
d   2 1.00
   3.10700000000000        1.00000000000000                                     
  0.855000000000000       0.000000000000000E+000                                
d   2 1.00
   3.10700000000000       0.000000000000000E+000                                
  0.855000000000000        1.00000000000000                                     
f   1 1.00
   1.91700000000000        1.00000000000000                                     
 
                                                                                
[MO]                                                                            
 Sym= A                                                                         
 Ene=  -26.3397297884051                                                        
 Spin= Alpha                                                                    
 Occup= 1.0                                                                     
  1       -0.0000000007                                                         
  2       -0.0000000033                                                         
  3        0.0000000009                                                         
  4        0.0000000028                                                         
  5        0.0000000000                                                         
  6        0.0000000000                                                         
  7        0.0009150540                                                         
  8        0.0000000000                                                         
  9        0.0000000000                                                         
 10       -0.0011987114                                                         
 11        0.0000000000                                                         
 12        0.0000000000                                                         
 13       -0.0007395190                                                         
 14        0.0000000006                                                         
 15        0.0002428708                                                         
 16       -0.0002428714                                                         
 17        0.0000000000                                                         
 18        0.0000000000                                                         
 19        0.0000000000                                                         
 20        0.0000000000                                                         
 21       -0.0001231088                                                         
 22        0.0001231088                                                         
 23        0.0000000000                                                         
 24        0.0000000000                                                         
 25        0.0000000000                                                         
 26        0.0000000000                                                         
 27        0.0000000000                                                         
 28        0.0000286769                                                         
 29        0.0000000000                                                         
 30        0.0000000000                                                         
 31       -0.0001147068                                                         
 32        0.0000000000                                                         
 33        0.0000000000                                                         
 34        0.0000286759                                                         
 35        0.0000000000                                                         
 36        0.4079156516                                                         
 37       -0.0007626024                                                         
 38        0.0003479247                                                         
 39        0.0010489869                                                         
 40        0.0000000000                                                         
 41        0.0009821463                                                         
 42       -0.0006094758                                                         
 43        0.0000000000                                                         
 44       -0.0007608841                                                         
 45        0.0004924761                                                         
 46        0.0000000000                                                         
 47        0.0000321197                                                         
 48        0.0000478570                                                         
 49       -0.0000028984                                                         
 50       -0.0000057871                                                         
 51        0.0000086855                                                         
 52        0.0000000000                                                         
 53        0.0000000000                                                         
 54        0.0000019143                                                         
 55        0.0000103759                                                         
 56        0.0000157470                                                         
 57       -0.0000261229                                                         
 58        0.0000000000                                                         
 59        0.0000000000                                                         
 60        0.0000502654                                                         
 61        0.0000000000                                                         
 62        0.0000042675                                                         
 63       -0.0000006997                                                         
 64        0.0000000000                                                         
 65        0.0000047914                                                         
 66       -0.0000029186                                                         
 67        0.0000000000                                                         
 68       -0.0000175939                                                         
 69        0.0000050176                                                         
 70        0.0000000000                                                         
 71       -0.8158338329                                                         
 72        0.0015252110                                                         
 73       -0.0006958518                                                         
 74       -0.0020979777                                                         
 75        0.0000000000                                                         
 76        0.0000000000                                                         
 77       -0.0023106106                                                         
 78        0.0000000000                                                         
 79        0.0000000000                                                         
 80        0.0018103729                                                         
 81        0.0000000000                                                         
 82        0.0000000000                                                         
 83       -0.0000077745                                                         
 84        0.0000057968                                                         
 85       -0.0000117925                                                         
 86        0.0000059956                                                         
 87        0.0000000000                                                         
 88        0.0000000000                                                         
 89        0.0000000000                                                         
 90       -0.0000207519                                                         
 91       -0.0000122206                                                         
 92        0.0000329726                                                         
 93        0.0000000000                                                         
 94        0.0000000000                                                         
 95        0.0000000000                                                         
 96        0.0000000000                                                         
 97        0.0000000000                                                         
 98        0.0000056630                                                         
 99        0.0000000000                                                         
100        0.0000000000                                                         
101       -0.0000112175                                                         
102        0.0000000000                                                         
103        0.0000000000                                                         
104       -0.0000057716                                                         
105        0.0000000000                                                         
106        0.4079156516                                                         
107       -0.0007626024                                                         
108        0.0003479247                                                         
109        0.0010489869                                                         
110        0.0000000000                                                         
111       -0.0009821463                                                         
112       -0.0006094758                                                         
113        0.0000000000                                                         
114        0.0007608841                                                         
115        0.0004924761                                                         
116        0.0000000000                                                         
117       -0.0000321197                                                         
118        0.0000478570                                                         
119       -0.0000028984                                                         
120       -0.0000057871                                                         
121        0.0000086855                                                         
122        0.0000000000                                                         
123        0.0000000000                                                         
124       -0.0000019143                                                         
125        0.0000103759                                                         
126        0.0000157470                                                         
127       -0.0000261229                                                         
128        0.0000000000                                                         
129        0.0000000000                                                         
130       -0.0000502654                                                         
131        0.0000000000                                                         
132       -0.0000042675                                                         
133       -0.0000006997                                                         
134        0.0000000000                                                         
135       -0.0000047914                                                         
136       -0.0000029186                                                         
137        0.0000000000                                                         
138        0.0000175939                                                         
139        0.0000050176                                                         
140        0.0000000000                                                         
 Sym= A                                                                         
 Ene=  -26.3397297883540                                                        
 Spin= Alpha                                                                    
 Occup= 1.0                                                                     
  1        0.0000000000                                                         
  2        0.0000000000                                                         
  3        0.0000000000                                                         
  4        0.0000000000                                                         
  5        0.0000000000                                                         
  6        0.0009150540                                                         
  7        0.0000000000                                                         
  8        0.0000000000                                                         
  9       -0.0011987114                                                         
 10        0.0000000000                                                         
 11        0.0000000000                                                         
 12       -0.0007395190                                                         
 13        0.0000000000                                                         
 14        0.0000000000                                                         
 15        0.0000000000                                                         
 16        0.0000000000                                                         
 17        0.0000000000                                                         
 18        0.0000000000                                                         
 19        0.0004857422                                                         
 20        0.0000000000                                                         
 21        0.0000000000                                                         
 22        0.0000000000                                                         
 23        0.0000000000                                                         
 24        0.0000000000                                                         
 25       -0.0002462176                                                         
 26        0.0000000000                                                         
 27        0.0000286767                                                         
 28        0.0000000000                                                         