
 Primary working directories    : /tmp/1059987.100.gen6.q
 Secondary working directories  : /tmp/1059987.100.gen6.q
 Wavefunction directory         : /home/vulcan/jj04645/wfu/
 Main file repository           : /tmp/1059987.100.gen6.q/

 ARCHNAME  : Linux/x86_64
 FC        : /opt/intel/compilers_and_libraries_2016.1.150/linux/bin/intel64/ifort
 FCVERSION : 16.0.1
 BLASLIB   : -mkl
 id        : ccgc

 Nodes     nprocs
 n088         1
 ga_uses_ma=false, calling ma_init with nominal heap.
 GA-space will be limited to   8.0 MW (determined by -G option)

 Using customized tuning parameters: mindgm=10; mindgv=16; mindgc=4; mindgr=1; noblas=0; mincuda=1000; minvec=7
 default implementation of scratch files=df  

 ***,Optimization of 1_4_cyclohexadiene
 memory,1000,m
 gthresh,energy=1.0d-12,orbital=1.0d-10,oneint=1.0d-16,twoint=1.0d-16,optgrad=1.0d-6,compress=1.0d-13
 geomtyp=xyz
 
 bohr
 geometry = {
  H    4.1001033777    0.0020966067   -1.6457801977
  C    2.8384476967    0.0019815089   -0.0000000000
  C   -1.2653114436    2.3628103127    0.0000000000
  C   -1.2612257659   -2.3659475145    0.0000000000
  C   -2.8437020645    0.0019764361    0.0000000000
  C    1.2649075513   -2.3718900926   -0.0000000000
  C    1.2689868425    2.3687611926   -0.0000000000
  H   -2.2689523129    4.1513856888    0.0000000000
  H    2.2718061413    4.1577973365   -0.0000000000
  H   -4.1040041328    0.0020968326   -1.6468169941
  H    2.2678862064   -4.1608369023   -0.0000000000
  H   -2.2650413411   -4.1544248449    0.0000000000
  H    4.1001033777    0.0020966067    1.6457801977
  H   -4.1040041328    0.0020968326    1.6468169941
 }
 
 basis=VDZ
 {rhf;maxit,200}
 {ccsd(t);maxit,200}

 Variables initialized (661), CPU time= 0.00 sec
 Commands  initialized (458), CPU time= 0.00 sec, 486 directives.
 Default parameters read. Elapsed time= 0.04 sec

 Checking input...
 Passed
1


                                         ***  PROGRAM SYSTEM MOLPRO  ***
                         Copyright, University College Cardiff Consultants Limited, 2008

                                    Version 2010.1 linked May 16 2016 07:17:05


 **********************************************************************************************************************************
 LABEL *   Optimization of 1_4_cyclohexadiene                                            
 Linux-4.4.3/n088(x86_64) 64 bit mpp version                                             DATE: 06-May-24          TIME: 14:31:36  
 **********************************************************************************************************************************

 SHA1:             9e8077add272b0f3cad6f7df79ec5211205f459d
 **********************************************************************************************************************************

 THRESHOLDS:

 ZERO    =  1.00D-12  ONEINT  =  1.00D-16  TWOINT  =  1.00D-16  PREFAC  =  1.00D-14  LOCALI  =  1.00D-09  EORDER  =  1.00D-04
 ENERGY  =  1.00D-12  ETEST   =  0.00D+00  EDENS   =  0.00D+00  THRDEDEF=  1.00D-06  GRADIENT=  1.00D-02  STEP    =  1.00D-03
 ORBITAL =  1.00D-10  CIVEC   =  1.00D-05  COEFF   =  1.00D-04  PRINTCI =  5.00D-02  PUNCHCI =  9.90D+01  OPTGRAD =  1.00D-06
 OPTENERG=  1.00D-06  OPTSTEP =  3.00D-04  THRGRAD =  1.00D-10  COMPRESS=  1.00D-13  VARMIN  =  1.00D-07  VARMAX  =  1.00D-03
 THRDOUB =  0.00D+00  THRDIV  =  1.00D-05  THRRED  =  1.00D-07  THRPSP  =  1.00D+00  THRDC   =  1.00D-10  THRCS   =  1.00D-10
 THRNRM  =  1.00D-08  THREQ   =  0.00D+00  THRDE   =  1.00D+00  THRREF  =  1.00D-05  SPARFAC =  1.00D+00  THRDLP  =  1.00D-07
 THRDIA  =  1.00D-10  THRDLS  =  1.00D-07  THRGPS  =  0.00D+00  THRKEX  =  0.00D+00  THRDIS  =  2.00D-01  THRVAR  =  1.00D-10
 THRLOC  =  1.00D-06  THRGAP  =  1.00D-06  THRLOCT = -1.00D+00  THRGAPT = -1.00D+00  THRORB  =  1.00D-06  THRMLTP =  0.00D+00
 THRCPQCI=  1.00D-10  KEXTA   =  0.00D+00  THRCOARS=  0.00D+00  SYMTOL  =  1.00D-06  GRADTOL =  1.00D-06  THROVL  =  1.00D-08
 THRORTH =  1.00D-08  GRID    =  1.00D-06  GRIDMAX =  1.00D-03  DTMAX   =  0.00D+00

 SETTING GEOMTYP        =    XYZ
 ZUNIT=BOHR
 

 Variable memory set to 1000000000 words,  buffer space   230000 words

 SETTING BASIS          =    VDZ


 Recomputing integrals since basis changed


 Using spherical harmonics

 Library entry H      S cc-pVDZ              selected for orbital group  1
 Library entry H      P cc-pVDZ              selected for orbital group  1
 Library entry C      S cc-pVDZ              selected for orbital group  2
 Library entry C      P cc-pVDZ              selected for orbital group  2
 Library entry C      D cc-pVDZ              selected for orbital group  2

1PROGRAM * SEWARD (Integral evaluation for generally contracted gaussian basis sets)     Author: Roland Lindh, 1990

 Geometry written to block  1 of record 700


 Point group  Cs  



 ATOMIC COORDINATES

 NR  ATOM    CHARGE       X              Y              Z

   1  H       1.00    4.100103378    0.002096607   -1.645780198
   2  H       1.00    4.100103378    0.002096607    1.645780198
   3  C       6.00    2.838447697    0.001981509    0.000000000
   4  C       6.00   -1.265311444    2.362810313    0.000000000
   5  C       6.00   -1.261225766   -2.365947515    0.000000000
   6  C       6.00   -2.843702064    0.001976436    0.000000000
   7  C       6.00    1.264907551   -2.371890093    0.000000000
   8  C       6.00    1.268986842    2.368761193    0.000000000
   9  H       1.00   -2.268952313    4.151385689    0.000000000
  10  H       1.00    2.271806141    4.157797336    0.000000000
  11  H       1.00   -4.104004133    0.002096833   -1.646816994
  12  H       1.00   -4.104004133    0.002096833    1.646816994
  13  H       1.00    2.267886206   -4.160836902    0.000000000
  14  H       1.00   -2.265041341   -4.154424845    0.000000000

 Bond lengths in Bohr (Angstrom)

 1-3  2.073732753  2-3  2.073732753  3-7  2.848033527  3-8  2.839868561  4-6  2.839868579
     ( 1.097372110)     ( 1.097372110)     ( 1.507114433)     ( 1.502793719)     ( 1.502793728)

  4- 8  2.534305273   4- 9  2.050925857   5- 6  2.848033545   5- 7  2.526140307   5-14  2.050925857
       ( 1.341096591)       ( 1.085303221)       ( 1.507114442)       ( 1.336775877)       ( 1.085303221)

  6-11  2.073732753   6-12  2.073732753   7-13  2.050925857   8-10  2.050925857
       ( 1.097372110)       ( 1.097372110)       ( 1.085303221)       ( 1.085303221)

 Bond angles

  1-3-2  105.05242670   1-3-7  109.64471809   1-3-8  109.64471809   2-3-7  109.64471809

  2- 3- 8  109.64471809   3- 7- 5  123.40394753   3- 7-13  117.18396094   3- 8- 4  123.41464799

  3- 8-10  117.17861072   4- 6- 5  112.47968253   4- 6-11  109.73893714   4- 6-12  109.73893714

  4- 8-10  119.40674129   5- 6-11  109.73893713   5- 6-12  109.73893713   5- 7-13  119.41209153

  6- 4- 8  123.90017030   6- 4- 9  116.93584956   6- 5- 7  123.88946993   6- 5-14  116.94119975

  7- 3- 8  112.91208172   7- 5-14  119.16933032   8- 4- 9  119.16398015  11- 6-12  105.14664566

 NUCLEAR CHARGE:                   44
 NUMBER OF PRIMITIVE AOS:         218
 NUMBER OF SYMMETRY AOS:          212
 NUMBER OF CONTRACTIONS:          124   (  86A'  +  38A"  )
 NUMBER OF CORE ORBITALS:           6   (   6A'  +   0A"  )
 NUMBER OF VALENCE ORBITALS:       32   (  24A'  +   8A"  )


 NUCLEAR REPULSION ENERGY  217.75834347


 Eigenvalues of metric

         1 0.670E-03 0.169E-02 0.315E-02 0.345E-02 0.432E-02 0.562E-02 0.143E-01 0.163E-01
         2 0.227E-01 0.356E-01 0.366E-01 0.382E-01 0.768E-01 0.990E-01 0.112E+00 0.147E+00


 Contracted 2-electron integrals neglected if value below      1.0D-16
 AO integral compression algorithm  1   Integral accuracy      1.0D-16

     130.023 MB (compressed) written to integral file ( 95.9%)

     Node minimum: 130.023 MB, node maximum: 130.023 MB


 NUMBER OF SORTED TWO-ELECTRON INTEGRALS:   15590565.     BUFFER LENGTH:  32768
 NUMBER OF SEGMENTS:   1  SEGMENT LENGTH:   15590565      RECORD LENGTH: 524288

 Memory used in sort:      16.15 MW

 SORT1 READ    16959507. AND WROTE    15512652. INTEGRALS IN     45 RECORDS. CPU TIME:     0.19 SEC, REAL TIME:     0.27 SEC
 SORT2 READ    15512652. AND WROTE    15590565. INTEGRALS IN    496 RECORDS. CPU TIME:     0.15 SEC, REAL TIME:     0.22 SEC

 FILE SIZES:   FILE 1:   123.0 MBYTE,  FILE 4:   188.8 MBYTE,   TOTAL:    311.8 MBYTE

 OPERATOR DM      FOR CENTER  0  COORDINATES:    0.000000    0.000000    0.000000


 **********************************************************************************************************************************
 DATASETS  * FILE   NREC   LENGTH (MB)   RECORD NAMES
              1      19      123.08       500      610      700      900      950      970     1000      129      960     1100   
                                          VAR    BASINP    GEOM    SYMINP    ZMAT    AOBASIS   BASIS     P2S    ABASIS      S 
                                         1400     1410     1200     1210     1080     1600     1650     1300     1700   
                                           T        V       H0       H01     AOSYM     SMH    MOLCAS    ERIS     OPER   

 PROGRAMS   *        TOTAL       INT
 CPU TIMES  *         2.59      2.56
 REAL TIME  *         2.99 SEC
 DISK USED  *       442.71 MB      
 GA USED    *         0.00 MB       (max)       0.00 MB       (current)
 **********************************************************************************************************************************

1PROGRAM * RHF-SCF (CLOSED SHELL)       Authors: W. Meyer, H.-J. Werner


 NUMBER OF ELECTRONS:      22+   22-
 CONVERGENCE THRESHOLDS:    1.00E-10 (Density)    1.00E-13 (Energy)
 MAX. NUMBER OF ITERATIONS:      200
 INTERPOLATION TYPE:            DIIS
 INTERPOLATION STEPS:              2 (START)      1 (STEP)
 LEVEL SHIFTS:                  0.00 (CLOSED)  0.00 (OPEN) 



 Orbital guess generated from atomic densities. Full valence occupancy:   30   8

 Molecular orbital dump at record        2100.2

 Initial alpha occupancy:  18   4
 Initial beta  occupancy:  18   4
 Wave function symmetry:    1

 ITERATION    DDIFF          GRAD             ENERGY        2-EL.EN.            DIPOLE MOMENTS         DIIS
    1      0.000D+00      0.000D+00      -231.78148341    590.482869    0.00058   -0.00296    0.00000    0
    2      0.000D+00      0.596D-02      -231.84383593    585.626653   -0.00135   -0.00099    0.00000    1
    3      0.118D-01      0.234D-02      -231.85139020    587.951440   -0.00033   -0.00085    0.00000    2
    4      0.443D-02      0.797D-03      -231.85263328    587.340993   -0.00130   -0.00070    0.00000    3
    5      0.163D-02      0.812D-04      -231.85265162    587.346092   -0.00079   -0.00064    0.00000    4
    6      0.303D-03      0.175D-04      -231.85265222    587.343004   -0.00125   -0.00063    0.00000    5
    7      0.424D-04      0.587D-05      -231.85265228    587.344024   -0.00103   -0.00062    0.00000    6
    8      0.166D-04      0.120D-05      -231.85265228    587.343933   -0.00114   -0.00062    0.00000    7
    9      0.393D-05      0.416D-06      -231.85265228    587.343950   -0.00108   -0.00062    0.00000    6
   10      0.939D-06      0.155D-06      -231.85265228    587.343955   -0.00110   -0.00062    0.00000    7
   11      0.396D-06      0.240D-07      -231.85265228    587.343953   -0.00110   -0.00062    0.00000    7
   12      0.773D-07      0.376D-08      -231.85265228    587.343953   -0.00110   -0.00062    0.00000    7
   13      0.112D-07      0.914D-09      -231.85265228    587.343953   -0.00110   -0.00062    0.00000    7
   14      0.294D-08      0.265D-09      -231.85265228    587.343953   -0.00110   -0.00062    0.00000    7
   15      0.662D-09      0.863D-10      -231.85265228    587.343953   -0.00110   -0.00062    0.00000    7
   16      0.227D-09      0.266D-10      -231.85265228    587.343953   -0.00110   -0.00062    0.00000    6
   17      0.607D-10      0.958D-11      -231.85265228    587.343953   -0.00110   -0.00062    0.00000    7
   18      0.236D-10      0.350D-11      -231.85265228    587.343953   -0.00110   -0.00062    0.00000    7
   19      0.113D-10      0.964D-12      -231.85265228    587.343953   -0.00110   -0.00062    0.00000    8
   20      0.307D-11      0.512D-12      -231.85265228    587.343953   -0.00110   -0.00062    0.00000    8
   21      0.157D-11      0.101D-12      -231.85265228    587.343953   -0.00110   -0.00062    0.00000    8
   22      0.755D-12      0.462D-13      -231.85265228    587.343953   -0.00110   -0.00062    0.00000    0

 Final occupancy:  18   4

 !RHF STATE 1.1 Energy               -231.852652283671
 Nuclear energy                       217.75834347
 One-electron energy                 -743.28297203
 Two-electron energy                  293.67197627
 Virial quotient                       -1.00115526
 !RHF STATE 1.1 Dipole moment          -0.00109961    -0.00061829     0.00000000
 Dipole moment /Debye                  -0.00279474    -0.00157143     0.00000000

 Orbital energies:

         1.1          2.1          3.1          4.1          5.1          6.1          7.1          8.1          9.1         10.1
    -11.233994   -11.233563   -11.229398   -11.229129   -11.227788   -11.227488    -1.122181    -1.008415    -1.004924    -0.861941

        11.1         12.1         13.1         14.1         15.1         16.1         17.1         18.1         19.1         20.1
     -0.784624    -0.678381    -0.654599    -0.597609    -0.561522    -0.531835    -0.490784    -0.445788     0.180773     0.217554

         1.2          2.2          3.2          4.2          5.2          6.2
     -0.595266    -0.561727    -0.358803    -0.329752     0.174476     0.193462


 **********************************************************************************************************************************
 DATASETS  * FILE   NREC   LENGTH (MB)   RECORD NAMES
              1      19      123.08       500      610      700      900      950      970     1000      129      960     1100   
                                          VAR    BASINP    GEOM    SYMINP    ZMAT    AOBASIS   BASIS     P2S    ABASIS      S 
                                         1400     1410     1200     1210     1080     1600     1650     1300     1700   
                                           T        V       H0       H01     AOSYM     SMH    MOLCAS    ERIS     OPER   

              2       3        0.68       700     1000     2100   
                                         GEOM     BASIS     RHF  

 PROGRAMS   *        TOTAL       RHF       INT
 CPU TIMES  *         4.14      1.55      2.56
 REAL TIME  *         4.84 SEC
 DISK USED  *       442.71 MB      
 GA USED    *         0.00 MB       (max)       0.00 MB       (current)
 **********************************************************************************************************************************


1PROGRAM * CCSD (Closed-shell coupled cluster)     Authors: C. Hampel, H.-J. Werner, 1991, M. Deegan, P.J. Knowles, 1992


 Convergence thresholds:  THRVAR = 1.00D-08  THRDEN = 1.00D-12

 CCSD(T)     terms to be evaluated (factor= 1.000)


 Number of core orbitals:           6 (   6   0 )
 Number of closed-shell orbitals:  16 (  12   4 )
 Number of external orbitals:     102 (  68  34 )

 Molecular orbitals read from record     2100.2  Type=RHF/CANONICAL (state 1.1)

 Number of N-1 electron functions:              16
 Number of N-2 electron functions:             136
 Number of singly external CSFs:               952
 Number of doubly external CSFs:            685168
 Total number of CSFs:                      686121

 Length of J-op  integral file:               0.00 MB
 Length of K-op  integral file:               0.65 MB
 Length of 3-ext integral record:             0.00 MB

 Memory could be reduced to 12.12 Mwords without degradation in triples

 Integral transformation finished. Total CPU:   0.43 sec, npass=  1  Memory used:   5.34 MW

 Reference energy:                   -231.85265228

 MP2 singlet pair energy:              -0.50639826
 MP2 triplet pair energy:              -0.29378294
 MP2 correlation energy:               -0.80018120
 MP2 total energy:                   -232.65283348

 SCS-MP2 correlation energy:           -0.79047619   (PS=  1.200000  PT=  0.333333)
 SCS-MP2 total energy:               -232.64312847

 ITER.      SQ.NORM     CORR.ENERGY   TOTAL ENERGY   ENERGY CHANGE        DEN1      VAR(S)    VAR(P)  DIIS     TIME
   1      1.31822454    -0.85463418  -232.70728647    -0.05445298    -0.03136053  0.31D-02  0.54D-02  1  1     1.47
   2      1.34642676    -0.86046093  -232.71311321    -0.00582675    -0.02421004  0.68D-04  0.70D-03  2  2     2.55
   3      1.35481385    -0.86077322  -232.71342550    -0.00031229    -0.00386587  0.20D-04  0.69D-04  3  3     3.63
   4      1.35835848    -0.86089416  -232.71354644    -0.00012094    -0.00107836  0.10D-05  0.68D-05  4  4     4.71
   5      1.35919397    -0.86090600  -232.71355828    -0.00001184    -0.00017820  0.50D-07  0.66D-06  5  5     5.79
   6      1.35935152    -0.86089833  -232.71355062     0.00000766    -0.00002582  0.49D-08  0.36D-07  6  6     6.89
   7      1.35936695    -0.86089900  -232.71355128    -0.00000066     0.00000108  0.17D-08  0.32D-08  6  2     7.96
   8      1.35937161    -0.86089886  -232.71355114     0.00000014    -0.00000094  0.56D-10  0.35D-09  6  1     9.03
   9      1.35937165    -0.86089893  -232.71355122    -0.00000007     0.00000044  0.18D-10  0.52D-10  6  3    10.11
  10      1.35937158    -0.86089897  -232.71355125    -0.00000004     0.00000017  0.80D-12  0.82D-11  6  4    11.18
  11      1.35937102    -0.86089900  -232.71355128    -0.00000003     0.00000022  0.86D-13  0.11D-11  6  6    12.26
  12      1.35937091    -0.86089901  -232.71355129    -0.00000001     0.00000005  0.20D-13  0.98D-13  6  5    13.34
  13      1.35937091    -0.86089901  -232.71355129     0.00000000    -0.00000000  0.76D-14  0.15D-13  6  2    14.42
  14      1.35937093    -0.86089901  -232.71355129     0.00000000    -0.00000001  0.56D-15  0.13D-14  6  1    15.50
  15      1.35937094    -0.86089901  -232.71355129     0.00000000    -0.00000000  0.17D-15  0.15D-15  6  3    16.59
  16      1.35937094    -0.86089901  -232.71355129     0.00000000    -0.00000000  0.19D-16  0.24D-16  6  4    17.66
  17      1.35937094    -0.86089901  -232.71355129    -0.00000000     0.00000000  0.34D-17  0.38D-17  6  6    18.75
  18      1.35937094    -0.86089901  -232.71355129    -0.00000000     0.00000000  0.23D-18  0.65D-18  6  5    19.83
  19      1.35937094    -0.86089901  -232.71355129     0.00000000     0.00000000  0.29D-19  0.15D-18  6  2    20.90
  20      1.35937094    -0.86089901  -232.71355129     0.00000000    -0.00000000  0.65D-21  0.26D-19  6  1    21.97
  21      1.35937094    -0.86089901  -232.71355129     0.00000000    -0.00000000  0.14D-21  0.18D-20  6  4    23.05
  22      1.35937094    -0.86089901  -232.71355129     0.00000000    -0.00000000  0.16D-22  0.85D-22  6  3    24.13

 Norm of t1 vector:      0.07885125      S-energy:    -0.00000000      T1 diagnostic:  0.00985641
                                                                       D1 diagnostic:  0.02886045

 Doubles amplitudes (print threshold =  0.500E-01):

         I         J         SYM. A    SYM. B    A         B      T(IJ, AB)

        15        15         2         2         1         1     -0.07456502
        16        15         2         2         2         1     -0.06092524
        16        16         2         2         2         2     -0.05798999


 Total CPU time for triples:     16.79 sec


 RESULTS
 =======

  Reference energy                   -231.852652283671
  CCSD singlet pair energy             -0.593574885278
  CCSD triplet pair energy             -0.267324120519
  CCSD correlation energy              -0.860899005797

  Triples (T) contribution             -0.032225779839
  Total correlation energy             -0.893124785636

  CCSD total energy                  -232.713551289469
  CCSD[T] energy                     -232.746510401634
  CCSD-T energy                      -232.745458272117
 !CCSD(T) total energy               -232.745777069308

 Timing summary (sec):

 STEP                 CPU(USER)    SYS     CPU(TOT)    WALL
 Transformation          0.45      0.07      0.52      0.53
 CCSD iterations        23.68      0.87     24.55     24.61
 Triples                16.79      0.54     17.33     17.33

 Program statistics:

 Available memory in ccsd:               999998876
 Min. memory needed in ccsd:               1858107
 Max. memory used in ccsd:                 2469315
 Max. memory used in cckext:               2592160 (22 integral passes)



 **********************************************************************************************************************************
 DATASETS  * FILE   NREC   LENGTH (MB)   RECORD NAMES
              1      20      171.91       500      610      700      900      950      970     1000      129      960     1100   
                                          VAR    BASINP    GEOM    SYMINP    ZMAT    AOBASIS   BASIS     P2S    ABASIS      S 
                                         1400     1410     1200     1210     1080     1600     1650     1300     1700     1380   
                                           T        V       H0       H01     AOSYM     SMH    MOLCAS    ERIS     OPER     JKOP   

              2       3        0.68       700     1000     2100   
                                         GEOM     BASIS     RHF  

 PROGRAMS   *        TOTAL   CCSD(T)       RHF       INT
 CPU TIMES  *        45.07     40.92      1.55      2.56
 REAL TIME  *        47.35 SEC
 DISK USED  *       442.71 MB      
 GA USED    *         0.00 MB       (max)       0.00 MB       (current)
 **********************************************************************************************************************************

        CCSD(T)         RHF-SCF 
   -232.74577707   -231.85265228
 **********************************************************************************************************************************
 Variable memory released
