
    -----------------------------------------------------------------------
          Psi4: An Open-Source Ab Initio Electronic Structure Package
                               Psi4 1.4a2.dev629 

                         Git: Rev {master} 2938fc2 dirty


    D. G. A. Smith, L. A. Burns, A. C. Simmonett, R. M. Parrish,
    M. C. Schieber, R. Galvelis, P. Kraus, H. Kruse, R. Di Remigio,
    A. Alenaizan, A. M. James, S. Lehtola, J. P. Misiewicz, M. Scheurer,
    R. A. Shaw, J. B. Schriber, Y. Xie, Z. L. Glick, D. A. Sirianni,
    J. S. O'Brien, J. M. Waldrop, A. Kumar, E. G. Hohenstein,
    B. P. Pritchard, B. R. Brooks, H. F. Schaefer III, A. Yu. Sokolov,
    K. Patkowski, A. E. DePrince III, U. Bozkaya, R. A. King,
    F. A. Evangelista, J. M. Turney, T. D. Crawford, C. D. Sherrill,
    J. Chem. Phys. 152(18) 184108 (2020). https://doi.org/10.1063/5.0006002

                            Additional Code Authors
    E. T. Seidl, C. L. Janssen, E. F. Valeev, M. L. Leininger,
    J. F. Gonthier, R. M. Richard, H. R. McAlexander, M. Saitow, X. Wang,
    P. Verma, and M. H. Lechner

             Previous Authors, Complete List of Code Contributors,
                       and Citations for Specific Modules
    https://github.com/psi4/psi4/blob/master/codemeta.json
    https://github.com/psi4/psi4/graphs/contributors
    http://psicode.org/psi4manual/master/introduction.html#citing-psifour

    -----------------------------------------------------------------------


    Psi4 started on: Friday, 22 October 2021 05:29PM

    Process ID: 16958
    Host:       n074
    PSIDATADIR: /opt/psi/4/master/share/psi4
    Memory:     500.0 MiB
    Threads:    1
    
  ==> Input File <==

--------------------------------------------------------------------------
import os
memory 14 GB 
 
molecule {
 C   -0.0014920240   -0.0003515423    1.6745336104
 H   -0.0014929798   -1.7223704142    2.7871024174
 H   -0.0030639083    1.7235245619    2.7893525586
 C    1.2330203754   -0.0004537670   -0.9141946179
 C   -1.2260514011    0.0001659748   -0.9046417860
 H    2.9863356870   -0.0005782826   -1.9283021197
 H   -2.9872557492    0.0000634694   -1.9256139929
units bohr
}

basis {

assign 6-31g_2dfp_

[ 6-31g_2dfp_ ]

spherical

!----------------------------------------------------------------------
! Basis Set Exchange
! Version v0.8.13
! https://www.basissetexchange.org
!----------------------------------------------------------------------
!   Basis set: 6-31G(2df,p)
! Description: 6-31G(2df,p)
!        Role: orbital
!     Version: 0  (Data from the original Basis Set Exchange)
!----------------------------------------------------------------------


****
H     0
S    3   1.00
     18.7311370              0.03349460
      2.8253937              0.23472695
      0.6401217              0.81375733
S    1   1.00
      0.1612778              1.00000000
P    1   1.00
      1.5000000              1.0000000
P    1   1.00
      0.3750000              1.0000000
****
B     0
S    6   1.00
   2068.8823000              0.0018663
    310.6495700              0.0142515
     70.6830330              0.0695516
     19.8610800              0.2325729
      6.2993048              0.4670787
      2.1270270              0.3634314
SP   3   1.00
      4.7279710             -0.1303938              0.0745976
      1.1903377             -0.1307889              0.3078467
      0.3594117              1.1309444              0.7434568
SP   1   1.00
      0.1267512              1.0000000              1.0000000
D    1   1.00
      0.8020000              1.0000000
D    1   1.00
      0.2005000              1.0000000
F    1   1.00
      0.5000000              1.0000000
****
C     0
S    6   1.00
   3047.5249000              0.0018347
    457.3695100              0.0140373
    103.9486900              0.0688426
     29.2101550              0.2321844
      9.2866630              0.4679413
      3.1639270              0.3623120
SP   3   1.00
      7.8682724             -0.1193324              0.0689991
      1.8812885             -0.1608542              0.3164240
      0.5442493              1.1434564              0.7443083
SP   1   1.00
      0.1687144              1.0000000              1.0000000
D    1   1.00
      1.2520000              1.0000000
D    1   1.00
      0.3130000              1.0000000
F    1   1.00
      0.8000000              1.0000000
****
N     0
S    6   1.00
   4173.5110000              0.0018348
    627.4579000              0.0139950
    142.9021000              0.0685870
     40.2343300              0.2322410
     12.8202100              0.4690700
      4.3904370              0.3604550
SP   3   1.00
     11.6263580             -0.1149610              0.0675800
      2.7162800             -0.1691180              0.3239070
      0.7722180              1.1458520              0.7408950
SP   1   1.00
      0.2120313              1.0000000              1.0000000
D    1   1.00
      1.8260000              1.0000000
D    1   1.00
      0.4565000              1.0000000
F    1   1.00
      1.0000000              1.0000000
****
O     0
S    6   1.00
   5484.6717000              0.0018311
    825.2349500              0.0139501
    188.0469600              0.0684451
     52.9645000              0.2327143
     16.8975700              0.4701930
      5.7996353              0.3585209
SP   3   1.00
     15.5396160             -0.1107775              0.0708743
      3.5999336             -0.1480263              0.3397528
      1.0137618              1.1307670              0.7271586
SP   1   1.00
      0.2700058              1.0000000              1.0000000
D    1   1.00
      2.5840000              1.0000000
D    1   1.00
      0.6460000              1.0000000
F    1   1.00
      1.4000000              1.0000000
****
F     0
S    6   1.00
   7001.7130900              0.0018196169
   1051.3660900              0.0139160796
    239.2856900              0.0684053245
     67.3974453              0.233185760
     21.5199573              0.471267439
      7.40310130             0.356618546
SP   3   1.00
     20.8479528             -0.108506975            0.0716287243
      4.80830834            -0.146451658            0.3459121030
      1.34406986             1.128688580            0.7224699570
SP   1   1.00
      0.358151393            1.0000000              1.0000000
D    1   1.00
      3.5000000              1.0000000
D    1   1.00
      0.8750000              1.0000000
F    1   1.00
      1.8500000              1.0000000
****
Al     0
S    6   1.00
  13983.1000000              0.00194267
   2098.7500000              0.0148599
    477.7050000              0.0728494
    134.3600000              0.2468300
     42.8709000              0.4872580
     14.5189000              0.3234960
SP   6   1.00
    239.6680000             -0.00292619             0.00460285
     57.4419000             -0.0374080              0.0331990
     18.2859000             -0.1144870              0.1362820
      6.5991400              0.1156350              0.3304760
      2.4904900              0.6125950              0.4491460
      0.9445400              0.3937990              0.2657040
SP   3   1.00
      1.2779000             -0.2276060             -0.0175130
      0.3975900              0.00144583             0.2445330
      0.1600950              1.0927900              0.8049340
SP   1   1.00
      0.0556577              1.0000000              1.0000000
D    1   1.00
      0.6500000              1.0000000
D    1   1.00
      0.1625000              1.0000000
F    1   1.00
      0.2500000              1.0000000
****
Si     0
S    6   1.00
  16115.9000000              0.00195948
   2425.5800000              0.01492880
    553.8670000              0.07284780
    156.3400000              0.24613000
     50.0683000              0.48591400
     17.0178000              0.32500200
SP   6   1.00
    292.7180000             -0.00278094             0.00443826
     69.8731000             -0.03571460             0.03266790
     22.3363000             -0.11498500             0.13472100
      8.1503900              0.09356340             0.32867800
      3.1345800              0.60301700             0.44964000
      1.2254300              0.41895900             0.26137200
SP   3   1.00
      1.7273800             -0.24463000            -0.01779510
      0.5729220              0.00431572             0.25353900
      0.2221920              1.09818000             0.80066900
SP   1   1.00
      0.0778369              1.00000000             1.00000000
D    1   1.00
      0.9000000              1.0000000
D    1   1.00
      0.2250000              1.0000000
F    1   1.00
      0.3200000              1.0000000
****
P     0
S    6   1.00
  19413.3000000              0.0018516
   2909.4200000              0.0142062
    661.3640000              0.0699995
    185.7590000              0.2400790
     59.1943000              0.4847620
     20.0310000              0.3352000
SP   6   1.00
    339.4780000             -0.00278217             0.00456462
     81.0101000             -0.0360499              0.03369360
     25.8780000             -0.1166310              0.13975500
      9.4522100              0.0968328              0.33936200
      3.6656600              0.6144180              0.45092100
      1.4674600              0.4037980              0.23858600
SP   3   1.00
      2.1562300             -0.2529230             -0.01776530
      0.7489970              0.0328517              0.27405800
      0.2831450              1.0812500              0.78542100
SP   1   1.00
      0.0998317              1.0000000              1.00000000
D    1   1.00
      1.1000000              1.0000000
D    1   1.00
      0.2750000              1.0000000
F    1   1.00
      0.4500000              1.0000000
****
S     0
S    6   1.00
  21917.1000000              0.0018690
   3301.4900000              0.0142300
    754.1460000              0.0696960
    212.7110000              0.2384870
     67.9896000              0.4833070
     23.0515000              0.3380740
SP   6   1.00
    423.7350000             -0.0023767              0.0040610
    100.7100000             -0.0316930              0.0306810
     32.1599000             -0.1133170              0.1304520
     11.8079000              0.0560900              0.3272050
      4.6311000              0.5922550              0.4528510
      1.8702500              0.4550060              0.2560420
SP   3   1.00
      2.6158400             -0.2503740             -0.0145110
      0.9221670              0.0669570              0.3102630
      0.3412870              1.0545100              0.7544830
SP   1   1.00
      0.1171670              1.0000000              1.0000000
D    1   1.00
      1.3000000              1.0000000
D    1   1.00
      0.3250000              1.0000000
F    1   1.00
      0.5500000              1.0000000
****
Cl     0
S    6   1.00
  25180.1000000              0.0018330
   3780.3500000              0.0140340
    860.4740000              0.0690970
    242.1450000              0.2374520
     77.3349000              0.4830340
     26.2470000              0.3398560
SP   6   1.00
    491.7650000             -0.0022974              0.0039894
    116.9840000             -0.0307140              0.0303180
     37.4153000             -0.1125280              0.1298800
     13.7834000              0.0450160              0.3279510
      5.4521500              0.5893530              0.4535270
      2.2258800              0.4652060              0.2521540
SP   3   1.00
      3.1864900             -0.2518300             -0.0142990
      1.1442700              0.0615890              0.3235720
      0.4203770              1.0601800              0.7435070
SP   1   1.00
      0.1426570              1.0000000              1.0000000
D    1   1.00
      1.5000000              1.0000000
D    1   1.00
      0.3750000              1.0000000
F    1   1.00
      0.7000000              1.0000000
****
}


set {
reference rhf                          
freeze_core true
e_convergence 10                       
d_convergence 10                      
dft_spherical_points 1202
dft_radial_points 99
}

e = energy('b3lyp')

print_out('Grab this energy {0}'.format(e))
--------------------------------------------------------------------------

  Memory set to  13.039 GiB by Python driver.

Scratch directory: /tmp/

*** tstart() called on n074
*** at Fri Oct 22 17:29:02 2021

   => Loading Basis Set <=

    Name: ANONYMOUS225FE21E
    Role: ORBITAL
    Keyword: BASIS
    atoms 1, 4-5   entry C          line    48 inputblock 6-31g_2dfp_ 
    atoms 2-3, 6-7 entry H          line    15 inputblock 6-31g_2dfp_ 


         ---------------------------------------------------------
                                   SCF
               by Justin Turney, Rob Parrish, Andy Simmonett
                          and Daniel G. A. Smith
                              RKS Reference
                        1 Threads,  13351 MiB Core
         ---------------------------------------------------------

  ==> Geometry <==

    Molecular point group: c1
    Full point group: C1

    Geometry (in Bohr), charge = 0, multiplicity = 1:

       Center              X                  Y                   Z               Mass       
    ------------   -----------------  -----------------  -----------------  -----------------
         C           -0.002995937083    -0.000175987755     1.674424089512    12.000000000000
         H           -0.002996892883    -1.722194859655     2.786992896512     1.007825032230
         H           -0.004567821383     1.723700116445     2.789243037712     1.007825032230
         C            1.231516462317    -0.000278212455    -0.914304138788    12.000000000000
         C           -1.227555314183     0.000341529345    -0.904751306888    12.000000000000
         H            2.984831773917    -0.000402728055    -1.928411640588     1.007825032230
         H           -2.988759662283     0.000239023945    -1.925723513788     1.007825032230

  Running in c1 symmetry.

  Rotational constants: A =      0.99926  B =      0.72846  C =      0.45983 [cm^-1]
  Rotational constants: A =  29957.02006  B =  21838.70870  C =  13785.40585 [MHz]
  Nuclear repulsion =   63.666294626798006

  Charge       = 0
  Multiplicity = 1
  Electrons    = 22
  Nalpha       = 11
  Nbeta        = 11

  ==> Algorithm <==

  SCF Algorithm Type is DF.
  DIIS enabled.
  MOM disabled.
  Fractional occupation disabled.
  Guess Type is SAD.
  Energy threshold   = 1.00e-10
  Density threshold  = 1.00e-10
  Integral threshold = 0.00e+00

  ==> Primary Basis <==

  Basis Set: ANONYMOUS225FE21E
    Blend: 6-31G_2DFP_
    Number of shells: 40
    Number of basis function: 110
    Number of Cartesian functions: 125
    Spherical Harmonics?: true
    Max angular momentum: 3

  ==> DFT Potential <==

   => Composite Functional: B3LYP <= 

    B3LYP Hyb-GGA Exchange-Correlation Functional

    P. J. Stephens, F. J. Devlin, C. F. Chabalowski, and M. J. Frisch, J. Phys. Chem. 98, 11623 (1994)

    Deriv               =              1
    GGA                 =           TRUE
    Meta                =          FALSE

    Exchange Hybrid     =           TRUE
    MP2 Hybrid          =          FALSE

   => Exchange Functionals <=

    0.0800   Slater exchange
    0.7200         Becke 88

   => Exact (HF) Exchange <=

    0.2000               HF 

   => Correlation Functionals <=

    0.1900   Vosko, Wilk & Nusair (VWN5_RPA)
    0.8100   Lee, Yang & Parr

   => Molecular Quadrature <=

    Radial Scheme          =       TREUTLER
    Pruning Scheme         =           NONE
    Nuclear Scheme         =       TREUTLER

    BS radius alpha        =              1
    Pruning alpha          =              1
    Radial Points          =             99
    Spherical Points       =           1202
    Total Points           =         786316
    Total Blocks           =           5419
    Max Points             =            256
    Max Functions          =            110
    Weights Tolerance      =       1.00E-15

   => Loading Basis Set <=

    Name: (ANONYMOUS225FE21E AUX)
    Role: JKFIT
    Keyword: DF_BASIS_SCF
    atoms 1, 4-5   entry C          line   198 file /opt/psi/4/master/share/psi4/basis/def2-universal-jkfit.gbs 
    atoms 2-3, 6-7 entry H          line    18 file /opt/psi/4/master/share/psi4/basis/def2-universal-jkfit.gbs 

  ==> Integral Setup <==

  DFHelper Memory: AOs need 0.030 GiB; user supplied 7.529 GiB. Using in-core AOs.

  ==> MemDFJK: Density-Fitted J/K Matrices <==

    J tasked:                   Yes
    K tasked:                   Yes
    wK tasked:                   No
    OpenMP threads:               1
    Memory [MiB]:              7709
    Algorithm:                 Core
    Schwarz Cutoff:           1E-12
    Mask sparsity (%):       0.0000
    Fitting Condition:        1E-10

   => Auxiliary Basis Set <=

  Basis Set: (ANONYMOUS225FE21E AUX)
    Blend: DEF2-UNIVERSAL-JKFIT
    Number of shells: 99
    Number of basis function: 297
    Number of Cartesian functions: 347
    Spherical Harmonics?: true
    Max angular momentum: 4

  Cached 100.0% of DFT collocation blocks in 2.250 [GiB].

  Minimum eigenvalue in the overlap matrix is 5.1305356788E-04.
  Reciprocal condition number of the overlap matrix is 9.2110061487E-05.
    Using symmetric orthogonalization.

  ==> Pre-Iterations <==

  SCF Guess: Superposition of Atomic Densities via on-the-fly atomic UHF (no occupation information).

   -------------------------
    Irrep   Nso     Nmo    
   -------------------------
     A        110     110 
   -------------------------
    Total     110     110
   -------------------------

  ==> Iterations <==

                           Total Energy        Delta E     RMS |[F,P]|

   @DF-RKS iter SAD:  -116.25505503382426   -1.16255e+02   0.00000e+00 
   @DF-RKS iter   1:  -116.41822277263357   -1.63168e-01   5.59882e-03 DIIS
   @DF-RKS iter   2:  -116.35106000969925    6.71628e-02   6.46843e-03 DIIS
   @DF-RKS iter   3:  -116.62840926500257   -2.77349e-01   3.45570e-04 DIIS
   @DF-RKS iter   4:  -116.62883983222466   -4.30567e-04   2.17499e-04 DIIS
   @DF-RKS iter   5:  -116.62912476719191   -2.84935e-04   4.41698e-05 DIIS
   @DF-RKS iter   6:  -116.62913561078226   -1.08436e-05   1.30321e-05 DIIS
   @DF-RKS iter   7:  -116.62913652553021   -9.14748e-07   4.96227e-06 DIIS
   @DF-RKS iter   8:  -116.62913667921153   -1.53681e-07   1.88071e-07 DIIS
   @DF-RKS iter   9:  -116.62913667944133   -2.29804e-10   2.70763e-08 DIIS
   @DF-RKS iter  10:  -116.62913667944598   -4.64695e-12   2.83918e-09 DIIS
   @DF-RKS iter  11:  -116.62913667944591    7.10543e-14   1.74277e-10 DIIS
   @DF-RKS iter  12:  -116.62913667944606   -1.56319e-13   6.09001e-11 DIIS
  Energy and wave function converged.


  ==> Post-Iterations <==

    Orbital Energies [Eh]
    ---------------------

    Doubly Occupied:                                                      

       1A    -10.194582     2A    -10.193464     3A    -10.189457  
       4A     -0.859931     5A     -0.596433     6A     -0.561605  
       7A     -0.499533     8A     -0.431462     9A     -0.342082  
      10A     -0.291215    11A     -0.248003  

    Virtual:                                                              

      12A      0.011956    13A      0.116135    14A      0.116240  
      15A      0.136313    16A      0.169895    17A      0.177660  
      18A      0.218831    19A      0.311217    20A      0.375295  
      21A      0.450510    22A      0.461371    23A      0.474905  
      24A      0.486081    25A      0.501508    26A      0.537515  
      27A      0.570241    28A      0.575013    29A      0.592236  
      30A      0.616094    31A      0.660010    32A      0.670236  
      33A      0.677344    34A      0.709788    35A      0.802028  
      36A      0.803777    37A      0.881764    38A      0.897519  
      39A      0.938903    40A      1.008592    41A      1.010972  
      42A      1.021121    43A      1.117927    44A      1.127395  
      45A      1.159573    46A      1.195281    47A      1.234740  
      48A      1.276036    49A      1.321491    50A      1.343550  
      51A      1.449376    52A      1.464564    53A      1.475092  
      54A      1.529027    55A      1.607342    56A      1.625526  
      57A      1.729409    58A      1.827089    59A      1.902205  
      60A      2.036081    61A      2.293235    62A      2.628136  
      63A      2.628400    64A      2.637936    65A      2.654205  
      66A      2.795545    67A      2.822416    68A      2.826816  
      69A      2.892443    70A      2.902032    71A      3.031735  
      72A      3.069008    73A      3.098448    74A      3.105687  
      75A      3.138427    76A      3.234185    77A      3.269834  
      78A      3.284912    79A      3.360334    80A      3.364358  
      81A      3.368572    82A      3.461171    83A      3.511094  
      84A      3.519078    85A      3.529911    86A      3.564209  
      87A      3.662375    88A      3.785284    89A      3.818451  
      90A      3.840896    91A      3.907338    92A      3.954436  
      93A      3.999007    94A      4.128690    95A      4.187396  
      96A      4.205800    97A      4.372728    98A      4.388268  
      99A      4.428587   100A      4.493138   101A      4.538355  
     102A      4.553486   103A      4.615871   104A      4.857132  
     105A      4.914289   106A      5.015540   107A      5.172012  
     108A      5.177808   109A      5.272836   110A      5.363495  

    Final Occupation by Irrep:
              A 
    DOCC [    11 ]

  @DF-RKS Final Energy:  -116.62913667944606

   => Energetics <=

    Nuclear Repulsion Energy =             63.6662946267980061
    One-Electron Energy =                -281.4524704222820333
    Two-Electron Energy =                 115.5080228454540219
    DFT Exchange-Correlation Energy =     -14.3509837294160434
    Empirical Dispersion Energy =           0.0000000000000000
    VV10 Nonlocal Energy =                  0.0000000000000000
    Total Energy =                       -116.6291366794460629

Computation Completed


Properties will be evaluated at   0.000000,   0.000000,   0.000000 [a0]

Properties computed using the SCF density matrix

  Nuclear Dipole Moment: [e a0]
     X:    -0.0057      Y:     0.0007      Z:     0.8543

  Electronic Dipole Moment: [e a0]
     X:     0.0056      Y:    -0.0011      Z:    -1.0522

  Dipole Moment: [e a0]
     X:    -0.0001      Y:    -0.0004      Z:    -0.1979     Total:     0.1979

  Dipole Moment: [D]
     X:    -0.0002      Y:    -0.0011      Z:    -0.5029     Total:     0.5029


*** tstop() called on n074 at Fri Oct 22 17:29:33 2021
Module time:
	user time   =      30.22 seconds =       0.50 minutes
	system time =       0.62 seconds =       0.01 minutes
	total time  =         31 seconds =       0.52 minutes
Total time:
	user time   =      30.22 seconds =       0.50 minutes
	system time =       0.62 seconds =       0.01 minutes
	total time  =         31 seconds =       0.52 minutes
Grab this energy -116.62913667944606
    Psi4 stopped on: Friday, 22 October 2021 05:29PM
    Psi4 wall time for execution: 0:00:30.89

*** Psi4 exiting successfully. Buy a developer a beer!
