
    -----------------------------------------------------------------------
          Psi4: An Open-Source Ab Initio Electronic Structure Package
                               Psi4 1.4a2.dev629 

                         Git: Rev {master} 2938fc2 dirty


    D. G. A. Smith, L. A. Burns, A. C. Simmonett, R. M. Parrish,
    M. C. Schieber, R. Galvelis, P. Kraus, H. Kruse, R. Di Remigio,
    A. Alenaizan, A. M. James, S. Lehtola, J. P. Misiewicz, M. Scheurer,
    R. A. Shaw, J. B. Schriber, Y. Xie, Z. L. Glick, D. A. Sirianni,
    J. S. O'Brien, J. M. Waldrop, A. Kumar, E. G. Hohenstein,
    B. P. Pritchard, B. R. Brooks, H. F. Schaefer III, A. Yu. Sokolov,
    K. Patkowski, A. E. DePrince III, U. Bozkaya, R. A. King,
    F. A. Evangelista, J. M. Turney, T. D. Crawford, C. D. Sherrill,
    J. Chem. Phys. 152(18) 184108 (2020). https://doi.org/10.1063/5.0006002

                            Additional Code Authors
    E. T. Seidl, C. L. Janssen, E. F. Valeev, M. L. Leininger,
    J. F. Gonthier, R. M. Richard, H. R. McAlexander, M. Saitow, X. Wang,
    P. Verma, and M. H. Lechner

             Previous Authors, Complete List of Code Contributors,
                       and Citations for Specific Modules
    https://github.com/psi4/psi4/blob/master/codemeta.json
    https://github.com/psi4/psi4/graphs/contributors
    http://psicode.org/psi4manual/master/introduction.html#citing-psifour

    -----------------------------------------------------------------------


    Psi4 started on: Friday, 22 October 2021 05:33PM

    Process ID: 62697
    Host:       n070
    PSIDATADIR: /opt/psi/4/master/share/psi4
    Memory:     500.0 MiB
    Threads:    1
    
  ==> Input File <==

--------------------------------------------------------------------------
import os
memory 14 GB 
 
molecule {
 C   -0.0003139215   -0.0007372697    1.6739202980
 H   -0.0030604684   -1.7265472089    2.7858567678
 H    0.0001267227    1.7274710168    2.7875593207
 C    1.2348651208    0.0040518456   -0.9032826176
 C   -1.2278893189   -0.0028365205   -0.9126835121
 H    2.9845397935   -0.0011915531   -1.9298177927
 H   -2.9882679282   -0.0002103101   -1.9233163941
units bohr
}

basis {

assign 6-31g_2dfp_

[ 6-31g_2dfp_ ]

spherical

!----------------------------------------------------------------------
! Basis Set Exchange
! Version v0.8.13
! https://www.basissetexchange.org
!----------------------------------------------------------------------
!   Basis set: 6-31G(2df,p)
! Description: 6-31G(2df,p)
!        Role: orbital
!     Version: 0  (Data from the original Basis Set Exchange)
!----------------------------------------------------------------------


****
H     0
S    3   1.00
     18.7311370              0.03349460
      2.8253937              0.23472695
      0.6401217              0.81375733
S    1   1.00
      0.1612778              1.00000000
P    1   1.00
      1.5000000              1.0000000
P    1   1.00
      0.3750000              1.0000000
****
B     0
S    6   1.00
   2068.8823000              0.0018663
    310.6495700              0.0142515
     70.6830330              0.0695516
     19.8610800              0.2325729
      6.2993048              0.4670787
      2.1270270              0.3634314
SP   3   1.00
      4.7279710             -0.1303938              0.0745976
      1.1903377             -0.1307889              0.3078467
      0.3594117              1.1309444              0.7434568
SP   1   1.00
      0.1267512              1.0000000              1.0000000
D    1   1.00
      0.8020000              1.0000000
D    1   1.00
      0.2005000              1.0000000
F    1   1.00
      0.5000000              1.0000000
****
C     0
S    6   1.00
   3047.5249000              0.0018347
    457.3695100              0.0140373
    103.9486900              0.0688426
     29.2101550              0.2321844
      9.2866630              0.4679413
      3.1639270              0.3623120
SP   3   1.00
      7.8682724             -0.1193324              0.0689991
      1.8812885             -0.1608542              0.3164240
      0.5442493              1.1434564              0.7443083
SP   1   1.00
      0.1687144              1.0000000              1.0000000
D    1   1.00
      1.2520000              1.0000000
D    1   1.00
      0.3130000              1.0000000
F    1   1.00
      0.8000000              1.0000000
****
N     0
S    6   1.00
   4173.5110000              0.0018348
    627.4579000              0.0139950
    142.9021000              0.0685870
     40.2343300              0.2322410
     12.8202100              0.4690700
      4.3904370              0.3604550
SP   3   1.00
     11.6263580             -0.1149610              0.0675800
      2.7162800             -0.1691180              0.3239070
      0.7722180              1.1458520              0.7408950
SP   1   1.00
      0.2120313              1.0000000              1.0000000
D    1   1.00
      1.8260000              1.0000000
D    1   1.00
      0.4565000              1.0000000
F    1   1.00
      1.0000000              1.0000000
****
O     0
S    6   1.00
   5484.6717000              0.0018311
    825.2349500              0.0139501
    188.0469600              0.0684451
     52.9645000              0.2327143
     16.8975700              0.4701930
      5.7996353              0.3585209
SP   3   1.00
     15.5396160             -0.1107775              0.0708743
      3.5999336             -0.1480263              0.3397528
      1.0137618              1.1307670              0.7271586
SP   1   1.00
      0.2700058              1.0000000              1.0000000
D    1   1.00
      2.5840000              1.0000000
D    1   1.00
      0.6460000              1.0000000
F    1   1.00
      1.4000000              1.0000000
****
F     0
S    6   1.00
   7001.7130900              0.0018196169
   1051.3660900              0.0139160796
    239.2856900              0.0684053245
     67.3974453              0.233185760
     21.5199573              0.471267439
      7.40310130             0.356618546
SP   3   1.00
     20.8479528             -0.108506975            0.0716287243
      4.80830834            -0.146451658            0.3459121030
      1.34406986             1.128688580            0.7224699570
SP   1   1.00
      0.358151393            1.0000000              1.0000000
D    1   1.00
      3.5000000              1.0000000
D    1   1.00
      0.8750000              1.0000000
F    1   1.00
      1.8500000              1.0000000
****
Al     0
S    6   1.00
  13983.1000000              0.00194267
   2098.7500000              0.0148599
    477.7050000              0.0728494
    134.3600000              0.2468300
     42.8709000              0.4872580
     14.5189000              0.3234960
SP   6   1.00
    239.6680000             -0.00292619             0.00460285
     57.4419000             -0.0374080              0.0331990
     18.2859000             -0.1144870              0.1362820
      6.5991400              0.1156350              0.3304760
      2.4904900              0.6125950              0.4491460
      0.9445400              0.3937990              0.2657040
SP   3   1.00
      1.2779000             -0.2276060             -0.0175130
      0.3975900              0.00144583             0.2445330
      0.1600950              1.0927900              0.8049340
SP   1   1.00
      0.0556577              1.0000000              1.0000000
D    1   1.00
      0.6500000              1.0000000
D    1   1.00
      0.1625000              1.0000000
F    1   1.00
      0.2500000              1.0000000
****
Si     0
S    6   1.00
  16115.9000000              0.00195948
   2425.5800000              0.01492880
    553.8670000              0.07284780
    156.3400000              0.24613000
     50.0683000              0.48591400
     17.0178000              0.32500200
SP   6   1.00
    292.7180000             -0.00278094             0.00443826
     69.8731000             -0.03571460             0.03266790
     22.3363000             -0.11498500             0.13472100
      8.1503900              0.09356340             0.32867800
      3.1345800              0.60301700             0.44964000
      1.2254300              0.41895900             0.26137200
SP   3   1.00
      1.7273800             -0.24463000            -0.01779510
      0.5729220              0.00431572             0.25353900
      0.2221920              1.09818000             0.80066900
SP   1   1.00
      0.0778369              1.00000000             1.00000000
D    1   1.00
      0.9000000              1.0000000
D    1   1.00
      0.2250000              1.0000000
F    1   1.00
      0.3200000              1.0000000
****
P     0
S    6   1.00
  19413.3000000              0.0018516
   2909.4200000              0.0142062
    661.3640000              0.0699995
    185.7590000              0.2400790
     59.1943000              0.4847620
     20.0310000              0.3352000
SP   6   1.00
    339.4780000             -0.00278217             0.00456462
     81.0101000             -0.0360499              0.03369360
     25.8780000             -0.1166310              0.13975500
      9.4522100              0.0968328              0.33936200
      3.6656600              0.6144180              0.45092100
      1.4674600              0.4037980              0.23858600
SP   3   1.00
      2.1562300             -0.2529230             -0.01776530
      0.7489970              0.0328517              0.27405800
      0.2831450              1.0812500              0.78542100
SP   1   1.00
      0.0998317              1.0000000              1.00000000
D    1   1.00
      1.1000000              1.0000000
D    1   1.00
      0.2750000              1.0000000
F    1   1.00
      0.4500000              1.0000000
****
S     0
S    6   1.00
  21917.1000000              0.0018690
   3301.4900000              0.0142300
    754.1460000              0.0696960
    212.7110000              0.2384870
     67.9896000              0.4833070
     23.0515000              0.3380740
SP   6   1.00
    423.7350000             -0.0023767              0.0040610
    100.7100000             -0.0316930              0.0306810
     32.1599000             -0.1133170              0.1304520
     11.8079000              0.0560900              0.3272050
      4.6311000              0.5922550              0.4528510
      1.8702500              0.4550060              0.2560420
SP   3   1.00
      2.6158400             -0.2503740             -0.0145110
      0.9221670              0.0669570              0.3102630
      0.3412870              1.0545100              0.7544830
SP   1   1.00
      0.1171670              1.0000000              1.0000000
D    1   1.00
      1.3000000              1.0000000
D    1   1.00
      0.3250000              1.0000000
F    1   1.00
      0.5500000              1.0000000
****
Cl     0
S    6   1.00
  25180.1000000              0.0018330
   3780.3500000              0.0140340
    860.4740000              0.0690970
    242.1450000              0.2374520
     77.3349000              0.4830340
     26.2470000              0.3398560
SP   6   1.00
    491.7650000             -0.0022974              0.0039894
    116.9840000             -0.0307140              0.0303180
     37.4153000             -0.1125280              0.1298800
     13.7834000              0.0450160              0.3279510
      5.4521500              0.5893530              0.4535270
      2.2258800              0.4652060              0.2521540
SP   3   1.00
      3.1864900             -0.2518300             -0.0142990
      1.1442700              0.0615890              0.3235720
      0.4203770              1.0601800              0.7435070
SP   1   1.00
      0.1426570              1.0000000              1.0000000
D    1   1.00
      1.5000000              1.0000000
D    1   1.00
      0.3750000              1.0000000
F    1   1.00
      0.7000000              1.0000000
****
}


set {
reference rhf                          
freeze_core true
e_convergence 10                       
d_convergence 10                      
dft_spherical_points 1202
dft_radial_points 99
}

e = energy('b3lyp')

print_out('Grab this energy {0}'.format(e))
--------------------------------------------------------------------------

  Memory set to  13.039 GiB by Python driver.

Scratch directory: /tmp/

*** tstart() called on n070
*** at Fri Oct 22 17:33:51 2021

   => Loading Basis Set <=

    Name: ANONYMOUSD2A5B704
    Role: ORBITAL
    Keyword: BASIS
    atoms 1, 4-5   entry C          line    48 inputblock 6-31g_2dfp_ 
    atoms 2-3, 6-7 entry H          line    15 inputblock 6-31g_2dfp_ 


         ---------------------------------------------------------
                                   SCF
               by Justin Turney, Rob Parrish, Andy Simmonett
                          and Daniel G. A. Smith
                              RKS Reference
                        1 Threads,  13351 MiB Core
         ---------------------------------------------------------

  ==> Geometry <==

    Molecular point group: c1
    Full point group: C1

    Geometry (in Bohr), charge = 0, multiplicity = 1:

       Center              X                  Y                   Z               Mass       
    ------------   -----------------  -----------------  -----------------  -----------------
         C           -0.002143203955    -0.000868538699     1.673191039082    12.000000000000
         H           -0.004889750855    -1.726678477899     2.785127508882     1.007825032230
         H           -0.001702559755     1.727339747801     2.786830061782     1.007825032230
         C            1.233035838345     0.003920576601    -0.904011876518    12.000000000000
         C           -1.229718601355    -0.002967789499    -0.913412771018    12.000000000000
         H            2.982710511045    -0.001322822099    -1.930547051618     1.007825032230
         H           -2.990097210655    -0.000341579099    -1.924045653018     1.007825032230

  Running in c1 symmetry.

  Rotational constants: A =      0.99701  B =      0.72919  C =      0.45984 [cm^-1]
  Rotational constants: A =  29889.73783  B =  21860.44168  C =  13785.74031 [MHz]
  Nuclear repulsion =   63.648570228404843

  Charge       = 0
  Multiplicity = 1
  Electrons    = 22
  Nalpha       = 11
  Nbeta        = 11

  ==> Algorithm <==

  SCF Algorithm Type is DF.
  DIIS enabled.
  MOM disabled.
  Fractional occupation disabled.
  Guess Type is SAD.
  Energy threshold   = 1.00e-10
  Density threshold  = 1.00e-10
  Integral threshold = 0.00e+00

  ==> Primary Basis <==

  Basis Set: ANONYMOUSD2A5B704
    Blend: 6-31G_2DFP_
    Number of shells: 40
    Number of basis function: 110
    Number of Cartesian functions: 125
    Spherical Harmonics?: true
    Max angular momentum: 3

  ==> DFT Potential <==

   => Composite Functional: B3LYP <= 

    B3LYP Hyb-GGA Exchange-Correlation Functional

    P. J. Stephens, F. J. Devlin, C. F. Chabalowski, and M. J. Frisch, J. Phys. Chem. 98, 11623 (1994)

    Deriv               =              1
    GGA                 =           TRUE
    Meta                =          FALSE

    Exchange Hybrid     =           TRUE
    MP2 Hybrid          =          FALSE

   => Exchange Functionals <=

    0.0800   Slater exchange
    0.7200         Becke 88

   => Exact (HF) Exchange <=

    0.2000               HF 

   => Correlation Functionals <=

    0.1900   Vosko, Wilk & Nusair (VWN5_RPA)
    0.8100   Lee, Yang & Parr

   => Molecular Quadrature <=

    Radial Scheme          =       TREUTLER
    Pruning Scheme         =           NONE
    Nuclear Scheme         =       TREUTLER

    BS radius alpha        =              1
    Pruning alpha          =              1
    Radial Points          =             99
    Spherical Points       =           1202
    Total Points           =         786350
    Total Blocks           =           5437
    Max Points             =            256
    Max Functions          =            110
    Weights Tolerance      =       1.00E-15

   => Loading Basis Set <=

    Name: (ANONYMOUSD2A5B704 AUX)
    Role: JKFIT
    Keyword: DF_BASIS_SCF
    atoms 1, 4-5   entry C          line   198 file /opt/psi/4/master/share/psi4/basis/def2-universal-jkfit.gbs 
    atoms 2-3, 6-7 entry H          line    18 file /opt/psi/4/master/share/psi4/basis/def2-universal-jkfit.gbs 

  ==> Integral Setup <==

  DFHelper Memory: AOs need 0.030 GiB; user supplied 7.529 GiB. Using in-core AOs.

  ==> MemDFJK: Density-Fitted J/K Matrices <==

    J tasked:                   Yes
    K tasked:                   Yes
    wK tasked:                   No
    OpenMP threads:               1
    Memory [MiB]:              7709
    Algorithm:                 Core
    Schwarz Cutoff:           1E-12
    Mask sparsity (%):       0.0000
    Fitting Condition:        1E-10

   => Auxiliary Basis Set <=

  Basis Set: (ANONYMOUSD2A5B704 AUX)
    Blend: DEF2-UNIVERSAL-JKFIT
    Number of shells: 99
    Number of basis function: 297
    Number of Cartesian functions: 347
    Spherical Harmonics?: true
    Max angular momentum: 4

  Cached 100.0% of DFT collocation blocks in 2.250 [GiB].

  Minimum eigenvalue in the overlap matrix is 5.1720674552E-04.
  Reciprocal condition number of the overlap matrix is 9.2878558111E-05.
    Using symmetric orthogonalization.

  ==> Pre-Iterations <==

  SCF Guess: Superposition of Atomic Densities via on-the-fly atomic UHF (no occupation information).

   -------------------------
    Irrep   Nso     Nmo    
   -------------------------
     A        110     110 
   -------------------------
    Total     110     110
   -------------------------

  ==> Iterations <==

                           Total Energy        Delta E     RMS |[F,P]|

   @DF-RKS iter SAD:  -116.25360383817036   -1.16254e+02   0.00000e+00 
   @DF-RKS iter   1:  -116.41865981899832   -1.65056e-01   5.59145e-03 DIIS
   @DF-RKS iter   2:  -116.35158712759127    6.70727e-02   6.46123e-03 DIIS
   @DF-RKS iter   3:  -116.62837116604021   -2.76784e-01   3.45859e-04 DIIS
   @DF-RKS iter   4:  -116.62880162319611   -4.30457e-04   2.18161e-04 DIIS
   @DF-RKS iter   5:  -116.62908854984316   -2.86927e-04   4.37706e-05 DIIS
   @DF-RKS iter   6:  -116.62909912724714   -1.05774e-05   1.32718e-05 DIIS
   @DF-RKS iter   7:  -116.62910008608118   -9.58834e-07   4.89358e-06 DIIS
   @DF-RKS iter   8:  -116.62910023569930   -1.49618e-07   1.88701e-07 DIIS
   @DF-RKS iter   9:  -116.62910023593025   -2.30955e-10   2.70646e-08 DIIS
   @DF-RKS iter  10:  -116.62910023593494   -4.68958e-12   2.79834e-09 DIIS
   @DF-RKS iter  11:  -116.62910023593510   -1.56319e-13   1.85325e-10 DIIS
   @DF-RKS iter  12:  -116.62910023593513   -2.84217e-14   8.63796e-11 DIIS
  Energy and wave function converged.


  ==> Post-Iterations <==

    Orbital Energies [Eh]
    ---------------------

    Doubly Occupied:                                                      

       1A    -10.194648     2A    -10.193583     3A    -10.189849  
       4A     -0.859777     5A     -0.596009     6A     -0.561905  
       7A     -0.499469     8A     -0.431474     9A     -0.341427  
      10A     -0.291787    11A     -0.247599  

    Virtual:                                                              

      12A      0.011504    13A      0.116064    14A      0.116377  
      15A      0.136196    16A      0.169775    17A      0.177248  
      18A      0.219073    19A      0.310723    20A      0.375132  
      21A      0.450120    22A      0.461263    23A      0.475160  
      24A      0.486836    25A      0.501493    26A      0.537329  
      27A      0.569911    28A      0.575046    29A      0.592039  
      30A      0.616128    31A      0.659556    32A      0.669902  
      33A      0.677135    34A      0.709517    35A      0.801811  
      36A      0.803848    37A      0.881694    38A      0.896954  
      39A      0.938732    40A      1.008776    41A      1.010022  
      42A      1.021046    43A      1.117758    44A      1.126224  
      45A      1.159378    46A      1.194600    47A      1.234894  
      48A      1.275864    49A      1.320983    50A      1.343935  
      51A      1.448920    52A      1.465754    53A      1.474423  
      54A      1.529592    55A      1.606808    56A      1.623732  
      57A      1.729034    58A      1.826828    59A      1.901396  
      60A      2.033951    61A      2.291825    62A      2.625559  
      63A      2.630742    64A      2.638115    65A      2.654556  
      66A      2.795125    67A      2.822633    68A      2.825915  
      69A      2.893588    70A      2.902117    71A      3.033457  
      72A      3.068644    73A      3.098433    74A      3.104707  
      75A      3.137217    76A      3.235311    77A      3.270150  
      78A      3.285733    79A      3.359763    80A      3.363307  
      81A      3.368091    82A      3.460249    83A      3.512080  
      84A      3.518820    85A      3.530844    86A      3.563632  
      87A      3.661439    88A      3.785312    89A      3.818774  
      90A      3.840841    91A      3.907879    92A      3.954030  
      93A      3.996968    94A      4.127180    95A      4.186854  
      96A      4.203013    97A      4.370593    98A      4.388451  
      99A      4.426990   100A      4.490694   101A      4.536479  
     102A      4.551036   103A      4.615288   104A      4.854079  
     105A      4.914435   106A      5.011964   107A      5.166173  
     108A      5.177352   109A      5.272794   110A      5.365484  

    Final Occupation by Irrep:
              A 
    DOCC [    11 ]

  @DF-RKS Final Energy:  -116.62910023593513

   => Energetics <=

    Nuclear Repulsion Energy =             63.6485702284048429
    One-Electron Energy =                -281.4182200033760068
    Two-Electron Energy =                 115.4904008265672957
    DFT Exchange-Correlation Energy =     -14.3498512875312603
    Empirical Dispersion Energy =           0.0000000000000000
    VV10 Nonlocal Energy =                  0.0000000000000000
    Total Energy =                       -116.6291002359351268

Computation Completed


Properties will be evaluated at   0.000000,   0.000000,   0.000000 [a0]

Properties computed using the SCF density matrix

  Nuclear Dipole Moment: [e a0]
     X:    -0.0069      Y:    -0.0005      Z:     0.8520

  Electronic Dipole Moment: [e a0]
     X:     0.0043      Y:    -0.0004      Z:    -1.0499

  Dipole Moment: [e a0]
     X:    -0.0027      Y:    -0.0009      Z:    -0.1979     Total:     0.1979

  Dipole Moment: [D]
     X:    -0.0067      Y:    -0.0024      Z:    -0.5030     Total:     0.5031


*** tstop() called on n070 at Fri Oct 22 17:34:29 2021
Module time:
	user time   =      37.15 seconds =       0.62 minutes
	system time =       0.71 seconds =       0.01 minutes
	total time  =         38 seconds =       0.63 minutes
Total time:
	user time   =      37.15 seconds =       0.62 minutes
	system time =       0.71 seconds =       0.01 minutes
	total time  =         38 seconds =       0.63 minutes
Grab this energy -116.62910023593513
    Psi4 stopped on: Friday, 22 October 2021 05:34PM
    Psi4 wall time for execution: 0:00:37.94

*** Psi4 exiting successfully. Buy a developer a beer!
