
 Primary working directories    : /tmp/856074.537.gen6.q
 Secondary working directories  : /tmp/856074.537.gen6.q
 Wavefunction directory         : /home/vulcan/lo21740/wfu/
 Main file repository           : /tmp/856074.537.gen6.q/

 ARCHNAME  : Linux/x86_64
 FC        : /opt/intel/compilers_and_libraries_2016.1.150/linux/bin/intel64/ifort
 FCVERSION : 16.0.1
 BLASLIB   : -mkl
 id        : ccgc

 Nodes     nprocs
 n078         1
 ga_uses_ma=false, calling ma_init with nominal heap.
 GA-space will be limited to   8.0 MW (determined by -G option)

 Using customized tuning parameters: mindgm=10; mindgv=16; mindgc=4; mindgr=1; noblas=0; mincuda=1000; minvec=7
 default implementation of scratch files=df  

 ***,Optimization of h2o_2
 memory,1000,m
 gthresh,energy=1.0d-12,orbital=1.0d-10,oneint=1.0d-16,twoint=1.0d-16,optgrad=1.0d-6,compress=1.0d-13
 geomtyp=xyz
 
 bohr
 geometry = {
  C    0.0004525051   -3.4209894304   -0.0000000000
  H   -0.9705185967   -2.7318054095   -1.6812300934
  H   -0.9705185967   -2.7318054095    1.6812300934
  H    1.9414535862   -2.7304816751   -0.0000000000
  H    0.0013894804   -5.4822802453   -0.0000000000
  C   -0.0004539231    3.4231525418    0.0000000000
  H   -0.0013877695    5.4796417811    0.0000000000
  H    0.9733783431    2.7319642550   -1.6861845740
  H    0.9733783431    2.7319642550    1.6861845740
  H   -1.9471733720    2.7306393370   -0.0000000000
 }
 
 basis=VDZ
 {rhf;maxit,200}
 {ccsd(t);maxit,200}

 Variables initialized (661), CPU time= 0.00 sec
 Commands  initialized (458), CPU time= 0.01 sec, 486 directives.
 Default parameters read. Elapsed time= 0.05 sec

 Checking input...
 Passed
1


                                         ***  PROGRAM SYSTEM MOLPRO  ***
                         Copyright, University College Cardiff Consultants Limited, 2008

                                    Version 2010.1 linked May 16 2016 07:17:05


 **********************************************************************************************************************************
 LABEL *   Optimization of h2o_2                                                         
 Linux-4.4.3/n078(x86_64) 64 bit mpp version                                             DATE: 12-Apr-23          TIME: 13:54:06  
 **********************************************************************************************************************************

 SHA1:             9e8077add272b0f3cad6f7df79ec5211205f459d
 **********************************************************************************************************************************

 THRESHOLDS:

 ZERO    =  1.00D-12  ONEINT  =  1.00D-16  TWOINT  =  1.00D-16  PREFAC  =  1.00D-14  LOCALI  =  1.00D-09  EORDER  =  1.00D-04
 ENERGY  =  1.00D-12  ETEST   =  0.00D+00  EDENS   =  0.00D+00  THRDEDEF=  1.00D-06  GRADIENT=  1.00D-02  STEP    =  1.00D-03
 ORBITAL =  1.00D-10  CIVEC   =  1.00D-05  COEFF   =  1.00D-04  PRINTCI =  5.00D-02  PUNCHCI =  9.90D+01  OPTGRAD =  1.00D-06
 OPTENERG=  1.00D-06  OPTSTEP =  3.00D-04  THRGRAD =  1.00D-10  COMPRESS=  1.00D-13  VARMIN  =  1.00D-07  VARMAX  =  1.00D-03
 THRDOUB =  0.00D+00  THRDIV  =  1.00D-05  THRRED  =  1.00D-07  THRPSP  =  1.00D+00  THRDC   =  1.00D-10  THRCS   =  1.00D-10
 THRNRM  =  1.00D-08  THREQ   =  0.00D+00  THRDE   =  1.00D+00  THRREF  =  1.00D-05  SPARFAC =  1.00D+00  THRDLP  =  1.00D-07
 THRDIA  =  1.00D-10  THRDLS  =  1.00D-07  THRGPS  =  0.00D+00  THRKEX  =  0.00D+00  THRDIS  =  2.00D-01  THRVAR  =  1.00D-10
 THRLOC  =  1.00D-06  THRGAP  =  1.00D-06  THRLOCT = -1.00D+00  THRGAPT = -1.00D+00  THRORB  =  1.00D-06  THRMLTP =  0.00D+00
 THRCPQCI=  1.00D-10  KEXTA   =  0.00D+00  THRCOARS=  0.00D+00  SYMTOL  =  1.00D-06  GRADTOL =  1.00D-06  THROVL  =  1.00D-08
 THRORTH =  1.00D-08  GRID    =  1.00D-06  GRIDMAX =  1.00D-03  DTMAX   =  0.00D+00

 SETTING GEOMTYP        =    XYZ
 ZUNIT=BOHR
 

 Variable memory set to 1000000000 words,  buffer space   230000 words

 SETTING BASIS          =    VDZ


 Recomputing integrals since basis changed


 Using spherical harmonics

 Library entry C      S cc-pVDZ              selected for orbital group  1
 Library entry C      P cc-pVDZ              selected for orbital group  1
 Library entry C      D cc-pVDZ              selected for orbital group  1
 Library entry H      S cc-pVDZ              selected for orbital group  2
 Library entry H      P cc-pVDZ              selected for orbital group  2

1PROGRAM * SEWARD (Integral evaluation for generally contracted gaussian basis sets)     Author: Roland Lindh, 1990

 Geometry written to block  1 of record 700


 Point group  Cs  



 ATOMIC COORDINATES

 NR  ATOM    CHARGE       X              Y              Z

   1  C       6.00    0.000452505   -3.420989430    0.000000000
   2  H       1.00   -0.970518597   -2.731805410   -1.681230093
   3  H       1.00   -0.970518597   -2.731805410    1.681230093
   4  H       1.00    1.941453586   -2.730481675    0.000000000
   5  H       1.00    0.001389480   -5.482280245    0.000000000
   6  C       6.00   -0.000453923    3.423152542    0.000000000
   7  H       1.00   -0.001387770    5.479641781    0.000000000
   8  H       1.00    0.973378343    2.731964255   -1.686184574
   9  H       1.00    0.973378343    2.731964255    1.686184574
  10  H       1.00   -1.947173372    2.730639337    0.000000000

 Bond lengths in Bohr (Angstrom)

 1-2  2.060168469  1-3  2.060168469  1-4  2.060166536  1-5  2.061291028  6-7  2.056489451
     ( 1.090194201)     ( 1.090194201)     ( 1.090193178)     ( 1.090788233)     ( 1.088247348)

  6- 8  2.066230613   6- 9  2.066230613   6-10  2.066226307
       ( 1.093402149)       ( 1.093402149)       ( 1.093399870)

 Bond angles

  2-1-3  109.38548235   2-1-4  109.38541419   2-1-5  109.55686162   3-1-4  109.38541419

  3-1-5  109.55686162   4-1-5  109.55688294   7-6-8  109.55615133   7-6-9  109.55615133

  7- 6-10  109.55615558   8- 6- 9  109.38619059   8- 6-10  109.38613743   9- 6-10  109.38613743

 NUCLEAR CHARGE:                   20
 NUMBER OF PRIMITIVE AOS:         110
 NUMBER OF SYMMETRY AOS:          108
 NUMBER OF CONTRACTIONS:           68   (  46A'  +  22A"  )
 NUMBER OF CORE ORBITALS:           2   (   2A'  +   0A"  )
 NUMBER OF VALENCE ORBITALS:       16   (  12A'  +   4A"  )


 NUCLEAR REPULSION ENERGY   41.31127658


 Eigenvalues of metric

         1 0.113E-01 0.127E-01 0.350E-01 0.356E-01 0.375E-01 0.386E-01 0.415E-01 0.511E-01
         2 0.350E-01 0.386E-01 0.561E-01 0.581E-01 0.127E+00 0.144E+00 0.291E+00 0.293E+00


 Contracted 2-electron integrals neglected if value below      1.0D-16
 AO integral compression algorithm  1   Integral accuracy      1.0D-16

     11.796 MB (compressed) written to integral file ( 90.8%)

     Node minimum: 11.796 MB, node maximum: 11.796 MB


 NUMBER OF SORTED TWO-ELECTRON INTEGRALS:    1437431.     BUFFER LENGTH:  32768
 NUMBER OF SEGMENTS:   1  SEGMENT LENGTH:    1437431      RECORD LENGTH: 524288

 Memory used in sort:       1.99 MW

 SORT1 READ     1639638. AND WROTE     1407863. INTEGRALS IN      5 RECORDS. CPU TIME:     0.02 SEC, REAL TIME:     0.03 SEC
 SORT2 READ     1407863. AND WROTE     1437431. INTEGRALS IN     45 RECORDS. CPU TIME:     0.02 SEC, REAL TIME:     0.03 SEC

 FILE SIZES:   FILE 1:    13.0 MBYTE,  FILE 4:    21.0 MBYTE,   TOTAL:     34.0 MBYTE

 OPERATOR DM      FOR CENTER  0  COORDINATES:    0.000000    0.000000    0.000000


 **********************************************************************************************************************************
 DATASETS  * FILE   NREC   LENGTH (MB)   RECORD NAMES
              1      19       13.06       500      610      700      900      950      970     1000      129      960     1100   
                                          VAR    BASINP    GEOM    SYMINP    ZMAT    AOBASIS   BASIS     P2S    ABASIS      S 
                                         1400     1410     1200     1210     1080     1600     1650     1300     1700   
                                           T        V       H0       H01     AOSYM     SMH    MOLCAS    ERIS     OPER   

 PROGRAMS   *        TOTAL       INT
 CPU TIMES  *         0.35      0.31
 REAL TIME  *         0.56 SEC
 DISK USED  *        46.60 MB      
 GA USED    *         0.00 MB       (max)       0.00 MB       (current)
 **********************************************************************************************************************************

1PROGRAM * RHF-SCF (CLOSED SHELL)       Authors: W. Meyer, H.-J. Werner


 NUMBER OF ELECTRONS:      10+   10-
 CONVERGENCE THRESHOLDS:    1.00E-10 (Density)    1.00E-13 (Energy)
 MAX. NUMBER OF ITERATIONS:      200
 INTERPOLATION TYPE:            DIIS
 INTERPOLATION STEPS:              2 (START)      1 (STEP)
 LEVEL SHIFTS:                  0.00 (CLOSED)  0.00 (OPEN) 



 Orbital guess generated from atomic densities. Full valence occupancy:   14   4

 Molecular orbital dump at record        2100.2

 Initial alpha occupancy:   8   2
 Initial beta  occupancy:   8   2
 Wave function symmetry:    1

 ITERATION    DDIFF          GRAD             ENERGY        2-EL.EN.            DIPOLE MOMENTS         DIIS
    1      0.000D+00      0.000D+00       -80.35972624    134.768496    0.00000   -0.00271    0.00000    0
    2      0.000D+00      0.843D-02       -80.39229200    132.497377   -0.00000    0.00117    0.00000    1
    3      0.175D-01      0.310D-02       -80.39614348    133.297550   -0.00000    0.00134    0.00000    2
    4      0.610D-02      0.835D-03       -80.39667173    133.160418   -0.00000    0.00189    0.00000    3
    5      0.219D-02      0.881D-04       -80.39667625    133.166474   -0.00000    0.00197    0.00000    4
    6      0.310D-03      0.523D-05       -80.39667627    133.166337   -0.00000    0.00198    0.00000    5
    7      0.272D-04      0.478D-06       -80.39667627    133.166336   -0.00000    0.00199    0.00000    5
    8      0.130D-05      0.162D-06       -80.39667627    133.166337   -0.00000    0.00199    0.00000    5
    9      0.310D-06      0.292D-07       -80.39667627    133.166338   -0.00000    0.00199    0.00000    5
   10      0.893D-07      0.685D-08       -80.39667627    133.166338   -0.00000    0.00199    0.00000    5
   11      0.252D-07      0.802D-09       -80.39667627    133.166338   -0.00000    0.00199    0.00000    6
   12      0.213D-08      0.184D-09       -80.39667627    133.166338   -0.00000    0.00199    0.00000    6
   13      0.490D-09      0.536D-10       -80.39667627    133.166338   -0.00000    0.00199    0.00000    6
   14      0.124D-09      0.104D-10       -80.39667627    133.166338   -0.00000    0.00199    0.00000    6
   15      0.286D-10      0.177D-11       -80.39667627    133.166338   -0.00000    0.00199    0.00000    0

 Final occupancy:   8   2

 !RHF STATE 1.1 Energy                -80.396676271197
 Nuclear energy                        41.31127658
 One-electron energy                 -188.29112194
 Two-electron energy                   66.58316909
 Virial quotient                       -1.00246620
 !RHF STATE 1.1 Dipole moment          -0.00000118     0.00198733     0.00000000
 Dipole moment /Debye                  -0.00000300     0.00505097     0.00000000

 Orbital energies:

         1.1          2.1          3.1          4.1          5.1          6.1          7.1          8.1          9.1         10.1
    -11.216270   -11.215406    -0.943766    -0.937859    -0.549749    -0.544905    -0.537506    -0.534520     0.172346     0.229063

         1.2          2.2          3.2          4.2
     -0.544901    -0.537509     0.256962     0.296593


 **********************************************************************************************************************************
 DATASETS  * FILE   NREC   LENGTH (MB)   RECORD NAMES
              1      19       13.06       500      610      700      900      950      970     1000      129      960     1100   
                                          VAR    BASINP    GEOM    SYMINP    ZMAT    AOBASIS   BASIS     P2S    ABASIS      S 
                                         1400     1410     1200     1210     1080     1600     1650     1300     1700   
                                           T        V       H0       H01     AOSYM     SMH    MOLCAS    ERIS     OPER   

              2       3        0.47       700     1000     2100   
                                         GEOM     BASIS     RHF  

 PROGRAMS   *        TOTAL       RHF       INT
 CPU TIMES  *         0.47      0.12      0.31
 REAL TIME  *         0.71 SEC
 DISK USED  *        46.60 MB      
 GA USED    *         0.00 MB       (max)       0.00 MB       (current)
 **********************************************************************************************************************************


1PROGRAM * CCSD (Closed-shell coupled cluster)     Authors: C. Hampel, H.-J. Werner, 1991, M. Deegan, P.J. Knowles, 1992


 Convergence thresholds:  THRVAR = 1.00D-08  THRDEN = 1.00D-12

 CCSD(T)     terms to be evaluated (factor= 1.000)


 Number of core orbitals:           2 (   2   0 )
 Number of closed-shell orbitals:   8 (   6   2 )
 Number of external orbitals:      58 (  38  20 )

 Molecular orbitals read from record     2100.2  Type=RHF/CANONICAL (state 1.1)

 Number of N-1 electron functions:               8
 Number of N-2 electron functions:              36
 Number of singly external CSFs:               268
 Number of doubly external CSFs:             55352
 Total number of CSFs:                       55621

 Length of J-op  integral file:               0.00 MB
 Length of K-op  integral file:               0.21 MB
 Length of 3-ext integral record:             0.00 MB

 Memory could be reduced to 1.50 Mwords without degradation in triples

 Integral transformation finished. Total CPU:   0.03 sec, npass=  1  Memory used:   0.55 MW

 Reference energy:                    -80.39667627

 MP2 singlet pair energy:              -0.23219306
 MP2 triplet pair energy:              -0.09154695
 MP2 correlation energy:               -0.32374001
 MP2 total energy:                    -80.72041628

 SCS-MP2 correlation energy:           -0.33559422   (PS=  1.200000  PT=  0.333333)
 SCS-MP2 total energy:                -80.73227049

 ITER.      SQ.NORM     CORR.ENERGY   TOTAL ENERGY   ENERGY CHANGE        DEN1      VAR(S)    VAR(P)  DIIS     TIME
   1      1.13439103    -0.36766865   -80.76434492    -0.04392864    -0.03298561  0.50D-03  0.24D-02  1  1     0.07
   2      1.14704268    -0.37047531   -80.76715158    -0.00280666    -0.01278880  0.15D-04  0.97D-04  2  2     0.12
   3      1.14884607    -0.37064792   -80.76732419    -0.00017261    -0.00096025  0.18D-05  0.56D-05  3  3     0.16
   4      1.14921697    -0.37066827   -80.76734454    -0.00002035    -0.00016706  0.25D-07  0.36D-06  4  4     0.20
   5      1.14926336    -0.37066579   -80.76734206     0.00000249    -0.00002411  0.19D-08  0.18D-07  5  5     0.24
   6      1.14926469    -0.37066573   -80.76734200     0.00000006    -0.00000011  0.20D-09  0.12D-08  6  6     0.29
   7      1.14926479    -0.37066599   -80.76734226    -0.00000026     0.00000013  0.13D-10  0.72D-10  6  1     0.34
   8      1.14926496    -0.37066598   -80.76734226     0.00000001    -0.00000013  0.15D-11  0.42D-11  6  2     0.38
   9      1.14926499    -0.37066597   -80.76734224     0.00000001    -0.00000003  0.15D-12  0.26D-12  6  3     0.42
  10      1.14926498    -0.37066597   -80.76734224     0.00000000     0.00000001  0.12D-13  0.24D-13  6  4     0.47
  11      1.14926497    -0.37066597   -80.76734224    -0.00000000     0.00000001  0.83D-15  0.19D-14  6  5     0.51
  12      1.14926497    -0.37066597   -80.76734224    -0.00000000     0.00000000  0.45D-16  0.23D-15  6  6     0.56
  13      1.14926497    -0.37066597   -80.76734224    -0.00000000     0.00000000  0.36D-17  0.28D-16  6  1     0.60
  14      1.14926497    -0.37066597   -80.76734224     0.00000000     0.00000000  0.62D-18  0.38D-17  6  2     0.65
  15      1.14926497    -0.37066597   -80.76734224     0.00000000     0.00000000  0.74D-19  0.38D-18  6  3     0.69
  16      1.14926497    -0.37066597   -80.76734224    -0.00000000     0.00000000  0.16D-20  0.21D-19  6  5     0.74
  17      1.14926497    -0.37066597   -80.76734224    -0.00000000     0.00000000  0.19D-21  0.58D-21  6  4     0.78
  18      1.14926497    -0.37066597   -80.76734224     0.00000000    -0.00000000  0.47D-22  0.53D-22  6  6     0.82

 Norm of t1 vector:      0.03067725      S-energy:    -0.00000000      T1 diagnostic:  0.00542302
                                                                       D1 diagnostic:  0.00877869


 Total CPU time for triples:      0.31 sec


 RESULTS
 =======

  Reference energy                    -80.396676271196
  CCSD singlet pair energy             -0.282021005006
  CCSD triplet pair energy             -0.088644965781
  CCSD correlation energy              -0.370665970787

  Triples (T) contribution             -0.007548797667
  Total correlation energy             -0.378214768454

  CCSD total energy                   -80.767342241983
  CCSD[T] energy                      -80.775068240805
  CCSD-T energy                       -80.774796127793
 !CCSD(T) total energy                -80.774891039650

 Timing summary (sec):

 STEP                 CPU(USER)    SYS     CPU(TOT)    WALL
 Transformation          0.03      0.00      0.03      0.03
 CCSD iterations         0.79      0.06      0.85      0.89
 Triples                 0.31      0.01      0.32      0.32

 Program statistics:

 Available memory in ccsd:               999999644
 Min. memory needed in ccsd:                189847
 Max. memory used in ccsd:                  234507
 Max. memory used in cckext:                275248 (18 integral passes)



 **********************************************************************************************************************************
 DATASETS  * FILE   NREC   LENGTH (MB)   RECORD NAMES
              1      20       17.47       500      610      700      900      950      970     1000      129      960     1100   
                                          VAR    BASINP    GEOM    SYMINP    ZMAT    AOBASIS   BASIS     P2S    ABASIS      S 
                                         1400     1410     1200     1210     1080     1600     1650     1300     1700     1380   
                                           T        V       H0       H01     AOSYM     SMH    MOLCAS    ERIS     OPER     JKOP   

              2       3        0.47       700     1000     2100   
                                         GEOM     BASIS     RHF  

 PROGRAMS   *        TOTAL   CCSD(T)       RHF       INT
 CPU TIMES  *         1.61      1.14      0.12      0.31
 REAL TIME  *         1.97 SEC
 DISK USED  *        46.60 MB      
 GA USED    *         0.00 MB       (max)       0.00 MB       (current)
 **********************************************************************************************************************************

        CCSD(T)         RHF-SCF 
    -80.77489104    -80.39667627
 **********************************************************************************************************************************
 Variable memory released
