
 Primary working directories    : /tmp/1049102.1213.gen6.q
 Secondary working directories  : /tmp/1049102.1213.gen6.q
 Wavefunction directory         : /home/vulcan/mel64643/wfu/
 Main file repository           : /tmp/1049102.1213.gen6.q/

 ARCHNAME  : Linux/x86_64
 FC        : /opt/intel/compilers_and_libraries_2016.1.150/linux/bin/intel64/ifort
 FCVERSION : 16.0.1
 BLASLIB   : -mkl
 id        : ccgc

 Nodes     nprocs
 n083         1
 ga_uses_ma=false, calling ma_init with nominal heap.
 GA-space will be limited to   8.0 MW (determined by -G option)

 Using customized tuning parameters: mindgm=10; mindgv=16; mindgc=4; mindgr=1; noblas=0; mincuda=1000; minvec=7
 default implementation of scratch files=df  

 ***,Optimization of h2o_3
 memory,1000,m
 gthresh,energy=1.0d-12,orbital=1.0d-10,oneint=1.0d-16,twoint=1.0d-16,optgrad=1.0d-6,compress=1.0d-13
 geomtyp=xyz
 
 
 
 bohr
 geometry = {
  C    0.9154645683    1.4076279825   -2.2718200478
  C    0.7386460899    2.7150058682    0.0175473320
  C    0.9981810927    1.4039455346    2.2970659444
  C    1.4311806297   -1.2032638664    2.2938669342
  C    1.6087275662   -2.5101491484    0.0045407639
  C    1.3492478941   -1.1988661842   -2.2747728157
  H    0.7057823630    2.4191007251   -4.0403161612
  H    0.3875459223    4.7325305264    0.0192764888
  H    0.8575635346    2.4073046530    4.0772161442
  H    1.6275535548   -2.2056862176    4.0694455640
  H    1.9421097115   -4.5311117939   -0.0090068814
  H    1.4845603617   -2.2129472902   -4.0495359943
  N   -5.4427631600   -0.3574350892   -0.0707886832
  H   -5.5912853219   -1.5702774405   -1.5500616683
  H   -6.0694779990   -1.3140599653    1.4697430048
  H   -3.5621049407   -0.0735078922    0.1976777526
 }
 
 basis=aug-cc-pvdz, H=cc-pvdz
 {rhf;maxit,200}
 {ccsd(t)}

 Variables initialized (661), CPU time= 0.00 sec
 Commands  initialized (458), CPU time= 0.01 sec, 486 directives.
 Default parameters read. Elapsed time= 0.04 sec

 Checking input...
 Passed
1


                                         ***  PROGRAM SYSTEM MOLPRO  ***
                         Copyright, University College Cardiff Consultants Limited, 2008

                                    Version 2010.1 linked May 16 2016 07:17:05


 **********************************************************************************************************************************
 LABEL *   Optimization of h2o_3                                                         
 Linux-4.4.3/n083(x86_64) 64 bit mpp version                                             DATE: 20-Mar-24          TIME: 17:09:07  
 **********************************************************************************************************************************

 SHA1:             9e8077add272b0f3cad6f7df79ec5211205f459d
 **********************************************************************************************************************************

 THRESHOLDS:

 ZERO    =  1.00D-12  ONEINT  =  1.00D-16  TWOINT  =  1.00D-16  PREFAC  =  1.00D-14  LOCALI  =  1.00D-09  EORDER  =  1.00D-04
 ENERGY  =  1.00D-12  ETEST   =  0.00D+00  EDENS   =  0.00D+00  THRDEDEF=  1.00D-06  GRADIENT=  1.00D-02  STEP    =  1.00D-03
 ORBITAL =  1.00D-10  CIVEC   =  1.00D-05  COEFF   =  1.00D-04  PRINTCI =  5.00D-02  PUNCHCI =  9.90D+01  OPTGRAD =  1.00D-06
 OPTENERG=  1.00D-06  OPTSTEP =  3.00D-04  THRGRAD =  1.00D-10  COMPRESS=  1.00D-13  VARMIN  =  1.00D-07  VARMAX  =  1.00D-03
 THRDOUB =  0.00D+00  THRDIV  =  1.00D-05  THRRED  =  1.00D-07  THRPSP  =  1.00D+00  THRDC   =  1.00D-10  THRCS   =  1.00D-10
 THRNRM  =  1.00D-08  THREQ   =  0.00D+00  THRDE   =  1.00D+00  THRREF  =  1.00D-05  SPARFAC =  1.00D+00  THRDLP  =  1.00D-07
 THRDIA  =  1.00D-10  THRDLS  =  1.00D-07  THRGPS  =  0.00D+00  THRKEX  =  0.00D+00  THRDIS  =  2.00D-01  THRVAR  =  1.00D-10
 THRLOC  =  1.00D-06  THRGAP  =  1.00D-06  THRLOCT = -1.00D+00  THRGAPT = -1.00D+00  THRORB  =  1.00D-06  THRMLTP =  0.00D+00
 THRCPQCI=  1.00D-10  KEXTA   =  0.00D+00  THRCOARS=  0.00D+00  SYMTOL  =  1.00D-06  GRADTOL =  1.00D-06  THROVL  =  1.00D-08
 THRORTH =  1.00D-08  GRID    =  1.00D-06  GRIDMAX =  1.00D-03  DTMAX   =  0.00D+00

 SETTING GEOMTYP        =    XYZ
 ZUNIT=BOHR
 

 Variable memory set to 1000000000 words,  buffer space   230000 words

 SETTING BASIS          =    AUG-CC-PVDZ,H=CC-PVDZ


 Recomputing integrals since basis changed


 Using spherical harmonics

 Library entry C      S aug-cc-pVDZ          selected for orbital group  1
 Library entry C      P aug-cc-pVDZ          selected for orbital group  1
 Library entry C      D aug-cc-pVDZ          selected for orbital group  1
 Library entry H      S cc-pVDZ              selected for orbital group  2
 Library entry H      P cc-pVDZ              selected for orbital group  2
 Library entry N      S aug-cc-pVDZ          selected for orbital group  3
 Library entry N      P aug-cc-pVDZ          selected for orbital group  3
 Library entry N      D aug-cc-pVDZ          selected for orbital group  3

1PROGRAM * SEWARD (Integral evaluation for generally contracted gaussian basis sets)     Author: Roland Lindh, 1990

 Geometry written to block  1 of record 700


 Point group  C1  



 ATOMIC COORDINATES

 NR  ATOM    CHARGE       X              Y              Z

   1  C       6.00    0.915464568    1.407627982   -2.271820048
   2  C       6.00    0.738646090    2.715005868    0.017547332
   3  C       6.00    0.998181093    1.403945535    2.297065944
   4  C       6.00    1.431180630   -1.203263866    2.293866934
   5  C       6.00    1.608727566   -2.510149148    0.004540764
   6  C       6.00    1.349247894   -1.198866184   -2.274772816
   7  H       1.00    0.705782363    2.419100725   -4.040316161
   8  H       1.00    0.387545922    4.732530526    0.019276489
   9  H       1.00    0.857563535    2.407304653    4.077216144
  10  H       1.00    1.627553555   -2.205686218    4.069445564
  11  H       1.00    1.942109711   -4.531111794   -0.009006881
  12  H       1.00    1.484560362   -2.212947290   -4.049535994
  13  N       7.00   -5.442763160   -0.357435089   -0.070788683
  14  H       1.00   -5.591285322   -1.570277440   -1.550061668
  15  H       1.00   -6.069477999   -1.314059965    1.469743005
  16  H       1.00   -3.562104941   -0.073507892    0.197677753

 Bond lengths in Bohr (Angstrom)

 1-2  2.642291564  1-6  2.642345271  1-7  2.048077694  2-3  2.642431214  2-8  2.047847666
     ( 1.398240475)     ( 1.398268896)     ( 1.083796038)     ( 1.398314375)     ( 1.083674312)

  3- 4  2.642922567   3- 9  2.048276727   4- 5  2.642061008   4-10  2.048436566   5- 6  2.642359383
       ( 1.398574387)       ( 1.083901362)       ( 1.398118470)       ( 1.083985945)       ( 1.398276363)

  5-11  2.048320582   6-12  2.048524907  13-14  1.918669843  13-15  1.918629856  13-16  1.920823838
       ( 1.083924569)       ( 1.084032693)       ( 1.015316352)       ( 1.015295192)       ( 1.016456198)

 Bond angles

  1- 2- 3  119.69418770   1- 2- 8  119.97801235   1- 6- 5  120.31001994   1- 6-12  120.00828958

  2-1-6  120.00199376   2-1-7  119.79818319   2-3-4  120.29814580   2-3-9  119.99646518

  3- 2- 8  120.32611323   3- 4- 5  120.00136041   3- 4-10  119.82838635   4- 3- 9  119.70505922

  4- 5- 6  119.69426447   4- 5-11  120.31196608   5- 4-10  120.17024853   5- 6-12  119.68167603

  6- 1- 7  120.19908314   6- 5-11  119.99365478  14-13-15  106.17607584  14-13-16  106.08043224

 15-13-16  106.33745550

 NUCLEAR CHARGE:                   52
 NUMBER OF PRIMITIVE AOS:         322
 NUMBER OF SYMMETRY AOS:          308
 NUMBER OF CONTRACTIONS:          206   ( 206A   )
 NUMBER OF CORE ORBITALS:           7   (   7A   )
 NUMBER OF VALENCE ORBITALS:       37   (  37A   )


 NUCLEAR REPULSION ENERGY  273.71077446


 Eigenvalues of metric

         1 0.861E-05 0.184E-04 0.228E-04 0.532E-04 0.641E-04 0.645E-04 0.107E-03 0.107E-03


 Contracted 2-electron integrals neglected if value below      1.0D-16
 AO integral compression algorithm  1   Integral accuracy      1.0D-16

     1892.942 MB (compressed) written to integral file ( 94.6%)

     Node minimum: 1892.942 MB, node maximum: 1892.942 MB


 NUMBER OF SORTED TWO-ELECTRON INTEGRALS:  227303181.     BUFFER LENGTH:  32768
 NUMBER OF SEGMENTS:  15  SEGMENT LENGTH:   15999503      RECORD LENGTH: 524288

 Memory used in sort:      16.56 MW

 SORT1 READ   250230184. AND WROTE   226407991. INTEGRALS IN    654 RECORDS. CPU TIME:     2.13 SEC, REAL TIME:     3.41 SEC
 SORT2 READ   226407991. AND WROTE   227303181. INTEGRALS IN   7221 RECORDS. CPU TIME:     1.27 SEC, REAL TIME:     2.18 SEC

 FILE SIZES:   FILE 1:  1743.6 MBYTE,  FILE 4:  2743.1 MBYTE,   TOTAL:   4486.7 MBYTE

 OPERATOR DM      FOR CENTER  0  COORDINATES:    0.000000    0.000000    0.000000


 **********************************************************************************************************************************
 DATASETS  * FILE   NREC   LENGTH (MB)   RECORD NAMES
              1      19     1744.10       500      610      700      900      950      970     1000      129      960     1100   
                                          VAR    BASINP    GEOM    SYMINP    ZMAT    AOBASIS   BASIS     P2S    ABASIS      S 
                                         1400     1410     1200     1210     1080     1600     1650     1300     1700   
                                           T        V       H0       H01     AOSYM     SMH    MOLCAS    ERIS     OPER   

 PROGRAMS   *        TOTAL       INT
 CPU TIMES  *        12.13     12.09
 REAL TIME  *        15.40 SEC
 DISK USED  *         6.38 GB      
 GA USED    *         0.01 MB       (max)       0.00 MB       (current)
 **********************************************************************************************************************************

1PROGRAM * RHF-SCF (CLOSED SHELL)       Authors: W. Meyer, H.-J. Werner


 NUMBER OF ELECTRONS:      26+   26-    SPACE SYMMETRY=1    SPIN SYMMETRY: Singlet 
 CONVERGENCE THRESHOLDS:    1.00E-10 (Density)    1.00E-13 (Energy)
 MAX. NUMBER OF ITERATIONS:      200
 INTERPOLATION TYPE:            DIIS
 INTERPOLATION STEPS:              2 (START)      1 (STEP)
 LEVEL SHIFTS:                  0.00 (CLOSED)  0.00 (OPEN) 



 Orbital guess generated from atomic densities. Full valence occupancy:   44

 Molecular orbital dump at record        2100.2

 ITERATION    DDIFF          GRAD             ENERGY        2-EL.EN.            DIPOLE MOMENTS         DIIS
    1      0.000D+00      0.000D+00      -286.85322685    740.883830    0.51947   -0.76776    0.13702    0
    2      0.000D+00      0.322D-02      -286.92078342    735.093506    0.43508   -0.38415    0.06270    1
    3      0.826D-02      0.133D-02      -286.93011113    737.725307    0.45165   -0.52270    0.09292    2
    4      0.218D-02      0.381D-03      -286.93132912    737.205534    0.45022   -0.49588    0.08509    3
    5      0.783D-03      0.526D-04      -286.93135293    737.194298    0.45606   -0.50605    0.08909    4
    6      0.135D-03      0.177D-04      -286.93135537    737.209182    0.45491   -0.50051    0.08698    5
    7      0.511D-04      0.555D-05      -286.93135565    737.206120    0.45556   -0.50273    0.08774    6
    8      0.150D-04      0.129D-05      -286.93135566    737.205109    0.45571   -0.50238    0.08760    7
    9      0.418D-05      0.542D-06      -286.93135567    737.205567    0.45575   -0.50247    0.08763    7
   10      0.149D-05      0.144D-06      -286.93135567    737.205516    0.45575   -0.50247    0.08763    7
   11      0.520D-06      0.419D-07      -286.93135567    737.205502    0.45576   -0.50247    0.08763    7
   12      0.145D-06      0.181D-07      -286.93135567    737.205516    0.45576   -0.50247    0.08763    8
   13      0.636D-07      0.801D-08      -286.93135567    737.205510    0.45576   -0.50247    0.08763    8
   14      0.358D-07      0.375D-08      -286.93135567    737.205513    0.45576   -0.50247    0.08763    8
   15      0.205D-07      0.140D-08      -286.93135567    737.205512    0.45576   -0.50247    0.08763    8
   16      0.700D-08      0.464D-09      -286.93135567    737.205512    0.45576   -0.50247    0.08763    9
   17      0.206D-08      0.131D-09      -286.93135567    737.205512    0.45576   -0.50247    0.08763    9
   18      0.418D-09      0.452D-10      -286.93135567    737.205512    0.45576   -0.50247    0.08763    9
   19      0.219D-09      0.251D-10      -286.93135567    737.205512    0.45576   -0.50247    0.08763    9
   20      0.167D-09      0.105D-10      -286.93135567    737.205512    0.45576   -0.50247    0.08763    9
   21      0.149D-09      0.465D-11      -286.93135567    737.205512    0.45576   -0.50247    0.08763    9
   22      0.172D-09      0.153D-11      -286.93135567    737.205512    0.45576   -0.50247    0.08763    9
   23      0.159D-09      0.775D-12      -286.93135567    737.205512    0.45576   -0.50247    0.08763    9
   24      0.775D-10      0.669D-12      -286.93135567    737.205512    0.45576   -0.50247    0.08763    9
   25      0.589D-10      0.562D-12      -286.93135567    737.205512    0.45576   -0.50247    0.08763    9
   26      0.412D-10      0.517D-12      -286.93135567    737.205512    0.45576   -0.50247    0.08763    9
   27      0.424D-10      0.549D-12      -286.93135567    737.205512    0.45576   -0.50247    0.08763    9
   28      0.235D-10      0.498D-12      -286.93135567    737.205512    0.45576   -0.50247    0.08763    9
   29      0.207D-10      0.490D-12      -286.93135567    737.205512    0.45576   -0.50247    0.08763    9
   30      0.211D-10      0.495D-12      -286.93135567    737.205512    0.45576   -0.50247    0.08763    9
   31      0.162D-10      0.386D-12      -286.93135567    737.205512    0.45576   -0.50247    0.08763    9
   32      0.158D-10      0.484D-12      -286.93135567    737.205512    0.45576   -0.50247    0.08763    9
   33      0.108D-10      0.414D-12      -286.93135567    737.205512    0.45576   -0.50247    0.08763    9
   34      0.118D-10      0.437D-12      -286.93135567    737.205512    0.45576   -0.50247    0.08763    9
   35      0.112D-10      0.517D-12      -286.93135567    737.205512    0.45576   -0.50247    0.08763    9
   36      0.127D-10      0.433D-12      -286.93135567    737.205512    0.45576   -0.50247    0.08763    9
   37      0.120D-10      0.441D-12      -286.93135567    737.205512    0.45576   -0.50247    0.08763    9
   38      0.179D-10      0.447D-12      -286.93135567    737.205512    0.45576   -0.50247    0.08763    9
   39      0.223D-10      0.416D-12      -286.93135567    737.205512    0.45576   -0.50247    0.08763    9
   40      0.204D-10      0.481D-12      -286.93135567    737.205512    0.45576   -0.50247    0.08763    0

 Final occupancy:  26

 !RHF STATE 1.1 Energy               -286.931355668475
 Nuclear energy                       273.71077446
 One-electron energy                 -929.24488611
 Two-electron energy                  368.60275599
 Virial quotient                       -1.00146519
 !RHF STATE 1.1 Dipole moment           0.45575836    -0.50247246     0.08762893
 Dipole moment /Debye                   1.15834633    -1.27707396     0.22271592

 Orbital energies:

         1.1          2.1          3.1          4.1          5.1          6.1          7.1          8.1          9.1         10.1
    -15.535006   -11.250653   -11.249958   -11.249701   -11.248836   -11.248606   -11.247868    -1.157505    -1.125560    -1.022300

        11.1         12.1         13.1         14.1         15.1         16.1         17.1         18.1         19.1         20.1
     -1.021706    -0.830735    -0.830437    -0.714506    -0.650454    -0.623922    -0.611680    -0.609818    -0.594163    -0.592855

        21.1         22.1         23.1         24.1         25.1         26.1         27.1         28.1
     -0.504903    -0.500756    -0.499363    -0.413437    -0.342767    -0.342194     0.063872     0.066459


 **********************************************************************************************************************************
 DATASETS  * FILE   NREC   LENGTH (MB)   RECORD NAMES
              1      19     1744.10       500      610      700      900      950      970     1000      129      960     1100   
                                          VAR    BASINP    GEOM    SYMINP    ZMAT    AOBASIS   BASIS     P2S    ABASIS      S 
                                         1400     1410     1200     1210     1080     1600     1650     1300     1700   
                                           T        V       H0       H01     AOSYM     SMH    MOLCAS    ERIS     OPER   

              2       3        1.40       700     1000     2100   
                                         GEOM     BASIS     RHF  

 PROGRAMS   *        TOTAL       RHF       INT
 CPU TIMES  *        64.23     52.10     12.09
 REAL TIME  *        73.92 SEC
 DISK USED  *         6.38 GB      
 GA USED    *         0.01 MB       (max)       0.00 MB       (current)
 **********************************************************************************************************************************


1PROGRAM * CCSD (Closed-shell coupled cluster)     Authors: C. Hampel, H.-J. Werner, 1991, M. Deegan, P.J. Knowles, 1992


 Convergence thresholds:  THRVAR = 1.00D-08  THRDEN = 1.00D-12

 CCSD(T)     terms to be evaluated (factor= 1.000)


 Number of core orbitals:           7 (   7 )
 Number of closed-shell orbitals:  19 (  19 )
 Number of external orbitals:     180 ( 180 )

 Molecular orbitals read from record     2100.2  Type=RHF/CANONICAL (state 1.1)

 Number of N-1 electron functions:              19
 Number of N-2 electron functions:             190
 Number of singly external CSFs:              3420
 Number of doubly external CSFs:           5849910
 Total number of CSFs:                     5853331

 Length of J-op  integral file:               0.00 MB
 Length of K-op  integral file:               2.96 MB
 Length of 3-ext integral record:             0.00 MB

 Memory could be reduced to 140.12 Mwords without degradation in triples

 Integral transformation finished. Total CPU:  10.27 sec, npass=  1  Memory used: 101.90 MW

 Reference energy:                   -286.93135567

 MP2 singlet pair energy:              -0.62063289
 MP2 triplet pair energy:              -0.38983501
 MP2 correlation energy:               -1.01046790
 MP2 total energy:                   -287.94182357

 SCS-MP2 correlation energy:           -0.98732348   (PS=  1.200000  PT=  0.333333)
 SCS-MP2 total energy:               -287.91867915

 ITER.      SQ.NORM     CORR.ENERGY   TOTAL ENERGY   ENERGY CHANGE        DEN1      VAR(S)    VAR(P)  DIIS     TIME
   1      1.38488293    -1.05475969  -287.98611536    -0.04429178    -0.01721304  0.36D-02  0.80D-02  1  1    42.60
   2      1.41439569    -1.06062227  -287.99197794    -0.00586259    -0.02705291  0.63D-04  0.10D-02  2  2    75.17
   3      1.42352685    -1.06071800  -287.99207367    -0.00009573    -0.00464354  0.27D-04  0.84D-04  3  3   107.75
   4      1.42746412    -1.06088674  -287.99224241    -0.00016874    -0.00121415  0.22D-05  0.11D-04  4  4   140.34
   5      1.42867770    -1.06091769  -287.99227336    -0.00003095    -0.00027320  0.27D-06  0.13D-05  5  5   172.92
   6      1.42898029    -1.06090746  -287.99226312     0.00001024    -0.00004349  0.23D-07  0.79D-07  6  6   205.56
   7      1.42902103    -1.06090909  -287.99226475    -0.00000163    -0.00000103  0.35D-08  0.82D-08  6  2   238.22
   8      1.42903022    -1.06090894  -287.99226461     0.00000014    -0.00000117  0.75D-09  0.76D-09  6  1   270.87
   9      1.42903005    -1.06090908  -287.99226475    -0.00000014     0.00000123  0.21D-09  0.92D-10  6  4   303.51
  10      1.42903125    -1.06090909  -287.99226476    -0.00000001    -0.00000018  0.57D-10  0.15D-10  6  3   336.12
  11      1.42903119    -1.06090911  -287.99226477    -0.00000002     0.00000013  0.14D-10  0.37D-11  6  5   368.76
  12      1.42903115    -1.06090911  -287.99226478    -0.00000000     0.00000003  0.15D-11  0.10D-11  6  6   401.40
  13      1.42903098    -1.06090911  -287.99226478    -0.00000000     0.00000006  0.70D-13  0.20D-12  6  2   434.05
  14      1.42903087    -1.06090911  -287.99226478    -0.00000000     0.00000002  0.82D-14  0.40D-13  6  1   466.70
  15      1.42903082    -1.06090911  -287.99226478    -0.00000000     0.00000001  0.94D-15  0.54D-14  6  3   499.34
  16      1.42903079    -1.06090911  -287.99226478    -0.00000000     0.00000000  0.14D-15  0.37D-15  6  4   531.97
  17      1.42903079    -1.06090911  -287.99226478    -0.00000000     0.00000000  0.40D-16  0.46D-16  6  5   564.61
  18      1.42903079    -1.06090911  -287.99226478    -0.00000000     0.00000000  0.12D-16  0.78D-17  6  6   597.24
  19      1.42903079    -1.06090911  -287.99226478    -0.00000000     0.00000000  0.40D-17  0.11D-17  6  2   629.89
  20      1.42903079    -1.06090911  -287.99226478    -0.00000000     0.00000000  0.16D-17  0.44D-18  6  6   662.55
  21      1.42903079    -1.06090911  -287.99226478    -0.00000000     0.00000000  0.43D-18  0.13D-18  6  1   695.20
  22      1.42903079    -1.06090911  -287.99226478    -0.00000000     0.00000000  0.15D-18  0.59D-19  6  3   727.82
  23      1.42903079    -1.06090911  -287.99226478     0.00000000    -0.00000000  0.75D-19  0.32D-19  6  4   760.45

 Norm of t1 vector:      0.08385759      S-energy:    -0.00000000      T1 diagnostic:  0.00961913
                                                                       D1 diagnostic:  0.02619856


 Total CPU time for triples:    638.26 sec


 RESULTS
 =======

  Reference energy                   -286.931355668474
  CCSD singlet pair energy             -0.711157016308
  CCSD triplet pair energy             -0.349752097915
  CCSD correlation energy              -1.060909114224

  Triples (T) contribution             -0.045602966700
  Total correlation energy             -1.106512080924

  CCSD total energy                  -287.992264782698
  CCSD[T] energy                     -288.038737980348
  CCSD-T energy                      -288.037479198396
 !CCSD(T) total energy               -288.037867749399

 Timing summary (sec):

 STEP                 CPU(USER)    SYS     CPU(TOT)    WALL
 Transformation         10.61      0.76     11.37     11.38
 CCSD iterations       749.86     11.70    761.56    761.76
 Triples               638.26     10.39    648.65    648.74

 Program statistics:

 Available memory in ccsd:               999998456
 Min. memory needed in ccsd:              14392275
 Max. memory used in ccsd:                19775697
 Max. memory used in cckext:              16737545 (23 integral passes)



 **********************************************************************************************************************************
 DATASETS  * FILE   NREC   LENGTH (MB)   RECORD NAMES
              1      20     2287.71       500      610      700      900      950      970     1000      129      960     1100   
                                          VAR    BASINP    GEOM    SYMINP    ZMAT    AOBASIS   BASIS     P2S    ABASIS      S 
                                         1400     1410     1200     1210     1080     1600     1650     1300     1700     1380   
                                           T        V       H0       H01     AOSYM     SMH    MOLCAS    ERIS     OPER     JKOP   

              2       3        1.40       700     1000     2100   
                                         GEOM     BASIS     RHF  

 PROGRAMS   *        TOTAL   CCSD(T)       RHF       INT
 CPU TIMES  *      1462.97   1398.74     52.10     12.09
 REAL TIME  *      1495.91 SEC
 DISK USED  *         6.38 GB      
 GA USED    *         0.01 MB       (max)       0.00 MB       (current)
 **********************************************************************************************************************************

        CCSD(T)         RHF-SCF 
   -288.03786775   -286.93135567
 **********************************************************************************************************************************
 Variable memory released
