
 Primary working directories    : /tmp/1047041.18.gen4.q
 Secondary working directories  : /tmp/1047041.18.gen4.q
 Wavefunction directory         : /home/vulcan/mel64643/wfu/
 Main file repository           : /tmp/1047041.18.gen4.q/

 ARCHNAME  : Linux/x86_64
 FC        : /opt/intel/compilers_and_libraries_2016.1.150/linux/bin/intel64/ifort
 FCVERSION : 16.0.1
 BLASLIB   : -mkl
 id        : ccgc

 Nodes     nprocs
 n062         1
 ga_uses_ma=false, calling ma_init with nominal heap.
 GA-space will be limited to   8.0 MW (determined by -G option)

 Using customized tuning parameters: mindgm=10; mindgv=16; mindgc=4; mindgr=1; noblas=0; mincuda=1000; minvec=7
 default implementation of scratch files=df  

 ***,Optimization of ben_hcn
 memory,1000,m
 gthresh,energy=1.0d-12,orbital=1.0d-10,oneint=1.0d-16,twoint=1.0d-16,optgrad=1.0d-6,compress=1.0d-13
 geomtyp=xyz
 
 
 
 bohr
 geometry = {
  C   -1.8848532320    1.3708677947    2.2885045136
  C   -1.8575670713    2.6936239372   -0.0048989749
  C   -1.8747068374    1.3689936466   -2.2973037047
  C   -1.9190954611   -1.2781825113   -2.2962213499
  C   -1.9463678646   -2.6007559502   -0.0029483695
  C   -1.9292210048   -1.2763278285    2.2893644984
  H   -1.8657187297    2.3982003428    4.0667291261
  H   -1.8175161537    4.7441034445   -0.0056598129
  H   -1.8476511029    2.3905373825   -4.0687609793
  H   -1.9258898574   -2.2999388420   -4.0643905691
  H   -1.9740146350   -4.6456162113   -0.0021661052
  H   -1.9439455199   -2.3009959162    4.0658096574
  N    6.6241508617   -0.1992140203    0.0070935406
  C    4.4344397793   -0.0762420174    0.0097016192
  H    2.4147580758    0.0374702970    0.0122474245
 }
 
 basis=aug-cc-pvdz, H=cc-pvdz
 {rhf;maxit,200}
 {ccsd(t)}

 Variables initialized (661), CPU time= 0.01 sec
 Commands  initialized (458), CPU time= 0.00 sec, 486 directives.
 Default parameters read. Elapsed time= 0.05 sec

 Checking input...
 Passed
1


                                         ***  PROGRAM SYSTEM MOLPRO  ***
                         Copyright, University College Cardiff Consultants Limited, 2008

                                    Version 2010.1 linked May 16 2016 07:17:05


 **********************************************************************************************************************************
 LABEL *   Optimization of ben_hcn                                                       
 Linux-4.4.3/n062(x86_64) 64 bit mpp version                                             DATE: 06-Mar-24          TIME: 07:26:52  
 **********************************************************************************************************************************

 SHA1:             9e8077add272b0f3cad6f7df79ec5211205f459d
 **********************************************************************************************************************************

 THRESHOLDS:

 ZERO    =  1.00D-12  ONEINT  =  1.00D-16  TWOINT  =  1.00D-16  PREFAC  =  1.00D-14  LOCALI  =  1.00D-09  EORDER  =  1.00D-04
 ENERGY  =  1.00D-12  ETEST   =  0.00D+00  EDENS   =  0.00D+00  THRDEDEF=  1.00D-06  GRADIENT=  1.00D-02  STEP    =  1.00D-03
 ORBITAL =  1.00D-10  CIVEC   =  1.00D-05  COEFF   =  1.00D-04  PRINTCI =  5.00D-02  PUNCHCI =  9.90D+01  OPTGRAD =  1.00D-06
 OPTENERG=  1.00D-06  OPTSTEP =  3.00D-04  THRGRAD =  1.00D-10  COMPRESS=  1.00D-13  VARMIN  =  1.00D-07  VARMAX  =  1.00D-03
 THRDOUB =  0.00D+00  THRDIV  =  1.00D-05  THRRED  =  1.00D-07  THRPSP  =  1.00D+00  THRDC   =  1.00D-10  THRCS   =  1.00D-10
 THRNRM  =  1.00D-08  THREQ   =  0.00D+00  THRDE   =  1.00D+00  THRREF  =  1.00D-05  SPARFAC =  1.00D+00  THRDLP  =  1.00D-07
 THRDIA  =  1.00D-10  THRDLS  =  1.00D-07  THRGPS  =  0.00D+00  THRKEX  =  0.00D+00  THRDIS  =  2.00D-01  THRVAR  =  1.00D-10
 THRLOC  =  1.00D-06  THRGAP  =  1.00D-06  THRLOCT = -1.00D+00  THRGAPT = -1.00D+00  THRORB  =  1.00D-06  THRMLTP =  0.00D+00
 THRCPQCI=  1.00D-10  KEXTA   =  0.00D+00  THRCOARS=  0.00D+00  SYMTOL  =  1.00D-06  GRADTOL =  1.00D-06  THROVL  =  1.00D-08
 THRORTH =  1.00D-08  GRID    =  1.00D-06  GRIDMAX =  1.00D-03  DTMAX   =  0.00D+00

 SETTING GEOMTYP        =    XYZ
 ZUNIT=BOHR
 

 Variable memory set to 1000000000 words,  buffer space   230000 words

 SETTING BASIS          =    AUG-CC-PVDZ,H=CC-PVDZ


 Recomputing integrals since basis changed


 Using spherical harmonics

 Library entry C      S aug-cc-pVDZ          selected for orbital group  1
 Library entry C      P aug-cc-pVDZ          selected for orbital group  1
 Library entry C      D aug-cc-pVDZ          selected for orbital group  1
 Library entry H      S cc-pVDZ              selected for orbital group  2
 Library entry H      P cc-pVDZ              selected for orbital group  2
 Library entry N      S aug-cc-pVDZ          selected for orbital group  3
 Library entry N      P aug-cc-pVDZ          selected for orbital group  3
 Library entry N      D aug-cc-pVDZ          selected for orbital group  3

1PROGRAM * SEWARD (Integral evaluation for generally contracted gaussian basis sets)     Author: Roland Lindh, 1990

 Geometry written to block  1 of record 700


 Point group  C1  



 ATOMIC COORDINATES

 NR  ATOM    CHARGE       X              Y              Z

   1  C       6.00   -1.884853232    1.370867795    2.288504514
   2  C       6.00   -1.857567071    2.693623937   -0.004898975
   3  C       6.00   -1.874706837    1.368993647   -2.297303705
   4  C       6.00   -1.919095461   -1.278182511   -2.296221350
   5  C       6.00   -1.946367865   -2.600755950   -0.002948369
   6  C       6.00   -1.929221005   -1.276327828    2.289364498
   7  H       1.00   -1.865718730    2.398200343    4.066729126
   8  H       1.00   -1.817516154    4.744103445   -0.005659813
   9  H       1.00   -1.847651103    2.390537382   -4.068760979
  10  H       1.00   -1.925889857   -2.299938842   -4.064390569
  11  H       1.00   -1.974014635   -4.645616211   -0.002166105
  12  H       1.00   -1.943945520   -2.300995916    4.065809657
  13  N       7.00    6.624150862   -0.199214020    0.007093541
  14  C       6.00    4.434439779   -0.076242017    0.009701619
  15  H       1.00    2.414758076    0.037470297    0.012247424

 Bond lengths in Bohr (Angstrom)

 1-2  2.647664614  1-6  2.647567545  1-7  2.053743184  2-3  2.647651530  2-8  2.050870758
     ( 1.401083771)     ( 1.401032404)     ( 1.086794086)     ( 1.401076847)     ( 1.085274064)

  3- 4  2.647548514   3- 9  2.045078114   4- 5  2.647460150   4-10  2.042169080   5- 6  2.647470897
       ( 1.401022333)       ( 1.082208729)       ( 1.400975573)       ( 1.080669334)       ( 1.400981260)

  5-11  2.045047296   6-12  2.050833710  13-14  2.193162908  14-15  2.022881893
       ( 1.082192420)       ( 1.085254459)       ( 1.160571826)       ( 1.070462995)

 Bond angles

  1- 2- 3  119.99746920   1- 2- 8  120.00137852   1- 6- 5  120.00123393   1- 6-12  119.99777634

  2-1-6  119.99850633   2-1-7  119.99929927   2-3-4  119.99921100   2-3-9  119.99924772

  3- 2- 8  120.00090200   3- 4- 5  120.00130258   3- 4-10  119.99738081   4- 3- 9  120.00125580

  4- 5- 6  120.00227695   4- 5-11  119.99920812   5- 4-10  120.00099097   5- 6-12  120.00067149

  6- 1- 7  120.00192288   6- 5-11  119.99816336  13-14-15  179.99091354

 NUCLEAR CHARGE:                   56
 NUMBER OF PRIMITIVE AOS:         345
 NUMBER OF SYMMETRY AOS:          329
 NUMBER OF CONTRACTIONS:          219   ( 219A   )
 NUMBER OF CORE ORBITALS:           8   (   8A   )
 NUMBER OF VALENCE ORBITALS:       39   (  39A   )


 NUCLEAR REPULSION ENERGY  303.11088798


 Eigenvalues of metric

         1 0.878E-05 0.188E-04 0.233E-04 0.543E-04 0.638E-04 0.639E-04 0.936E-04 0.936E-04


 Contracted 2-electron integrals neglected if value below      1.0D-16
 AO integral compression algorithm  1   Integral accuracy      1.0D-16

     2339.635 MB (compressed) written to integral file ( 91.2%)

     Node minimum: 2339.635 MB, node maximum: 2339.635 MB


 NUMBER OF SORTED TWO-ELECTRON INTEGRALS:  290176095.     BUFFER LENGTH:  32768
 NUMBER OF SEGMENTS:  19  SEGMENT LENGTH:   15999762      RECORD LENGTH: 524288

 Memory used in sort:      16.56 MW

 SORT1 READ   320642736. AND WROTE   287593180. INTEGRALS IN    832 RECORDS. CPU TIME:     3.23 SEC, REAL TIME:     5.95 SEC
 SORT2 READ   287593180. AND WROTE   290176095. INTEGRALS IN   8925 RECORDS. CPU TIME:     1.94 SEC, REAL TIME:     3.04 SEC

 FILE SIZES:   FILE 1:  2150.7 MBYTE,  FILE 4:  3489.7 MBYTE,   TOTAL:   5640.4 MBYTE

 OPERATOR DM      FOR CENTER  0  COORDINATES:    0.000000    0.000000    0.000000


 **********************************************************************************************************************************
 DATASETS  * FILE   NREC   LENGTH (MB)   RECORD NAMES
              1      19     2151.29       500      610      700      900      950      970     1000      129      960     1100   
                                          VAR    BASINP    GEOM    SYMINP    ZMAT    AOBASIS   BASIS     P2S    ABASIS      S 
                                         1400     1410     1200     1210     1080     1600     1650     1300     1700   
                                           T        V       H0       H01     AOSYM     SMH    MOLCAS    ERIS     OPER   

 PROGRAMS   *        TOTAL       INT
 CPU TIMES  *        18.28     18.23
 REAL TIME  *        23.44 SEC
 DISK USED  *         7.98 GB      
 GA USED    *         0.01 MB       (max)       0.00 MB       (current)
 **********************************************************************************************************************************

1PROGRAM * RHF-SCF (CLOSED SHELL)       Authors: W. Meyer, H.-J. Werner


 NUMBER OF ELECTRONS:      28+   28-    SPACE SYMMETRY=1    SPIN SYMMETRY: Singlet 
 CONVERGENCE THRESHOLDS:    1.00E-10 (Density)    1.00E-13 (Energy)
 MAX. NUMBER OF ITERATIONS:      200
 INTERPOLATION TYPE:            DIIS
 INTERPOLATION STEPS:              2 (START)      1 (STEP)
 LEVEL SHIFTS:                  0.00 (CLOSED)  0.00 (OPEN) 



 Orbital guess generated from atomic densities. Full valence occupancy:   47

 Molecular orbital dump at record        2100.2

 ITERATION    DDIFF          GRAD             ENERGY        2-EL.EN.            DIPOLE MOMENTS         DIIS
    1      0.000D+00      0.000D+00      -323.54132354    821.522400   -1.89935    0.10663    0.00910    0
    2      0.000D+00      0.291D-02      -323.59761738    818.569079   -1.36894    0.04797   -0.00391    1
    3      0.774D-02      0.179D-02      -323.61416272    819.690897   -1.73012    0.07867    0.00006    2
    4      0.260D-02      0.577D-03      -323.61650511    819.891005   -1.63973    0.07123   -0.00066    3
    5      0.963D-03      0.132D-03      -323.61663193    819.633344   -1.66338    0.07165   -0.00115    4
    6      0.220D-03      0.229D-04      -323.61663805    819.660425   -1.66472    0.07166   -0.00108    5
    7      0.839D-04      0.434D-05      -323.61663825    819.655490   -1.66508    0.07154   -0.00116    6
    8      0.107D-04      0.124D-05      -323.61663827    819.656475   -1.66539    0.07163   -0.00110    7
    9      0.345D-05      0.281D-06      -323.61663827    819.656524   -1.66536    0.07156   -0.00115    6
   10      0.819D-06      0.103D-06      -323.61663827    819.656490   -1.66536    0.07160   -0.00112    6
   11      0.206D-06      0.409D-07      -323.61663827    819.656512   -1.66536    0.07159   -0.00113    7
   12      0.106D-06      0.871D-08      -323.61663827    819.656503   -1.66536    0.07159   -0.00113    7
   13      0.269D-07      0.353D-08      -323.61663827    819.656508   -1.66536    0.07159   -0.00113    7
   14      0.806D-08      0.102D-08      -323.61663827    819.656506   -1.66536    0.07159   -0.00113    8
   15      0.230D-08      0.177D-09      -323.61663827    819.656506   -1.66536    0.07159   -0.00113    8
   16      0.731D-09      0.696D-10      -323.61663827    819.656506   -1.66536    0.07159   -0.00113    7
   17      0.339D-09      0.289D-10      -323.61663827    819.656506   -1.66536    0.07159   -0.00113    7
   18      0.145D-09      0.139D-10      -323.61663827    819.656506   -1.66536    0.07159   -0.00113    7
   19      0.158D-09      0.695D-11      -323.61663827    819.656506   -1.66536    0.07159   -0.00113    8
   20      0.160D-09      0.327D-11      -323.61663827    819.656506   -1.66536    0.07159   -0.00113    9
   21      0.101D-09      0.930D-12      -323.61663827    819.656506   -1.66536    0.07159   -0.00113    9
   22      0.132D-09      0.741D-12      -323.61663827    819.656506   -1.66536    0.07159   -0.00113    9
   23      0.891D-10      0.541D-12      -323.61663827    819.656506   -1.66536    0.07159   -0.00113    9
   24      0.489D-10      0.547D-12      -323.61663827    819.656506   -1.66536    0.07159   -0.00113    9
   25      0.398D-10      0.628D-12      -323.61663827    819.656506   -1.66536    0.07159   -0.00113    0

 Final occupancy:  28

 !RHF STATE 1.1 Energy               -323.616638271114
 Nuclear energy                       303.11088798
 One-electron energy                -1036.55577941
 Two-electron energy                  409.82825316
 Virial quotient                       -1.00182055
 !RHF STATE 1.1 Dipole moment          -1.66535873     0.07159410    -0.00112709
 Dipole moment /Debye                  -4.23264244     0.18196213    -0.00286459

 Orbital energies:

         1.1          2.1          3.1          4.1          5.1          6.1          7.1          8.1          9.1         10.1
    -15.591571   -11.283789   -11.267035   -11.266408   -11.266286   -11.265283   -11.265167   -11.264508    -1.218264    -1.172618

        11.1         12.1         13.1         14.1         15.1         16.1         17.1         18.1         19.1         20.1
     -1.037125    -1.037123    -0.845443    -0.845440    -0.789804    -0.728795    -0.665510    -0.638347    -0.608398    -0.608395

        21.1         22.1         23.1         24.1         25.1         26.1         27.1         28.1         29.1         30.1
     -0.565126    -0.519506    -0.514950    -0.514948    -0.475621    -0.475617    -0.359281    -0.359275     0.055904     0.060083


 **********************************************************************************************************************************
 DATASETS  * FILE   NREC   LENGTH (MB)   RECORD NAMES
              1      19     2151.29       500      610      700      900      950      970     1000      129      960     1100   
                                          VAR    BASINP    GEOM    SYMINP    ZMAT    AOBASIS   BASIS     P2S    ABASIS      S 
                                         1400     1410     1200     1210     1080     1600     1650     1300     1700   
                                           T        V       H0       H01     AOSYM     SMH    MOLCAS    ERIS     OPER   

              2       3        1.49       700     1000     2100   
                                         GEOM     BASIS     RHF  

 PROGRAMS   *        TOTAL       RHF       INT
 CPU TIMES  *        75.54     57.26     18.23
 REAL TIME  *        86.62 SEC
 DISK USED  *         7.98 GB      
 GA USED    *         0.01 MB       (max)       0.00 MB       (current)
 **********************************************************************************************************************************


1PROGRAM * CCSD (Closed-shell coupled cluster)     Authors: C. Hampel, H.-J. Werner, 1991, M. Deegan, P.J. Knowles, 1992


 Convergence thresholds:  THRVAR = 1.00D-08  THRDEN = 1.00D-12

 CCSD(T)     terms to be evaluated (factor= 1.000)


 Number of core orbitals:           8 (   8 )
 Number of closed-shell orbitals:  20 (  20 )
 Number of external orbitals:     191 ( 191 )

 Molecular orbitals read from record     2100.2  Type=RHF/CANONICAL (state 1.1)

 Number of N-1 electron functions:              20
 Number of N-2 electron functions:             210
 Number of singly external CSFs:              3820
 Number of doubly external CSFs:           7298110
 Total number of CSFs:                     7301931

 Length of J-op  integral file:               0.00 MB
 Length of K-op  integral file:               3.32 MB
 Length of 3-ext integral record:             0.00 MB

 Memory could be reduced to 174.82 Mwords without degradation in triples

 Integral transformation finished. Total CPU:  19.16 sec, npass=  1  Memory used: 128.13 MW

 Reference energy:                   -323.61663827

 MP2 singlet pair energy:              -0.67368643
 MP2 triplet pair energy:              -0.43530960
 MP2 correlation energy:               -1.10899604
 MP2 total energy:                   -324.72563431

 SCS-MP2 correlation energy:           -1.07928303   (PS=  1.200000  PT=  0.333333)
 SCS-MP2 total energy:               -324.69592130

 ITER.      SQ.NORM     CORR.ENERGY   TOTAL ENERGY   ENERGY CHANGE        DEN1      VAR(S)    VAR(P)  DIIS     TIME
   1      1.42929797    -1.14504970  -324.76168797    -0.03605367    -0.00280453  0.51D-02  0.99D-02  1  1    71.28
   2      1.46370769    -1.15093784  -324.76757611    -0.00588814    -0.03107597  0.84D-04  0.13D-02  2  2   123.89
   3      1.47706038    -1.15138868  -324.76802695    -0.00045085    -0.00658054  0.41D-04  0.12D-03  3  3   176.48
   4      1.48278859    -1.15164030  -324.76827857    -0.00025162    -0.00179385  0.23D-05  0.15D-04  4  4   229.13
   5      1.48433313    -1.15167635  -324.76831463    -0.00003605    -0.00036878  0.26D-06  0.14D-05  5  5   281.76
   6      1.48464322    -1.15166780  -324.76830607     0.00000855    -0.00005067  0.24D-07  0.92D-07  6  6   334.42
   7      1.48467860    -1.15167123  -324.76830950    -0.00000343    -0.00000227  0.34D-08  0.81D-08  6  2   387.11
   8      1.48468347    -1.15167159  -324.76830986    -0.00000036    -0.00000042  0.41D-09  0.85D-09  6  1   439.79
   9      1.48468375    -1.15167176  -324.76831003    -0.00000017     0.00000079  0.63D-10  0.81D-10  6  3   492.45
  10      1.48468416    -1.15167181  -324.76831009    -0.00000006     0.00000002  0.10D-10  0.10D-10  6  4   545.11
  11      1.48468390    -1.15167185  -324.76831012    -0.00000004     0.00000022  0.16D-11  0.15D-11  6  5   597.77
  12      1.48468373    -1.15167186  -324.76831013    -0.00000001     0.00000008  0.24D-12  0.29D-12  6  6   650.46
  13      1.48468360    -1.15167187  -324.76831014    -0.00000000     0.00000005  0.13D-13  0.55D-13  6  2   703.16
  14      1.48468353    -1.15167187  -324.76831014    -0.00000000     0.00000002  0.21D-14  0.99D-14  6  1   755.83
  15      1.48468351    -1.15167187  -324.76831014     0.00000000     0.00000001  0.47D-15  0.14D-14  6  3   808.48
  16      1.48468350    -1.15167187  -324.76831014    -0.00000000     0.00000000  0.99D-16  0.20D-15  6  4   861.14
  17      1.48468349    -1.15167187  -324.76831014    -0.00000000     0.00000000  0.19D-16  0.30D-16  6  5   913.80
  18      1.48468349    -1.15167187  -324.76831014    -0.00000000     0.00000000  0.36D-17  0.38D-17  6  6   966.47
  19      1.48468349    -1.15167187  -324.76831014    -0.00000000     0.00000000  0.81D-18  0.64D-18  6  2  1019.12
  20      1.48468349    -1.15167187  -324.76831014    -0.00000000     0.00000000  0.18D-18  0.13D-18  6  1  1071.79
  21      1.48468349    -1.15167187  -324.76831014    -0.00000000     0.00000000  0.60D-19  0.38D-19  6  3  1124.44
  22      1.48468349    -1.15167187  -324.76831014     0.00000000     0.00000000  0.27D-19  0.16D-19  6  4  1177.10

 Norm of t1 vector:      0.09791056      S-energy:    -0.00000000      T1 diagnostic:  0.01094673
                                                                       D1 diagnostic:  0.02772913

 Doubles amplitudes (print threshold =  0.500E-01):

         I         J         SYM. A    SYM. B    A         B      T(IJ, AB)

        19        19         1         1         7         7     -0.06242346
        20        20         1         1         8         8     -0.06242413


 Total CPU time for triples:   1081.03 sec


 RESULTS
 =======

  Reference energy                   -323.616638271112
  CCSD singlet pair energy             -0.770458338023
  CCSD triplet pair energy             -0.381213529668
  CCSD correlation energy              -1.151671867691

  Triples (T) contribution             -0.054130400463
  Total correlation energy             -1.205802268154

  CCSD total energy                  -324.768310138803
  CCSD[T] energy                     -324.823777140590
  CCSD-T energy                      -324.821833372970
 !CCSD(T) total energy               -324.822440539266

 Timing summary (sec):

 STEP                 CPU(USER)    SYS     CPU(TOT)    WALL
 Transformation         19.71      1.09     20.80     20.81
 CCSD iterations      1157.42     14.55   1171.97   1172.17
 Triples              1081.03     14.51   1095.54   1095.68

 Program statistics:

 Available memory in ccsd:               999998300
 Min. memory needed in ccsd:              17709720
 Max. memory used in ccsd:                24415330
 Max. memory used in cckext:              20754978 (22 integral passes)



 **********************************************************************************************************************************
 DATASETS  * FILE   NREC   LENGTH (MB)   RECORD NAMES
              1      20     2833.46       500      610      700      900      950      970     1000      129      960     1100   
                                          VAR    BASINP    GEOM    SYMINP    ZMAT    AOBASIS   BASIS     P2S    ABASIS      S 
                                         1400     1410     1200     1210     1080     1600     1650     1300     1700     1380   
                                           T        V       H0       H01     AOSYM     SMH    MOLCAS    ERIS     OPER     JKOP   

              2       3        1.49       700     1000     2100   
                                         GEOM     BASIS     RHF  

 PROGRAMS   *        TOTAL   CCSD(T)       RHF       INT
 CPU TIMES  *      2333.71   2258.17     57.26     18.23
 REAL TIME  *      2375.42 SEC
 DISK USED  *         7.98 GB      
 GA USED    *         0.01 MB       (max)       0.00 MB       (current)
 **********************************************************************************************************************************

        CCSD(T)         RHF-SCF 
   -324.82244054   -323.61663827
 **********************************************************************************************************************************
 Variable memory released
