
 Primary working directories    : /tmp/943420.321.gen6.q
 Secondary working directories  : /tmp/943420.321.gen6.q
 Wavefunction directory         : /home/vulcan/mel64643/wfu/
 Main file repository           : /tmp/943420.321.gen6.q/

 ARCHNAME  : Linux/x86_64
 FC        : /opt/intel/compilers_and_libraries_2016.1.150/linux/bin/intel64/ifort
 FCVERSION : 16.0.1
 BLASLIB   : -mkl
 id        : ccgc

 Nodes     nprocs
 n084         1
 ga_uses_ma=false, calling ma_init with nominal heap.
 GA-space will be limited to   8.0 MW (determined by -G option)

 Using customized tuning parameters: mindgm=10; mindgv=16; mindgc=4; mindgr=1; noblas=0; mincuda=1000; minvec=7
 default implementation of scratch files=df  

 ***,Optimization of nh3_nitrosmethane
 memory,1000,m
 gthresh,energy=1.0d-12,orbital=1.0d-10,oneint=1.0d-16,twoint=1.0d-16,optgrad=1.0d-6,compress=1.0d-13
 geomtyp=xyz
 
 bohr
 geometry = {
  N   -5.2233917052   -0.1848569902   -0.0006402684
  H   -6.2976584222    0.2295028649   -1.5351737818
  H   -3.7594092501    1.0586512494   -0.0008364496
  H   -6.2980195631    0.2304121467    1.5333945042
  H   -0.9251816494   -2.3992481250    0.0034839535
  H    1.8757064381   -3.4272329880   -1.6655119769
  H    1.8878206552   -3.4407148360    1.6678294208
  C    1.1353235809   -2.4696596496   -0.0009900399
  N    2.2661913365    0.0979840009    0.0019325378
  O    0.7027370693    1.7822193358   -0.0034878996
 }
 
 basis=aug-cc-pvdz, H=cc-pvdz
 {rhf;maxit,200}
 {ccsd(t);maxit,200}

 Variables initialized (661), CPU time= 0.00 sec
 Commands  initialized (458), CPU time= 0.00 sec, 486 directives.
 Default parameters read. Elapsed time= 0.04 sec

 Checking input...
 Passed
1


                                         ***  PROGRAM SYSTEM MOLPRO  ***
                         Copyright, University College Cardiff Consultants Limited, 2008

                                    Version 2010.1 linked May 16 2016 07:17:05


 **********************************************************************************************************************************
 LABEL *   Optimization of nh3_nitrosmethane                                             
 Linux-4.4.3/n084(x86_64) 64 bit mpp version                                             DATE: 26-Oct-23          TIME: 07:54:33  
 **********************************************************************************************************************************

 SHA1:             9e8077add272b0f3cad6f7df79ec5211205f459d
 **********************************************************************************************************************************

 THRESHOLDS:

 ZERO    =  1.00D-12  ONEINT  =  1.00D-16  TWOINT  =  1.00D-16  PREFAC  =  1.00D-14  LOCALI  =  1.00D-09  EORDER  =  1.00D-04
 ENERGY  =  1.00D-12  ETEST   =  0.00D+00  EDENS   =  0.00D+00  THRDEDEF=  1.00D-06  GRADIENT=  1.00D-02  STEP    =  1.00D-03
 ORBITAL =  1.00D-10  CIVEC   =  1.00D-05  COEFF   =  1.00D-04  PRINTCI =  5.00D-02  PUNCHCI =  9.90D+01  OPTGRAD =  1.00D-06
 OPTENERG=  1.00D-06  OPTSTEP =  3.00D-04  THRGRAD =  1.00D-10  COMPRESS=  1.00D-13  VARMIN  =  1.00D-07  VARMAX  =  1.00D-03
 THRDOUB =  0.00D+00  THRDIV  =  1.00D-05  THRRED  =  1.00D-07  THRPSP  =  1.00D+00  THRDC   =  1.00D-10  THRCS   =  1.00D-10
 THRNRM  =  1.00D-08  THREQ   =  0.00D+00  THRDE   =  1.00D+00  THRREF  =  1.00D-05  SPARFAC =  1.00D+00  THRDLP  =  1.00D-07
 THRDIA  =  1.00D-10  THRDLS  =  1.00D-07  THRGPS  =  0.00D+00  THRKEX  =  0.00D+00  THRDIS  =  2.00D-01  THRVAR  =  1.00D-10
 THRLOC  =  1.00D-06  THRGAP  =  1.00D-06  THRLOCT = -1.00D+00  THRGAPT = -1.00D+00  THRORB  =  1.00D-06  THRMLTP =  0.00D+00
 THRCPQCI=  1.00D-10  KEXTA   =  0.00D+00  THRCOARS=  0.00D+00  SYMTOL  =  1.00D-06  GRADTOL =  1.00D-06  THROVL  =  1.00D-08
 THRORTH =  1.00D-08  GRID    =  1.00D-06  GRIDMAX =  1.00D-03  DTMAX   =  0.00D+00

 SETTING GEOMTYP        =    XYZ
 ZUNIT=BOHR
 

 Variable memory set to 1000000000 words,  buffer space   230000 words

 SETTING BASIS          =    AUG-CC-PVDZ,H=CC-PVDZ


 Recomputing integrals since basis changed


 Using spherical harmonics

 Library entry N      S aug-cc-pVDZ          selected for orbital group  1
 Library entry N      P aug-cc-pVDZ          selected for orbital group  1
 Library entry N      D aug-cc-pVDZ          selected for orbital group  1
 Library entry H      S cc-pVDZ              selected for orbital group  2
 Library entry H      P cc-pVDZ              selected for orbital group  2
 Library entry C      S aug-cc-pVDZ          selected for orbital group  3
 Library entry C      P aug-cc-pVDZ          selected for orbital group  3
 Library entry C      D aug-cc-pVDZ          selected for orbital group  3
 Library entry O      S aug-cc-pVDZ          selected for orbital group  5
 Library entry O      P aug-cc-pVDZ          selected for orbital group  5
 Library entry O      D aug-cc-pVDZ          selected for orbital group  5

1PROGRAM * SEWARD (Integral evaluation for generally contracted gaussian basis sets)     Author: Roland Lindh, 1990

 Geometry written to block  1 of record 700


 Point group  C1  



 ATOMIC COORDINATES

 NR  ATOM    CHARGE       X              Y              Z

   1  N       7.00   -5.223391705   -0.184856990   -0.000640268
   2  H       1.00   -6.297658422    0.229502865   -1.535173782
   3  H       1.00   -3.759409250    1.058651249   -0.000836450
   4  H       1.00   -6.298019563    0.230412147    1.533394504
   5  H       1.00   -0.925181649   -2.399248125    0.003483953
   6  H       1.00    1.875706438   -3.427232988   -1.665511977
   7  H       1.00    1.887820655   -3.440714836    1.667829421
   8  C       6.00    1.135323581   -2.469659650   -0.000990040
   9  N       7.00    2.266191336    0.097984001    0.001932538
  10  O       8.00    0.702737069    1.782219336   -0.003487900

 Bond lengths in Bohr (Angstrom)

 1-2  1.918472354  1-3  1.920822066  1-4  1.918472354  5-8  2.061712784  6-8  2.058092989
     ( 1.015211846)     ( 1.016455260)     ( 1.015211846)     ( 1.091011417)     ( 1.089095904)

  7- 8  2.072235125   8- 9  2.805648648   9-10  2.298057286
       ( 1.096579600)       ( 1.484685321)       ( 1.216079541)

 Bond angles

  2-1-3  106.67095379   2-1-4  106.21107417   3-1-4  106.67095379   5-8-6  112.15889722

  5-8-7  112.15889714   5-8-9  111.81278686   6-8-7  107.61735215   6-8-9  106.35838700

  7- 8- 9  106.35838697   8- 9-10  113.35946296

 NUCLEAR CHARGE:                   34
 NUMBER OF PRIMITIVE AOS:         190
 NUMBER OF SYMMETRY AOS:          182
 NUMBER OF CONTRACTIONS:          122   ( 122A   )
 NUMBER OF CORE ORBITALS:           4   (   4A   )
 NUMBER OF VALENCE ORBITALS:       22   (  22A   )


 NUCLEAR REPULSION ENERGY  117.39095463


 Eigenvalues of metric

         1 0.465E-03 0.142E-02 0.195E-02 0.431E-02 0.525E-02 0.749E-02 0.799E-02 0.856E-02


 Contracted 2-electron integrals neglected if value below      1.0D-16
 AO integral compression algorithm  1   Integral accuracy      1.0D-16

     234.095 MB (compressed) written to integral file ( 87.1%)

     Node minimum: 234.095 MB, node maximum: 234.095 MB


 NUMBER OF SORTED TWO-ELECTRON INTEGRALS:   28151256.     BUFFER LENGTH:  32768
 NUMBER OF SEGMENTS:   2  SEGMENT LENGTH:   15997996      RECORD LENGTH: 524288

 Memory used in sort:      16.56 MW

 SORT1 READ    33603451. AND WROTE    27858821. INTEGRALS IN     81 RECORDS. CPU TIME:     0.31 SEC, REAL TIME:     0.46 SEC
 SORT2 READ    27858821. AND WROTE    28151256. INTEGRALS IN    893 RECORDS. CPU TIME:     0.25 SEC, REAL TIME:     0.36 SEC

 FILE SIZES:   FILE 1:   201.4 MBYTE,  FILE 4:   339.8 MBYTE,   TOTAL:    541.1 MBYTE

 OPERATOR DM      FOR CENTER  0  COORDINATES:    0.000000    0.000000    0.000000


 **********************************************************************************************************************************
 DATASETS  * FILE   NREC   LENGTH (MB)   RECORD NAMES
              1      19      201.55       500      610      700      900      950      970     1000      129      960     1100   
                                          VAR    BASINP    GEOM    SYMINP    ZMAT    AOBASIS   BASIS     P2S    ABASIS      S 
                                         1400     1410     1200     1210     1080     1600     1650     1300     1700   
                                           T        V       H0       H01     AOSYM     SMH    MOLCAS    ERIS     OPER   

 PROGRAMS   *        TOTAL       INT
 CPU TIMES  *         1.82      1.78
 REAL TIME  *         2.36 SEC
 DISK USED  *       776.02 MB      
 GA USED    *         0.00 MB       (max)       0.00 MB       (current)
 **********************************************************************************************************************************

1PROGRAM * RHF-SCF (CLOSED SHELL)       Authors: W. Meyer, H.-J. Werner


 NUMBER OF ELECTRONS:      17+   17-    SPACE SYMMETRY=1    SPIN SYMMETRY: Singlet 
 CONVERGENCE THRESHOLDS:    1.00E-10 (Density)    1.00E-13 (Energy)
 MAX. NUMBER OF ITERATIONS:      200
 INTERPOLATION TYPE:            DIIS
 INTERPOLATION STEPS:              2 (START)      1 (STEP)
 LEVEL SHIFTS:                  0.00 (CLOSED)  0.00 (OPEN) 



 Orbital guess generated from atomic densities. Full valence occupancy:   26

 Molecular orbital dump at record        2100.2

 ITERATION    DDIFF          GRAD             ENERGY        2-EL.EN.            DIPOLE MOMENTS         DIIS
    1      0.000D+00      0.000D+00      -224.96499049    393.089111    0.07045   -0.57405    0.00363    0
    2      0.000D+00      0.710D-02      -225.02578100    392.721198   -0.58186   -0.37482   -0.00179    1
    3      0.132D-01      0.496D-02      -225.05964613    393.265227   -0.23653   -0.55404   -0.00063    2
    4      0.572D-02      0.994D-03      -225.06191446    393.100022   -0.31452   -0.45669   -0.00112    3
    5      0.146D-02      0.393D-03      -225.06233864    393.111930   -0.31223   -0.48615   -0.00127    4
    6      0.638D-03      0.952D-04      -225.06238094    393.139086   -0.31758   -0.48333   -0.00132    5
    7      0.217D-03      0.363D-04      -225.06238699    393.123044   -0.31920   -0.48343   -0.00133    6
    8      0.864D-04      0.148D-04      -225.06238799    393.129523   -0.32021   -0.48335   -0.00133    7
    9      0.331D-04      0.633D-05      -225.06238820    393.128356   -0.32049   -0.48305   -0.00133    8
   10      0.184D-04      0.193D-05      -225.06238823    393.128070   -0.32057   -0.48287   -0.00133    8
   11      0.562D-05      0.650D-06      -225.06238823    393.128176   -0.32058   -0.48278   -0.00133    8
   12      0.183D-05      0.198D-06      -225.06238823    393.128140   -0.32058   -0.48275   -0.00133    8
   13      0.685D-06      0.623D-07      -225.06238823    393.128134   -0.32059   -0.48275   -0.00133    8
   14      0.166D-06      0.320D-07      -225.06238823    393.128137   -0.32059   -0.48275   -0.00133    9
   15      0.795D-07      0.640D-08      -225.06238823    393.128137   -0.32059   -0.48275   -0.00133    8
   16      0.166D-07      0.460D-08      -225.06238823    393.128137   -0.32059   -0.48275   -0.00133    7
   17      0.236D-07      0.277D-08      -225.06238823    393.128137   -0.32059   -0.48275   -0.00132    8
   18      0.254D-07      0.936D-09      -225.06238823    393.128137   -0.32059   -0.48275   -0.00132    8
   19      0.743D-08      0.256D-09      -225.06238823    393.128137   -0.32059   -0.48275   -0.00132    9
   20      0.127D-08      0.833D-10      -225.06238823    393.128137   -0.32059   -0.48275   -0.00132    9
   21      0.280D-09      0.282D-10      -225.06238823    393.128137   -0.32059   -0.48275   -0.00132    9
   22      0.610D-10      0.773D-11      -225.06238823    393.128137   -0.32059   -0.48275   -0.00132    9
   23      0.204D-10      0.280D-11      -225.06238823    393.128137   -0.32059   -0.48275   -0.00132    9
   24      0.654D-11      0.130D-11      -225.06238823    393.128137   -0.32059   -0.48275   -0.00132    9
   25      0.270D-11      0.713D-12      -225.06238823    393.128137   -0.32059   -0.48275   -0.00132    8
   26      0.184D-11      0.296D-12      -225.06238823    393.128137   -0.32059   -0.48275   -0.00132    9
   27      0.114D-11      0.104D-12      -225.06238823    393.128137   -0.32059   -0.48275   -0.00132    9
   28      0.729D-12      0.640D-13      -225.06238823    393.128137   -0.32059   -0.48275   -0.00132    0

 Final occupancy:  17

 !RHF STATE 1.1 Energy               -225.062388229324
 Nuclear energy                       117.39095463
 One-electron energy                 -539.01741129
 Two-electron energy                  196.56406842
 Virial quotient                       -1.00219658
 !RHF STATE 1.1 Dipole moment          -0.32058548    -0.48274981    -0.00132481
 Dipole moment /Debye                  -0.81479364    -1.22694725    -0.00336711

 Orbital energies:

         1.1          2.1          3.1          4.1          5.1          6.1          7.1          8.1          9.1         10.1
    -20.640398   -15.714765   -15.548887   -11.271254    -1.515165    -1.140044    -1.076221    -0.862445    -0.691406    -0.676042

        11.1         12.1         13.1         14.1         15.1         16.1         17.1         18.1         19.1
     -0.636282    -0.623886    -0.623270    -0.555664    -0.534532    -0.428155    -0.406220     0.077538     0.084429


 **********************************************************************************************************************************
 DATASETS  * FILE   NREC   LENGTH (MB)   RECORD NAMES
              1      19      201.55       500      610      700      900      950      970     1000      129      960     1100   
                                          VAR    BASINP    GEOM    SYMINP    ZMAT    AOBASIS   BASIS     P2S    ABASIS      S 
                                         1400     1410     1200     1210     1080     1600     1650     1300     1700   
                                           T        V       H0       H01     AOSYM     SMH    MOLCAS    ERIS     OPER   

              2       3        0.72       700     1000     2100   
                                         GEOM     BASIS     RHF  

 PROGRAMS   *        TOTAL       RHF       INT
 CPU TIMES  *         6.99      5.17      1.78
 REAL TIME  *         8.08 SEC
 DISK USED  *       776.02 MB      
 GA USED    *         0.00 MB       (max)       0.00 MB       (current)
 **********************************************************************************************************************************


1PROGRAM * CCSD (Closed-shell coupled cluster)     Authors: C. Hampel, H.-J. Werner, 1991, M. Deegan, P.J. Knowles, 1992


 Convergence thresholds:  THRVAR = 1.00D-08  THRDEN = 1.00D-12

 CCSD(T)     terms to be evaluated (factor= 1.000)


 Number of core orbitals:           4 (   4 )
 Number of closed-shell orbitals:  13 (  13 )
 Number of external orbitals:     105 ( 105 )

 Molecular orbitals read from record     2100.2  Type=RHF/CANONICAL (state 1.1)

 Number of N-1 electron functions:              13
 Number of N-2 electron functions:              91
 Number of singly external CSFs:              1365
 Number of doubly external CSFs:            932295
 Total number of CSFs:                      933661

 Length of J-op  integral file:               0.00 MB
 Length of K-op  integral file:               1.06 MB
 Length of 3-ext integral record:             0.00 MB

 Memory could be reduced to 20.68 Mwords without degradation in triples

 Integral transformation finished. Total CPU:   0.98 sec, npass=  1  Memory used:  15.40 MW

 Reference energy:                   -225.06238823

 MP2 singlet pair energy:              -0.44859969
 MP2 triplet pair energy:              -0.26463538
 MP2 correlation energy:               -0.71323507
 MP2 total energy:                   -225.77562330

 SCS-MP2 correlation energy:           -0.70298164   (PS=  1.200000  PT=  0.333333)
 SCS-MP2 total energy:               -225.76536987

 ITER.      SQ.NORM     CORR.ENERGY   TOTAL ENERGY   ENERGY CHANGE        DEN1      VAR(S)    VAR(P)  DIIS     TIME
   1      1.24159828    -0.74722362  -225.80961185    -0.03398855    -0.01022377  0.52D-02  0.49D-02  1  1     3.18
   2      1.26337857    -0.75031158  -225.81269981    -0.00308796    -0.02110911  0.17D-03  0.87D-03  2  2     5.41
   3      1.27338322    -0.75101651  -225.81340474    -0.00070493    -0.00461158  0.12D-03  0.62D-04  3  3     7.65
   4      1.27753745    -0.75098195  -225.81337018     0.00003456    -0.00137319  0.11D-04  0.11D-04  4  4     9.88
   5      1.27919051    -0.75099996  -225.81338819    -0.00001801    -0.00036056  0.19D-05  0.17D-05  5  5    12.12
   6      1.27965029    -0.75096914  -225.81335737     0.00003082    -0.00005484  0.15D-06  0.33D-06  6  6    14.36
   7      1.27975078    -0.75096634  -225.81335457     0.00000280    -0.00000375  0.33D-07  0.87D-07  6  2    16.60
   8      1.27977448    -0.75096709  -225.81335532    -0.00000075    -0.00000032  0.43D-08  0.20D-07  6  1    18.85
   9      1.27977475    -0.75096648  -225.81335471     0.00000061     0.00000435  0.26D-08  0.32D-08  6  4    21.09
  10      1.27977707    -0.75096727  -225.81335550    -0.00000079    -0.00000121  0.52D-09  0.44D-09  6  3    23.34
  11      1.27977499    -0.75096748  -225.81335571    -0.00000021     0.00000043  0.17D-09  0.78D-10  6  5    25.57
  12      1.27977348    -0.75096755  -225.81335578    -0.00000007     0.00000032  0.40D-10  0.17D-10  6  6    27.81
  13      1.27977187    -0.75096767  -225.81335590    -0.00000012     0.00000040  0.60D-11  0.40D-11  6  1    30.06
  14      1.27977118    -0.75096769  -225.81335592    -0.00000001     0.00000018  0.16D-11  0.59D-12  6  2    32.31
  15      1.27977092    -0.75096769  -225.81335592    -0.00000001     0.00000005  0.51D-12  0.11D-12  6  4    34.56
  16      1.27977086    -0.75096770  -225.81335593    -0.00000000     0.00000001  0.29D-12  0.44D-13  6  3    36.81
  17      1.27977084    -0.75096770  -225.81335593     0.00000000    -0.00000000  0.17D-12  0.20D-13  6  6    39.04
  18      1.27977083    -0.75096770  -225.81335593    -0.00000000    -0.00000000  0.88D-13  0.11D-13  6  5    41.28
  19      1.27977085    -0.75096770  -225.81335593     0.00000000    -0.00000000  0.36D-13  0.61D-14  6  2    43.52
  20      1.27977084    -0.75096770  -225.81335593    -0.00000000     0.00000000  0.94D-14  0.24D-14  6  1    45.76
  21      1.27977084    -0.75096770  -225.81335593     0.00000000    -0.00000000  0.12D-14  0.75D-15  6  3    48.00
  22      1.27977084    -0.75096770  -225.81335593     0.00000000     0.00000000  0.17D-15  0.16D-15  6  4    50.25
  23      1.27977085    -0.75096770  -225.81335593    -0.00000000    -0.00000000  0.24D-16  0.33D-16  6  5    52.48
  24      1.27977085    -0.75096770  -225.81335593     0.00000000    -0.00000000  0.68D-17  0.95D-17  6  6    54.73
  25      1.27977085    -0.75096770  -225.81335593     0.00000000    -0.00000000  0.20D-17  0.31D-17  6  2    56.96
  26      1.27977085    -0.75096770  -225.81335593    -0.00000000     0.00000000  0.46D-18  0.11D-17  6  4    59.20
  27      1.27977085    -0.75096770  -225.81335593    -0.00000000     0.00000000  0.22D-18  0.15D-18  6  1    61.43
  28      1.27977085    -0.75096770  -225.81335593    -0.00000000     0.00000000  0.12D-18  0.31D-19  6  3    63.66

 Norm of t1 vector:      0.11114817      S-energy:    -0.00000000      T1 diagnostic:  0.01541348
                                                                       D1 diagnostic:  0.04945742

 Doubles amplitudes (print threshold =  0.500E-01):

         I         J         SYM. A    SYM. B    A         B      T(IJ, AB)

        11        11         1         1         2         2     -0.05758449


 Total CPU time for triples:     32.32 sec


 RESULTS
 =======

  Reference energy                   -225.062388229325
  CCSD singlet pair energy             -0.516899048941
  CCSD triplet pair energy             -0.234068648681
  CCSD correlation energy              -0.750967697624

  Triples (T) contribution             -0.026300954512
  Total correlation energy             -0.777268652136

  CCSD total energy                  -225.813355926948
  CCSD[T] energy                     -225.841264914962
  CCSD-T energy                      -225.839164990315
 !CCSD(T) total energy               -225.839656881460

 Timing summary (sec):

 STEP                 CPU(USER)    SYS     CPU(TOT)    WALL
 Transformation          1.01      0.11      1.12      1.13
 CCSD iterations        62.65      1.75     64.40     64.47
 Triples                32.32      0.73     33.05     33.06

 Program statistics:

 Available memory in ccsd:               999999224
 Min. memory needed in ccsd:               2510565
 Max. memory used in ccsd:                 3320127
 Max. memory used in cckext:               2903072 (28 integral passes)



 **********************************************************************************************************************************
 DATASETS  * FILE   NREC   LENGTH (MB)   RECORD NAMES
              1      20      278.95       500      610      700      900      950      970     1000      129      960     1100   
                                          VAR    BASINP    GEOM    SYMINP    ZMAT    AOBASIS   BASIS     P2S    ABASIS      S 
                                         1400     1410     1200     1210     1080     1600     1650     1300     1700     1380   
                                           T        V       H0       H01     AOSYM     SMH    MOLCAS    ERIS     OPER     JKOP   

              2       3        0.72       700     1000     2100   
                                         GEOM     BASIS     RHF  

 PROGRAMS   *        TOTAL   CCSD(T)       RHF       INT
 CPU TIMES  *       102.98     95.99      5.17      1.78
 REAL TIME  *       106.78 SEC
 DISK USED  *       776.02 MB      
 GA USED    *         0.00 MB       (max)       0.00 MB       (current)
 **********************************************************************************************************************************

        CCSD(T)         RHF-SCF 
   -225.83965688   -225.06238823
 **********************************************************************************************************************************
 Variable memory released
