
 Primary working directories    : /tmp/880701.689.gen6.q
 Secondary working directories  : /tmp/880701.689.gen6.q
 Wavefunction directory         : /home/vulcan/lo21740/wfu/
 Main file repository           : /tmp/880701.689.gen6.q/

 ARCHNAME  : Linux/x86_64
 FC        : /opt/intel/compilers_and_libraries_2016.1.150/linux/bin/intel64/ifort
 FCVERSION : 16.0.1
 BLASLIB   : -mkl
 id        : ccgc

 Nodes     nprocs
 n076         1
 ga_uses_ma=false, calling ma_init with nominal heap.
 GA-space will be limited to   8.0 MW (determined by -G option)

 Using customized tuning parameters: mindgm=10; mindgv=16; mindgc=4; mindgr=1; noblas=0; mincuda=1000; minvec=7
 default implementation of scratch files=df  

 ***,Optimization of formamide
 memory,1000,m
 gthresh,energy=1.0d-12,orbital=1.0d-10,oneint=1.0d-16,twoint=1.0d-16,optgrad=1.0d-6,compress=1.0d-13
 geomtyp=xyz
 
 bohr
 geometry = {
  C   -3.8233206188    0.0872285469   -0.0000000000
  O   -2.7292291674    2.1364520581    0.0000000000
  N   -2.6808609318   -2.1820482477   -0.0000000000
  H   -3.7482794225   -3.7561645161   -0.0000000000
  H   -0.7477569486   -2.3106064739   -0.0000000000
  H   -5.8999830786   -0.0085528970   -0.0000000000
  C    3.8282762796   -0.0854477259   -0.0000000000
  O    2.7312025034   -2.1414563729   -0.0000000000
  N    2.6818584431    2.1768317340    0.0000000000
  H    3.7298856656    3.7558834615    0.0000000000
  H    0.7536062829    2.2995418114    0.0000000000
  H    5.9046009931    0.0283386216   -0.0000000000
 }
 
 basis=AVDZ
 {rhf;maxit,200}
 {ccsd(t);maxit,200}

 Variables initialized (661), CPU time= 0.01 sec
 Commands  initialized (458), CPU time= 0.00 sec, 486 directives.
 Default parameters read. Elapsed time= 0.04 sec

 Checking input...
 Passed
1


                                         ***  PROGRAM SYSTEM MOLPRO  ***
                         Copyright, University College Cardiff Consultants Limited, 2008

                                    Version 2010.1 linked May 16 2016 07:17:05


 **********************************************************************************************************************************
 LABEL *   Optimization of formamide                                                     
 Linux-4.4.3/n076(x86_64) 64 bit mpp version                                             DATE: 25-May-23          TIME: 02:29:08  
 **********************************************************************************************************************************

 SHA1:             9e8077add272b0f3cad6f7df79ec5211205f459d
 **********************************************************************************************************************************

 THRESHOLDS:

 ZERO    =  1.00D-12  ONEINT  =  1.00D-16  TWOINT  =  1.00D-16  PREFAC  =  1.00D-14  LOCALI  =  1.00D-09  EORDER  =  1.00D-04
 ENERGY  =  1.00D-12  ETEST   =  0.00D+00  EDENS   =  0.00D+00  THRDEDEF=  1.00D-06  GRADIENT=  1.00D-02  STEP    =  1.00D-03
 ORBITAL =  1.00D-10  CIVEC   =  1.00D-05  COEFF   =  1.00D-04  PRINTCI =  5.00D-02  PUNCHCI =  9.90D+01  OPTGRAD =  1.00D-06
 OPTENERG=  1.00D-06  OPTSTEP =  3.00D-04  THRGRAD =  1.00D-10  COMPRESS=  1.00D-13  VARMIN  =  1.00D-07  VARMAX  =  1.00D-03
 THRDOUB =  0.00D+00  THRDIV  =  1.00D-05  THRRED  =  1.00D-07  THRPSP  =  1.00D+00  THRDC   =  1.00D-10  THRCS   =  1.00D-10
 THRNRM  =  1.00D-08  THREQ   =  0.00D+00  THRDE   =  1.00D+00  THRREF  =  1.00D-05  SPARFAC =  1.00D+00  THRDLP  =  1.00D-07
 THRDIA  =  1.00D-10  THRDLS  =  1.00D-07  THRGPS  =  0.00D+00  THRKEX  =  0.00D+00  THRDIS  =  2.00D-01  THRVAR  =  1.00D-10
 THRLOC  =  1.00D-06  THRGAP  =  1.00D-06  THRLOCT = -1.00D+00  THRGAPT = -1.00D+00  THRORB  =  1.00D-06  THRMLTP =  0.00D+00
 THRCPQCI=  1.00D-10  KEXTA   =  0.00D+00  THRCOARS=  0.00D+00  SYMTOL  =  1.00D-06  GRADTOL =  1.00D-06  THROVL  =  1.00D-08
 THRORTH =  1.00D-08  GRID    =  1.00D-06  GRIDMAX =  1.00D-03  DTMAX   =  0.00D+00

 SETTING GEOMTYP        =    XYZ
 ZUNIT=BOHR
 

 Variable memory set to 1000000000 words,  buffer space   230000 words

 SETTING BASIS          =    AVDZ


 Recomputing integrals since basis changed


 Using spherical harmonics

 Library entry C      S aug-cc-pVDZ          selected for orbital group  1
 Library entry C      P aug-cc-pVDZ          selected for orbital group  1
 Library entry C      D aug-cc-pVDZ          selected for orbital group  1
 Library entry O      S aug-cc-pVDZ          selected for orbital group  2
 Library entry O      P aug-cc-pVDZ          selected for orbital group  2
 Library entry O      D aug-cc-pVDZ          selected for orbital group  2
 Library entry N      S aug-cc-pVDZ          selected for orbital group  3
 Library entry N      P aug-cc-pVDZ          selected for orbital group  3
 Library entry N      D aug-cc-pVDZ          selected for orbital group  3
 Library entry H      S aug-cc-pVDZ          selected for orbital group  4
 Library entry H      P aug-cc-pVDZ          selected for orbital group  4

1PROGRAM * SEWARD (Integral evaluation for generally contracted gaussian basis sets)     Author: Roland Lindh, 1990

 Geometry written to block  1 of record 700


 Point group  Cs  



 ATOMIC COORDINATES

 NR  ATOM    CHARGE       X              Y              Z

   1  C       6.00   -3.823320619    0.087228547    0.000000000
   2  O       8.00   -2.729229167    2.136452058    0.000000000
   3  N       7.00   -2.680860932   -2.182048248    0.000000000
   4  H       1.00   -3.748279423   -3.756164516    0.000000000
   5  H       1.00   -0.747756949   -2.310606474    0.000000000
   6  H       1.00   -5.899983079   -0.008552897    0.000000000
   7  C       6.00    3.828276280   -0.085447726    0.000000000
   8  O       8.00    2.731202503   -2.141456373    0.000000000
   9  N       7.00    2.681858443    2.176831734    0.000000000
  10  H       1.00    3.729885666    3.755883461    0.000000000
  11  H       1.00    0.753606283    2.299541811    0.000000000
  12  H       1.00    5.904600993    0.028338622    0.000000000

 Bond lengths in Bohr (Angstrom)

 1-2  2.323005188  1-3  2.540636004  1-6  2.078870140  3-4  1.901900171  3-5  1.937374055
     ( 1.229281402)     ( 1.344446670)     ( 1.100090698)     ( 1.006442224)     ( 1.025214195)

  7- 8  2.330395337   7- 9  2.536174720   7-12  2.079440225   9-10  1.895195351   9-11  1.932152726
       ( 1.233192100)       ( 1.342085860)       ( 1.100392374)       ( 1.002894186)       ( 1.022451187)

 Bond angles

  1-3-4  119.13573494   1-3-5  120.52758247   2-1-3  125.17918793   2-1-6  120.73876734

  3- 1- 6  114.08204473   4- 3- 5  120.33668258   7- 9-10  119.55373574   7- 9-11  120.51504550

  8- 7- 9  125.04212100   8- 7-12  121.22088578   9- 7-12  113.73699322  10- 9-11  119.93121876

 NUCLEAR CHARGE:                   48
 NUMBER OF PRIMITIVE AOS:         288
 NUMBER OF SYMMETRY AOS:          276
 NUMBER OF CONTRACTIONS:          192   ( 138A'  +  54A"  )
 NUMBER OF CORE ORBITALS:           6   (   6A'  +   0A"  )
 NUMBER OF VALENCE ORBITALS:       30   (  24A'  +   6A"  )


 NUCLEAR REPULSION ENERGY  230.50426830


 Eigenvalues of metric

         1 0.232E-03 0.270E-03 0.524E-03 0.529E-03 0.565E-03 0.702E-03 0.712E-03 0.715E-03
         2 0.182E-01 0.198E-01 0.282E-01 0.284E-01 0.335E-01 0.339E-01 0.416E-01 0.453E-01


 Contracted 2-electron integrals neglected if value below      1.0D-16
 AO integral compression algorithm  1   Integral accuracy      1.0D-16

     746.586 MB (compressed) written to integral file ( 93.7%)

     Node minimum: 746.586 MB, node maximum: 746.586 MB


 NUMBER OF SORTED TWO-ELECTRON INTEGRALS:   89829696.     BUFFER LENGTH:  32768
 NUMBER OF SEGMENTS:   6  SEGMENT LENGTH:   15998004      RECORD LENGTH: 524288

 Memory used in sort:      16.56 MW

 SORT1 READ    99568560. AND WROTE    89009616. INTEGRALS IN    258 RECORDS. CPU TIME:     1.01 SEC, REAL TIME:     1.50 SEC
 SORT2 READ    89009616. AND WROTE    89829696. INTEGRALS IN   2848 RECORDS. CPU TIME:     0.66 SEC, REAL TIME:     1.02 SEC

 FILE SIZES:   FILE 1:   692.0 MBYTE,  FILE 4:  1082.2 MBYTE,   TOTAL:   1774.1 MBYTE

 OPERATOR DM      FOR CENTER  0  COORDINATES:    0.000000    0.000000    0.000000


 **********************************************************************************************************************************
 DATASETS  * FILE   NREC   LENGTH (MB)   RECORD NAMES
              1      19      692.19       500      610      700      900      950      970     1000      129      960     1100   
                                          VAR    BASINP    GEOM    SYMINP    ZMAT    AOBASIS   BASIS     P2S    ABASIS      S 
                                         1400     1410     1200     1210     1080     1600     1650     1300     1700   
                                           T        V       H0       H01     AOSYM     SMH    MOLCAS    ERIS     OPER   

 PROGRAMS   *        TOTAL       INT
 CPU TIMES  *         7.14      7.10
 REAL TIME  *         8.49 SEC
 DISK USED  *         2.52 GB      
 GA USED    *         0.00 MB       (max)       0.00 MB       (current)
 **********************************************************************************************************************************

1PROGRAM * RHF-SCF (CLOSED SHELL)       Authors: W. Meyer, H.-J. Werner


 NUMBER OF ELECTRONS:      24+   24-
 CONVERGENCE THRESHOLDS:    1.00E-10 (Density)    1.00E-13 (Energy)
 MAX. NUMBER OF ITERATIONS:      200
 INTERPOLATION TYPE:            DIIS
 INTERPOLATION STEPS:              2 (START)      1 (STEP)
 LEVEL SHIFTS:                  0.00 (CLOSED)  0.00 (OPEN) 



 Orbital guess generated from atomic densities. Full valence occupancy:   30   6

 Molecular orbital dump at record        2100.2

 Initial alpha occupancy:  20   4
 Initial beta  occupancy:  20   4
 Wave function symmetry:    1

 ITERATION    DDIFF          GRAD             ENERGY        2-EL.EN.            DIPOLE MOMENTS         DIIS
    1      0.000D+00      0.000D+00      -337.80604043    704.692364    0.00401    0.01814    0.00000    0
    2      0.000D+00      0.728D-02      -337.88346835    699.080450    0.00224    0.01230    0.00000    1
    3      0.138D-01      0.531D-02      -337.94121170    701.818648    0.00381    0.01656    0.00000    2
    4      0.561D-02      0.701D-03      -337.94342264    701.723179    0.00333    0.01539    0.00000    3
    5      0.134D-02      0.241D-03      -337.94369071    701.656357    0.00360    0.01635    0.00000    4
    6      0.456D-03      0.793D-04      -337.94375194    701.681873    0.00346    0.01596    0.00000    5
    7      0.201D-03      0.351D-04      -337.94376294    701.673060    0.00356    0.01632    0.00000    6
    8      0.958D-04      0.105D-04      -337.94376389    701.678436    0.00347    0.01599    0.00000    7
    9      0.300D-04      0.351D-05      -337.94376396    701.676425    0.00356    0.01630    0.00000    8
   10      0.787D-05      0.143D-05      -337.94376397    701.676340    0.00351    0.01614    0.00000    8
   11      0.353D-05      0.573D-06      -337.94376398    701.676633    0.00353    0.01620    0.00000    8
   12      0.107D-05      0.151D-06      -337.94376398    701.676577    0.00353    0.01619    0.00000    8
   13      0.422D-06      0.413D-07      -337.94376398    701.676565    0.00353    0.01619    0.00000    8
   14      0.951D-07      0.177D-07      -337.94376398    701.676572    0.00353    0.01619    0.00000    8
   15      0.402D-07      0.322D-08      -337.94376398    701.676572    0.00353    0.01619    0.00000    8
   16      0.864D-08      0.820D-09      -337.94376398    701.676572    0.00353    0.01619    0.00000    8
   17      0.180D-08      0.257D-09      -337.94376398    701.676572    0.00353    0.01619    0.00000    7
   18      0.540D-09      0.769D-10      -337.94376398    701.676572    0.00353    0.01619    0.00000    7
   19      0.195D-09      0.250D-10      -337.94376398    701.676572    0.00353    0.01619    0.00000    7
   20      0.472D-10      0.137D-10      -337.94376398    701.676572    0.00353    0.01619    0.00000    8
   21      0.305D-10      0.406D-11      -337.94376398    701.676572    0.00353    0.01619    0.00000    7
   22      0.114D-10      0.248D-11      -337.94376398    701.676572    0.00353    0.01619    0.00000    8
   23      0.783D-11      0.712D-12      -337.94376398    701.676572    0.00353    0.01619    0.00000    8
   24      0.508D-11      0.341D-12      -337.94376398    701.676572    0.00353    0.01619    0.00000    9
   25      0.426D-11      0.135D-12      -337.94376398    701.676572    0.00353    0.01619    0.00000    9
   26      0.268D-11      0.137D-12      -337.94376398    701.676572    0.00353    0.01619    0.00000    9
   27      0.147D-11      0.104D-12      -337.94376398    701.676572    0.00353    0.01619    0.00000    9
   28      0.127D-11      0.134D-12      -337.94376398    701.676572    0.00353    0.01619    0.00000    9
   29      0.506D-12      0.994D-13      -337.94376398    701.676572    0.00353    0.01619    0.00000    0

 Final occupancy:  20   4

 !RHF STATE 1.1 Energy               -337.943763975804
 Nuclear energy                       230.50426830
 One-electron energy                 -919.28631808
 Two-electron energy                  350.83828580
 Virial quotient                       -1.00173003
 !RHF STATE 1.1 Dipole moment           0.00352514     0.01618879     0.00000000
 Dipole moment /Debye                   0.00895943     0.04114511     0.00000000

 Orbital energies:

         1.1          2.1          3.1          4.1          5.1          6.1          7.1          8.1          9.1         10.1
    -20.541168   -20.541120   -15.589119   -15.588776   -11.368088   -11.367340    -1.389565    -1.384379    -1.218677    -1.212174

        11.1         12.1         13.1         14.1         15.1         16.1         17.1         18.1         19.1         20.1
     -0.860940    -0.835683    -0.750014    -0.740857    -0.705916    -0.645100    -0.619298    -0.593717    -0.454436    -0.429026

        21.1         22.1
      0.033380     0.036361

         1.2          2.2          3.2          4.2          5.2          6.2
     -0.573728    -0.565661    -0.420341    -0.409751     0.092351     0.103387


 **********************************************************************************************************************************
 DATASETS  * FILE   NREC   LENGTH (MB)   RECORD NAMES
              1      19      692.19       500      610      700      900      950      970     1000      129      960     1100   
                                          VAR    BASINP    GEOM    SYMINP    ZMAT    AOBASIS   BASIS     P2S    ABASIS      S 
                                         1400     1410     1200     1210     1080     1600     1650     1300     1700   
                                           T        V       H0       H01     AOSYM     SMH    MOLCAS    ERIS     OPER   

              2       3        0.91       700     1000     2100   
                                         GEOM     BASIS     RHF  

 PROGRAMS   *        TOTAL       RHF       INT
 CPU TIMES  *        19.45     12.31      7.10
 REAL TIME  *        22.63 SEC
 DISK USED  *         2.52 GB      
 GA USED    *         0.00 MB       (max)       0.00 MB       (current)
 **********************************************************************************************************************************


1PROGRAM * CCSD (Closed-shell coupled cluster)     Authors: C. Hampel, H.-J. Werner, 1991, M. Deegan, P.J. Knowles, 1992


 Convergence thresholds:  THRVAR = 1.00D-08  THRDEN = 1.00D-12

 CCSD(T)     terms to be evaluated (factor= 1.000)


 Number of core orbitals:           6 (   6   0 )
 Number of closed-shell orbitals:  18 (  14   4 )
 Number of external orbitals:     168 ( 118  50 )

 Molecular orbitals read from record     2100.2  Type=RHF/CANONICAL (state 1.1)

 Number of N-1 electron functions:              18
 Number of N-2 electron functions:             171
 Number of singly external CSFs:              1852
 Number of doubly external CSFs:           2403256
 Total number of CSFs:                     2405109

 Length of J-op  integral file:               0.00 MB
 Length of K-op  integral file:               1.55 MB
 Length of 3-ext integral record:             0.00 MB

 Memory could be reduced to 56.93 Mwords without degradation in triples

 Integral transformation finished. Total CPU:   2.82 sec, npass=  1  Memory used:  23.60 MW

 Reference energy:                   -337.94376398

 MP2 singlet pair energy:              -0.62275585
 MP2 triplet pair energy:              -0.40616837
 MP2 correlation energy:               -1.02892422
 MP2 total energy:                   -338.97268819

 SCS-MP2 correlation energy:           -1.00003400   (PS=  1.200000  PT=  0.333333)
 SCS-MP2 total energy:               -338.94379798

 ITER.      SQ.NORM     CORR.ENERGY   TOTAL ENERGY   ENERGY CHANGE        DEN1      VAR(S)    VAR(P)  DIIS     TIME
   1      1.31936144    -1.05744613  -339.00121011    -0.02852191     0.00279205  0.10D-01  0.60D-02  1  1     9.20
   2      1.34488023    -1.05932968  -339.00309365    -0.00188355    -0.02596216  0.22D-03  0.11D-02  2  2    15.70
   3      1.35751641    -1.06022272  -339.00398670    -0.00089304    -0.00556123  0.22D-03  0.52D-04  3  3    22.19
   4      1.36273143    -1.05995846  -339.00372243     0.00026426    -0.00169569  0.22D-04  0.96D-05  4  4    28.71
   5      1.36488320    -1.05990089  -339.00366486     0.00005757    -0.00045074  0.27D-05  0.12D-05  5  5    35.23
   6      1.36540555    -1.05987220  -339.00363617     0.00002869    -0.00004992  0.28D-06  0.19D-06  6  6    41.75
   7      1.36553304    -1.05985989  -339.00362387     0.00001231    -0.00000191  0.35D-07  0.23D-07  6  1    48.26
   8      1.36557039    -1.05985869  -339.00362267     0.00000120    -0.00000700  0.75D-08  0.33D-08  6  2    54.78
   9      1.36557190    -1.05985886  -339.00362284    -0.00000017     0.00000267  0.13D-08  0.49D-09  6  3    61.30
  10      1.36557668    -1.05985832  -339.00362229     0.00000055    -0.00000110  0.32D-09  0.69D-10  6  4    67.82
  11      1.36557643    -1.05985857  -339.00362255    -0.00000025     0.00000046  0.59D-10  0.13D-10  6  5    74.34
  12      1.36557644    -1.05985854  -339.00362252     0.00000003     0.00000002  0.45D-11  0.35D-11  6  6    80.86
  13      1.36557615    -1.05985859  -339.00362256    -0.00000004     0.00000012  0.11D-11  0.39D-12  6  1    87.39
  14      1.36557605    -1.05985860  -339.00362257    -0.00000001     0.00000004  0.90D-13  0.74D-13  6  2    93.91
  15      1.36557603    -1.05985860  -339.00362257     0.00000000     0.00000001  0.22D-13  0.12D-13  6  3   100.44
  16      1.36557603    -1.05985860  -339.00362257    -0.00000000     0.00000000  0.47D-14  0.21D-14  6  4   106.94
  17      1.36557603    -1.05985860  -339.00362257     0.00000000    -0.00000000  0.81D-15  0.42D-15  6  5   113.46
  18      1.36557603    -1.05985860  -339.00362257     0.00000000    -0.00000000  0.24D-15  0.77D-16  6  6   119.99
  19      1.36557603    -1.05985860  -339.00362257    -0.00000000    -0.00000000  0.39D-16  0.18D-16  6  1   126.50
  20      1.36557603    -1.05985860  -339.00362257     0.00000000    -0.00000000  0.10D-16  0.44D-17  6  2   133.02
  21      1.36557603    -1.05985860  -339.00362257    -0.00000000     0.00000000  0.23D-17  0.90D-18  6  3   139.55
  22      1.36557603    -1.05985860  -339.00362257    -0.00000000     0.00000000  0.33D-18  0.21D-18  6  4   146.08
  23      1.36557603    -1.05985860  -339.00362257    -0.00000000     0.00000000  0.99D-19  0.42D-19  6  5   152.59
  24      1.36557603    -1.05985860  -339.00362257    -0.00000000     0.00000000  0.17D-19  0.94D-20  6  6   159.12
  25      1.36557603    -1.05985860  -339.00362257    -0.00000000    -0.00000000  0.42D-20  0.16D-20  6  3   165.64
  26      1.36557603    -1.05985860  -339.00362257    -0.00000000    -0.00000000  0.76D-21  0.22D-21  6  1   172.18

 Norm of t1 vector:      0.14831768      S-energy:     0.00000000      T1 diagnostic:  0.01747941
                                                                       D1 diagnostic:  0.05910559


 Total CPU time for triples:    159.02 sec


 RESULTS
 =======

  Reference energy                   -337.943763975802
  CCSD singlet pair energy             -0.699684828877
  CCSD triplet pair energy             -0.360173767013
  CCSD correlation energy              -1.059858595889

  Triples (T) contribution             -0.039945262674
  Total correlation energy             -1.099803858563

  CCSD total energy                  -339.003622571691
  CCSD[T] energy                     -339.046791624346
  CCSD-T energy                      -339.042444407542
 !CCSD(T) total energy               -339.043567834366

 Timing summary (sec):

 STEP                 CPU(USER)    SYS     CPU(TOT)    WALL
 Transformation          2.91      0.31      3.22      3.23
 CCSD iterations       169.28      4.56    173.84    173.89
 Triples               159.02      3.75    162.77    162.81

 Program statistics:

 Available memory in ccsd:               999998604
 Min. memory needed in ccsd:               6087664
 Max. memory used in ccsd:                 8297292
 Max. memory used in cckext:               8019339 (26 integral passes)



 **********************************************************************************************************************************
 DATASETS  * FILE   NREC   LENGTH (MB)   RECORD NAMES
              1      20      912.69       500      610      700      900      950      970     1000      129      960     1100   
                                          VAR    BASINP    GEOM    SYMINP    ZMAT    AOBASIS   BASIS     P2S    ABASIS      S 
                                         1400     1410     1200     1210     1080     1600     1650     1300     1700     1380   
                                           T        V       H0       H01     AOSYM     SMH    MOLCAS    ERIS     OPER     JKOP   

              2       3        0.91       700     1000     2100   
                                         GEOM     BASIS     RHF  

 PROGRAMS   *        TOTAL   CCSD(T)       RHF       INT
 CPU TIMES  *       350.67    331.22     12.31      7.10
 REAL TIME  *       362.62 SEC
 DISK USED  *         2.52 GB      
 GA USED    *         0.00 MB       (max)       0.00 MB       (current)
 **********************************************************************************************************************************

        CCSD(T)         RHF-SCF 
   -339.04356783   -337.94376398
 **********************************************************************************************************************************
 Variable memory released
