
 Primary working directories    : /tmp/917047.409.gen4.q
 Secondary working directories  : /tmp/917047.409.gen4.q
 Wavefunction directory         : /home/vulcan/lo21740/wfu/
 Main file repository           : /tmp/917047.409.gen4.q/

 ARCHNAME  : Linux/x86_64
 FC        : /opt/intel/compilers_and_libraries_2016.1.150/linux/bin/intel64/ifort
 FCVERSION : 16.0.1
 BLASLIB   : -mkl
 id        : ccgc

 Nodes     nprocs
 n065         1
 ga_uses_ma=false, calling ma_init with nominal heap.
 GA-space will be limited to   8.0 MW (determined by -G option)

 Using customized tuning parameters: mindgm=10; mindgv=16; mindgc=4; mindgr=1; noblas=0; mincuda=1000; minvec=7
 default implementation of scratch files=df  

 ***,Optimization of h2o_2
 memory,1000,m
 gthresh,energy=1.0d-12,orbital=1.0d-10,oneint=1.0d-16,twoint=1.0d-16,optgrad=1.0d-6,compress=1.0d-13
 geomtyp=xyz
 
 bohr
 geometry = {
  C   -0.0029594064   -3.4217602939    0.0019701652
  H   -0.9744458622   -2.7355459639   -1.6798085498
  H   -0.9744480298   -2.7313743713    1.6820394552
  H    1.9369944390   -2.7292064772    0.0011120517
  H    0.0146189807   -5.4814888520   -0.0038725159
  C    0.0000511061    3.4217409464   -0.0002870358
  H    0.0035453836    5.4815494919    0.0009112508
  H    0.9693642439    2.7313609959   -1.6816148597
  H    0.9693602605    2.7294052558    1.6802386977
  H   -1.9420811154    2.7353192684   -0.0006886594
 }
 
 basis=AVDZ, H=VDZ
 {rhf;maxit,200}
 {ccsd(t);maxit,200}

 Variables initialized (661), CPU time= 0.00 sec
 Commands  initialized (458), CPU time= 0.01 sec, 486 directives.
 Default parameters read. Elapsed time= 0.05 sec

 Checking input...
 Passed
1


                                         ***  PROGRAM SYSTEM MOLPRO  ***
                         Copyright, University College Cardiff Consultants Limited, 2008

                                    Version 2010.1 linked May 16 2016 07:17:05


 **********************************************************************************************************************************
 LABEL *   Optimization of h2o_2                                                         
 Linux-4.4.3/n065(x86_64) 64 bit mpp version                                             DATE: 20-Jul-23          TIME: 13:25:56  
 **********************************************************************************************************************************

 SHA1:             9e8077add272b0f3cad6f7df79ec5211205f459d
 **********************************************************************************************************************************

 THRESHOLDS:

 ZERO    =  1.00D-12  ONEINT  =  1.00D-16  TWOINT  =  1.00D-16  PREFAC  =  1.00D-14  LOCALI  =  1.00D-09  EORDER  =  1.00D-04
 ENERGY  =  1.00D-12  ETEST   =  0.00D+00  EDENS   =  0.00D+00  THRDEDEF=  1.00D-06  GRADIENT=  1.00D-02  STEP    =  1.00D-03
 ORBITAL =  1.00D-10  CIVEC   =  1.00D-05  COEFF   =  1.00D-04  PRINTCI =  5.00D-02  PUNCHCI =  9.90D+01  OPTGRAD =  1.00D-06
 OPTENERG=  1.00D-06  OPTSTEP =  3.00D-04  THRGRAD =  1.00D-10  COMPRESS=  1.00D-13  VARMIN  =  1.00D-07  VARMAX  =  1.00D-03
 THRDOUB =  0.00D+00  THRDIV  =  1.00D-05  THRRED  =  1.00D-07  THRPSP  =  1.00D+00  THRDC   =  1.00D-10  THRCS   =  1.00D-10
 THRNRM  =  1.00D-08  THREQ   =  0.00D+00  THRDE   =  1.00D+00  THRREF  =  1.00D-05  SPARFAC =  1.00D+00  THRDLP  =  1.00D-07
 THRDIA  =  1.00D-10  THRDLS  =  1.00D-07  THRGPS  =  0.00D+00  THRKEX  =  0.00D+00  THRDIS  =  2.00D-01  THRVAR  =  1.00D-10
 THRLOC  =  1.00D-06  THRGAP  =  1.00D-06  THRLOCT = -1.00D+00  THRGAPT = -1.00D+00  THRORB  =  1.00D-06  THRMLTP =  0.00D+00
 THRCPQCI=  1.00D-10  KEXTA   =  0.00D+00  THRCOARS=  0.00D+00  SYMTOL  =  1.00D-06  GRADTOL =  1.00D-06  THROVL  =  1.00D-08
 THRORTH =  1.00D-08  GRID    =  1.00D-06  GRIDMAX =  1.00D-03  DTMAX   =  0.00D+00

 SETTING GEOMTYP        =    XYZ
 ZUNIT=BOHR
 

 Variable memory set to 1000000000 words,  buffer space   230000 words

 SETTING BASIS          =    AVDZ,H=VDZ


 Recomputing integrals since basis changed


 Using spherical harmonics

 Library entry C      S aug-cc-pVDZ          selected for orbital group  1
 Library entry C      P aug-cc-pVDZ          selected for orbital group  1
 Library entry C      D aug-cc-pVDZ          selected for orbital group  1
 Library entry H      S cc-pVDZ              selected for orbital group  2
 Library entry H      P cc-pVDZ              selected for orbital group  2

1PROGRAM * SEWARD (Integral evaluation for generally contracted gaussian basis sets)     Author: Roland Lindh, 1990

 Geometry written to block  1 of record 700


 Point group  C1  



 ATOMIC COORDINATES

 NR  ATOM    CHARGE       X              Y              Z

   1  C       6.00   -0.002959406   -3.421760294    0.001970165
   2  H       1.00   -0.974445862   -2.735545964   -1.679808550
   3  H       1.00   -0.974448030   -2.731374371    1.682039455
   4  H       1.00    1.936994439   -2.729206477    0.001112052
   5  H       1.00    0.014618981   -5.481488852   -0.003872516
   6  C       6.00    0.000051106    3.421740946   -0.000287036
   7  H       1.00    0.003545384    5.481549492    0.000911251
   8  H       1.00    0.969364244    2.731360996   -1.681614860
   9  H       1.00    0.969360261    2.729405256    1.680238698
  10  H       1.00   -1.942081115    2.735319268   -0.000688659

 Bond lengths in Bohr (Angstrom)

 1-2  2.059867881  1-3  2.059867881  1-4  2.059867095  1-5  2.059811853  6-7  2.059811858
     ( 1.090035136)     ( 1.090035136)     ( 1.090034720)     ( 1.090005487)     ( 1.090005490)

  6- 8  2.059867881   6- 9  2.059867881   6-10  2.059867095
       ( 1.090035136)       ( 1.090035136)       ( 1.090034720)

 Bond angles

  2-1-3  109.37975576   2-1-4  109.37963973   2-1-5  109.56223833   3-1-4  109.37963973

  3-1-5  109.96738065   4-1-5  109.15718803   7-6-8  109.56240831   7-6-9  109.56240831

  7- 6-10  109.56250039   8- 6- 9  109.37992579   8- 6-10  109.37980975   9- 6-10  109.37980976

 NUCLEAR CHARGE:                   20
 NUMBER OF PRIMITIVE AOS:         130
 NUMBER OF SYMMETRY AOS:          126
 NUMBER OF CONTRACTIONS:           86   (  86A   )
 NUMBER OF CORE ORBITALS:           2   (   2A   )
 NUMBER OF VALENCE ORBITALS:       16   (  16A   )


 NUCLEAR REPULSION ENERGY   41.34197195


 Eigenvalues of metric

         1 0.535E-02 0.665E-02 0.907E-02 0.114E-01 0.117E-01 0.117E-01 0.140E-01 0.140E-01


 Contracted 2-electron integrals neglected if value below      1.0D-16
 AO integral compression algorithm  1   Integral accuracy      1.0D-16

     57.672 MB (compressed) written to integral file ( 87.6%)

     Node minimum: 57.672 MB, node maximum: 57.672 MB


 NUMBER OF SORTED TWO-ELECTRON INTEGRALS:    6999411.     BUFFER LENGTH:  32768
 NUMBER OF SEGMENTS:   1  SEGMENT LENGTH:    6999411      RECORD LENGTH: 524288

 Memory used in sort:       7.56 MW

 SORT1 READ     8242194. AND WROTE     6852135. INTEGRALS IN     20 RECORDS. CPU TIME:     0.07 SEC, REAL TIME:     0.11 SEC
 SORT2 READ     6852135. AND WROTE     6999411. INTEGRALS IN    220 RECORDS. CPU TIME:     0.09 SEC, REAL TIME:     0.12 SEC

 FILE SIZES:   FILE 1:    52.1 MBYTE,  FILE 4:    83.9 MBYTE,   TOTAL:    136.0 MBYTE

 OPERATOR DM      FOR CENTER  0  COORDINATES:    0.000000    0.000000    0.000000


 **********************************************************************************************************************************
 DATASETS  * FILE   NREC   LENGTH (MB)   RECORD NAMES
              1      19       52.21       500      610      700      900      950      970     1000      129      960     1100   
                                          VAR    BASINP    GEOM    SYMINP    ZMAT    AOBASIS   BASIS     P2S    ABASIS      S 
                                         1400     1410     1200     1210     1080     1600     1650     1300     1700   
                                           T        V       H0       H01     AOSYM     SMH    MOLCAS    ERIS     OPER   

 PROGRAMS   *        TOTAL       INT
 CPU TIMES  *         0.73      0.69
 REAL TIME  *         1.02 SEC
 DISK USED  *       194.48 MB      
 GA USED    *         0.00 MB       (max)       0.00 MB       (current)
 **********************************************************************************************************************************

1PROGRAM * RHF-SCF (CLOSED SHELL)       Authors: W. Meyer, H.-J. Werner


 NUMBER OF ELECTRONS:      10+   10-    SPACE SYMMETRY=1    SPIN SYMMETRY: Singlet 
 CONVERGENCE THRESHOLDS:    1.00E-10 (Density)    1.00E-13 (Energy)
 MAX. NUMBER OF ITERATIONS:      200
 INTERPOLATION TYPE:            DIIS
 INTERPOLATION STEPS:              2 (START)      1 (STEP)
 LEVEL SHIFTS:                  0.00 (CLOSED)  0.00 (OPEN) 



 Orbital guess generated from atomic densities. Full valence occupancy:   18

 Molecular orbital dump at record        2100.2

 ITERATION    DDIFF          GRAD             ENERGY        2-EL.EN.            DIPOLE MOMENTS         DIIS
    1      0.000D+00      0.000D+00       -80.36119732    134.780309    0.00221    0.00001   -0.00128    0
    2      0.000D+00      0.502D-02       -80.39313629    132.491595    0.00071    0.00000   -0.00045    1
    3      0.106D-01      0.186D-02       -80.39709015    133.312419    0.00106    0.00001   -0.00063    2
    4      0.347D-02      0.507D-03       -80.39767373    133.180110    0.00096    0.00000   -0.00056    3
    5      0.114D-02      0.611D-04       -80.39768155    133.187498    0.00096    0.00000   -0.00055    4
    6      0.162D-03      0.345D-05       -80.39768158    133.187330    0.00096    0.00000   -0.00055    5
    7      0.156D-04      0.267D-06       -80.39768158    133.187320    0.00096    0.00000   -0.00055    5
    8      0.863D-06      0.479D-07       -80.39768158    133.187320    0.00096    0.00000   -0.00055    4
    9      0.113D-06      0.810D-08       -80.39768158    133.187322    0.00096    0.00001   -0.00055    4
   10      0.231D-07      0.130D-08       -80.39768158    133.187321    0.00096    0.00001   -0.00055    5
   11      0.309D-08      0.321D-09       -80.39768158    133.187321    0.00096    0.00001   -0.00055    5
   12      0.732D-09      0.931D-10       -80.39768158    133.187321    0.00096    0.00001   -0.00055    6
   13      0.221D-09      0.184D-10       -80.39768158    133.187321    0.00096    0.00001   -0.00055    6
   14      0.451D-10      0.366D-11       -80.39768158    133.187321    0.00096    0.00001   -0.00055    6
   15      0.142D-10      0.425D-12       -80.39768158    133.187321    0.00096    0.00001   -0.00055    6
   16      0.154D-11      0.980D-13       -80.39768158    133.187321    0.00096    0.00001   -0.00055    6
   17      0.249D-12      0.231D-13       -80.39768158    133.187321    0.00096    0.00001   -0.00055    0

 Final occupancy:  10

 !RHF STATE 1.1 Energy                -80.397681583357
 Nuclear energy                        41.34197195
 One-electron energy                 -188.33331420
 Two-electron energy                   66.59366067
 Virial quotient                       -1.00212536
 !RHF STATE 1.1 Dipole moment           0.00095507     0.00000500    -0.00055369
 Dipole moment /Debye                   0.00242739     0.00001271    -0.00140725

 Orbital energies:

         1.1          2.1          3.1          4.1          5.1          6.1          7.1          8.1          9.1         10.1
    -11.215480   -11.215477    -0.945479    -0.939593    -0.550825    -0.546365    -0.546342    -0.539034    -0.538982    -0.535419

        11.1         12.1
      0.080165     0.084239


 **********************************************************************************************************************************
 DATASETS  * FILE   NREC   LENGTH (MB)   RECORD NAMES
              1      19       52.21       500      610      700      900      950      970     1000      129      960     1100   
                                          VAR    BASINP    GEOM    SYMINP    ZMAT    AOBASIS   BASIS     P2S    ABASIS      S 
                                         1400     1410     1200     1210     1080     1600     1650     1300     1700   
                                           T        V       H0       H01     AOSYM     SMH    MOLCAS    ERIS     OPER   

              2       3        0.57       700     1000     2100   
                                         GEOM     BASIS     RHF  

 PROGRAMS   *        TOTAL       RHF       INT
 CPU TIMES  *         1.68      0.95      0.69
 REAL TIME  *         2.09 SEC
 DISK USED  *       194.48 MB      
 GA USED    *         0.00 MB       (max)       0.00 MB       (current)
 **********************************************************************************************************************************


1PROGRAM * CCSD (Closed-shell coupled cluster)     Authors: C. Hampel, H.-J. Werner, 1991, M. Deegan, P.J. Knowles, 1992


 Convergence thresholds:  THRVAR = 1.00D-08  THRDEN = 1.00D-12

 CCSD(T)     terms to be evaluated (factor= 1.000)


 Number of core orbitals:           2 (   2 )
 Number of closed-shell orbitals:   8 (   8 )
 Number of external orbitals:      76 (  76 )

 Molecular orbitals read from record     2100.2  Type=RHF/CANONICAL (state 1.1)

 Number of N-1 electron functions:               8
 Number of N-2 electron functions:              36
 Number of singly external CSFs:               608
 Number of doubly external CSFs:            185136
 Total number of CSFs:                      185745

 Length of J-op  integral file:               0.00 MB
 Length of K-op  integral file:               0.54 MB
 Length of 3-ext integral record:             0.00 MB

 Memory could be reduced to 5.45 Mwords without degradation in triples

 Integral transformation finished. Total CPU:   0.22 sec, npass=  1  Memory used:   3.53 MW

 Reference energy:                    -80.39768158

 MP2 singlet pair energy:              -0.23821353
 MP2 triplet pair energy:              -0.09578841
 MP2 correlation energy:               -0.33400193
 MP2 total energy:                    -80.73168352

 SCS-MP2 correlation energy:           -0.34545791   (PS=  1.200000  PT=  0.333333)
 SCS-MP2 total energy:                -80.74313949

 ITER.      SQ.NORM     CORR.ENERGY   TOTAL ENERGY   ENERGY CHANGE        DEN1      VAR(S)    VAR(P)  DIIS     TIME
   1      1.13988411    -0.37811972   -80.77580131    -0.04411779    -0.03297251  0.68D-03  0.24D-02  1  1     0.51
   2      1.15302705    -0.38091311   -80.77859469    -0.00279338    -0.01280939  0.15D-04  0.11D-03  2  2     0.82
   3      1.15509758    -0.38105130   -80.77873288    -0.00013819    -0.00107852  0.24D-05  0.62D-05  3  3     1.14
   4      1.15552596    -0.38106893   -80.77875051    -0.00001763    -0.00017359  0.60D-07  0.37D-06  4  4     1.46
   5      1.15558649    -0.38106497   -80.77874656     0.00000395    -0.00002808  0.29D-08  0.21D-07  5  5     1.77
   6      1.15558869    -0.38106433   -80.77874592     0.00000064    -0.00000059  0.19D-09  0.15D-08  6  6     2.09
   7      1.15558885    -0.38106461   -80.77874620    -0.00000028     0.00000005  0.15D-10  0.95D-10  6  1     2.40
   8      1.15558891    -0.38106462   -80.77874621    -0.00000001    -0.00000009  0.18D-11  0.64D-11  6  2     2.72
   9      1.15558882    -0.38106462   -80.77874621     0.00000000     0.00000002  0.37D-12  0.44D-12  6  4     3.03
  10      1.15558882    -0.38106462   -80.77874621    -0.00000000    -0.00000000  0.29D-13  0.33D-13  6  3     3.35
  11      1.15558881    -0.38106462   -80.77874621    -0.00000000     0.00000000  0.24D-14  0.30D-14  6  5     3.67
  12      1.15558880    -0.38106462   -80.77874621    -0.00000000     0.00000000  0.20D-15  0.31D-15  6  6     3.99
  13      1.15558880    -0.38106462   -80.77874621    -0.00000000     0.00000000  0.12D-16  0.39D-16  6  1     4.30
  14      1.15558880    -0.38106462   -80.77874621    -0.00000000     0.00000000  0.16D-17  0.49D-17  6  2     4.62
  15      1.15558880    -0.38106462   -80.77874621    -0.00000000     0.00000000  0.11D-18  0.51D-18  6  4     4.93
  16      1.15558880    -0.38106462   -80.77874621    -0.00000000     0.00000000  0.11D-19  0.44D-19  6  3     5.24
  17      1.15558880    -0.38106462   -80.77874621     0.00000000    -0.00000000  0.21D-21  0.38D-20  6  6     5.56
  18      1.15558880    -0.38106462   -80.77874621     0.00000000    -0.00000000  0.34D-22  0.80D-22  6  5     5.87

 Norm of t1 vector:      0.03875644      S-energy:    -0.00000000      T1 diagnostic:  0.00685124
                                                                       D1 diagnostic:  0.01214678


 Total CPU time for triples:      2.78 sec


 RESULTS
 =======

  Reference energy                    -80.397681583357
  CCSD singlet pair energy             -0.287790374475
  CCSD triplet pair energy             -0.093274249567
  CCSD correlation energy              -0.381064624042

  Triples (T) contribution             -0.008788258176
  Total correlation energy             -0.389852882218

  CCSD total energy                   -80.778746207399
  CCSD[T] energy                      -80.787749079919
  CCSD-T energy                       -80.787422413100
 !CCSD(T) total energy                -80.787534465575

 Timing summary (sec):

 STEP                 CPU(USER)    SYS     CPU(TOT)    WALL
 Transformation          0.22      0.03      0.25      0.25
 CCSD iterations         5.65      0.28      5.93      5.96
 Triples                 2.78      0.06      2.84      2.86

 Program statistics:

 Available memory in ccsd:               999999644
 Min. memory needed in ccsd:                591289
 Max. memory used in ccsd:                  742713
 Max. memory used in cckext:                619606 (18 integral passes)



 **********************************************************************************************************************************
 DATASETS  * FILE   NREC   LENGTH (MB)   RECORD NAMES
              1      20       69.79       500      610      700      900      950      970     1000      129      960     1100   
                                          VAR    BASINP    GEOM    SYMINP    ZMAT    AOBASIS   BASIS     P2S    ABASIS      S 
                                         1400     1410     1200     1210     1080     1600     1650     1300     1700     1380   
                                           T        V       H0       H01     AOSYM     SMH    MOLCAS    ERIS     OPER     JKOP   

              2       3        0.57       700     1000     2100   
                                         GEOM     BASIS     RHF  

 PROGRAMS   *        TOTAL   CCSD(T)       RHF       INT
 CPU TIMES  *        10.34      8.66      0.95      0.69
 REAL TIME  *        11.18 SEC
 DISK USED  *       194.48 MB      
 GA USED    *         0.00 MB       (max)       0.00 MB       (current)
 **********************************************************************************************************************************

        CCSD(T)         RHF-SCF 
    -80.78753447    -80.39768158
 **********************************************************************************************************************************
 Variable memory released
