
    -----------------------------------------------------------------------
          Psi4: An Open-Source Ab Initio Electronic Structure Package
                               Psi4 1.4a2.dev629 

                         Git: Rev {master} 2938fc2 dirty


    D. G. A. Smith, L. A. Burns, A. C. Simmonett, R. M. Parrish,
    M. C. Schieber, R. Galvelis, P. Kraus, H. Kruse, R. Di Remigio,
    A. Alenaizan, A. M. James, S. Lehtola, J. P. Misiewicz, M. Scheurer,
    R. A. Shaw, J. B. Schriber, Y. Xie, Z. L. Glick, D. A. Sirianni,
    J. S. O'Brien, J. M. Waldrop, A. Kumar, E. G. Hohenstein,
    B. P. Pritchard, B. R. Brooks, H. F. Schaefer III, A. Yu. Sokolov,
    K. Patkowski, A. E. DePrince III, U. Bozkaya, R. A. King,
    F. A. Evangelista, J. M. Turney, T. D. Crawford, C. D. Sherrill,
    J. Chem. Phys. 152(18) 184108 (2020). https://doi.org/10.1063/5.0006002

                            Additional Code Authors
    E. T. Seidl, C. L. Janssen, E. F. Valeev, M. L. Leininger,
    J. F. Gonthier, R. M. Richard, H. R. McAlexander, M. Saitow, X. Wang,
    P. Verma, and M. H. Lechner

             Previous Authors, Complete List of Code Contributors,
                       and Citations for Specific Modules
    https://github.com/psi4/psi4/blob/master/codemeta.json
    https://github.com/psi4/psi4/graphs/contributors
    http://psicode.org/psi4manual/master/introduction.html#citing-psifour

    -----------------------------------------------------------------------


    Psi4 started on: Wednesday, 05 January 2022 04:07PM

    Process ID: 3071
    Host:       n084
    PSIDATADIR: /opt/psi/4/master/share/psi4
    Memory:     500.0 MiB
    Threads:    4
    
  ==> Input File <==

--------------------------------------------------------------------------
import os
memory 14 GB 
 
molecule {
 C    2.3770459375    2.2675389421   -0.0015284253
 C    1.0589897671   -0.2469437274    0.0004094964
 O    2.0002861026   -2.2863192250    0.0021120584
 Cl   -2.3244798790    0.1033816302    0.0035026987
 H    4.4163186281    1.9647348686   -0.0007053593
 H    1.8025835134    3.3430788200   -1.6715805329
 H    1.7923387827    3.3330288589    1.6658646794
units bohr
}

basis {

assign 6-31g_2dfp_

[ 6-31g_2dfp_ ]

spherical

!----------------------------------------------------------------------
! Basis Set Exchange
! Version v0.8.13
! https://www.basissetexchange.org
!----------------------------------------------------------------------
!   Basis set: 6-31G(2df,p)
! Description: 6-31G(2df,p)
!        Role: orbital
!     Version: 0  (Data from the original Basis Set Exchange)
!----------------------------------------------------------------------


****
H     0
S    3   1.00
     18.7311370              0.03349460
      2.8253937              0.23472695
      0.6401217              0.81375733
S    1   1.00
      0.1612778              1.00000000
P    1   1.00
      1.5000000              1.0000000
P    1   1.00
      0.3750000              1.0000000
****
B     0
S    6   1.00
   2068.8823000              0.0018663
    310.6495700              0.0142515
     70.6830330              0.0695516
     19.8610800              0.2325729
      6.2993048              0.4670787
      2.1270270              0.3634314
SP   3   1.00
      4.7279710             -0.1303938              0.0745976
      1.1903377             -0.1307889              0.3078467
      0.3594117              1.1309444              0.7434568
SP   1   1.00
      0.1267512              1.0000000              1.0000000
D    1   1.00
      0.8020000              1.0000000
D    1   1.00
      0.2005000              1.0000000
F    1   1.00
      0.5000000              1.0000000
****
C     0
S    6   1.00
   3047.5249000              0.0018347
    457.3695100              0.0140373
    103.9486900              0.0688426
     29.2101550              0.2321844
      9.2866630              0.4679413
      3.1639270              0.3623120
SP   3   1.00
      7.8682724             -0.1193324              0.0689991
      1.8812885             -0.1608542              0.3164240
      0.5442493              1.1434564              0.7443083
SP   1   1.00
      0.1687144              1.0000000              1.0000000
D    1   1.00
      1.2520000              1.0000000
D    1   1.00
      0.3130000              1.0000000
F    1   1.00
      0.8000000              1.0000000
****
N     0
S    6   1.00
   4173.5110000              0.0018348
    627.4579000              0.0139950
    142.9021000              0.0685870
     40.2343300              0.2322410
     12.8202100              0.4690700
      4.3904370              0.3604550
SP   3   1.00
     11.6263580             -0.1149610              0.0675800
      2.7162800             -0.1691180              0.3239070
      0.7722180              1.1458520              0.7408950
SP   1   1.00
      0.2120313              1.0000000              1.0000000
D    1   1.00
      1.8260000              1.0000000
D    1   1.00
      0.4565000              1.0000000
F    1   1.00
      1.0000000              1.0000000
****
O     0
S    6   1.00
   5484.6717000              0.0018311
    825.2349500              0.0139501
    188.0469600              0.0684451
     52.9645000              0.2327143
     16.8975700              0.4701930
      5.7996353              0.3585209
SP   3   1.00
     15.5396160             -0.1107775              0.0708743
      3.5999336             -0.1480263              0.3397528
      1.0137618              1.1307670              0.7271586
SP   1   1.00
      0.2700058              1.0000000              1.0000000
D    1   1.00
      2.5840000              1.0000000
D    1   1.00
      0.6460000              1.0000000
F    1   1.00
      1.4000000              1.0000000
****
F     0
S    6   1.00
   7001.7130900              0.0018196169
   1051.3660900              0.0139160796
    239.2856900              0.0684053245
     67.3974453              0.233185760
     21.5199573              0.471267439
      7.40310130             0.356618546
SP   3   1.00
     20.8479528             -0.108506975            0.0716287243
      4.80830834            -0.146451658            0.3459121030
      1.34406986             1.128688580            0.7224699570
SP   1   1.00
      0.358151393            1.0000000              1.0000000
D    1   1.00
      3.5000000              1.0000000
D    1   1.00
      0.8750000              1.0000000
F    1   1.00
      1.8500000              1.0000000
****
Al     0
S    6   1.00
  13983.1000000              0.00194267
   2098.7500000              0.0148599
    477.7050000              0.0728494
    134.3600000              0.2468300
     42.8709000              0.4872580
     14.5189000              0.3234960
SP   6   1.00
    239.6680000             -0.00292619             0.00460285
     57.4419000             -0.0374080              0.0331990
     18.2859000             -0.1144870              0.1362820
      6.5991400              0.1156350              0.3304760
      2.4904900              0.6125950              0.4491460
      0.9445400              0.3937990              0.2657040
SP   3   1.00
      1.2779000             -0.2276060             -0.0175130
      0.3975900              0.00144583             0.2445330
      0.1600950              1.0927900              0.8049340
SP   1   1.00
      0.0556577              1.0000000              1.0000000
D    1   1.00
      0.6500000              1.0000000
D    1   1.00
      0.1625000              1.0000000
F    1   1.00
      0.2500000              1.0000000
****
Si     0
S    6   1.00
  16115.9000000              0.00195948
   2425.5800000              0.01492880
    553.8670000              0.07284780
    156.3400000              0.24613000
     50.0683000              0.48591400
     17.0178000              0.32500200
SP   6   1.00
    292.7180000             -0.00278094             0.00443826
     69.8731000             -0.03571460             0.03266790
     22.3363000             -0.11498500             0.13472100
      8.1503900              0.09356340             0.32867800
      3.1345800              0.60301700             0.44964000
      1.2254300              0.41895900             0.26137200
SP   3   1.00
      1.7273800             -0.24463000            -0.01779510
      0.5729220              0.00431572             0.25353900
      0.2221920              1.09818000             0.80066900
SP   1   1.00
      0.0778369              1.00000000             1.00000000
D    1   1.00
      0.9000000              1.0000000
D    1   1.00
      0.2250000              1.0000000
F    1   1.00
      0.3200000              1.0000000
****
P     0
S    6   1.00
  19413.3000000              0.0018516
   2909.4200000              0.0142062
    661.3640000              0.0699995
    185.7590000              0.2400790
     59.1943000              0.4847620
     20.0310000              0.3352000
SP   6   1.00
    339.4780000             -0.00278217             0.00456462
     81.0101000             -0.0360499              0.03369360
     25.8780000             -0.1166310              0.13975500
      9.4522100              0.0968328              0.33936200
      3.6656600              0.6144180              0.45092100
      1.4674600              0.4037980              0.23858600
SP   3   1.00
      2.1562300             -0.2529230             -0.01776530
      0.7489970              0.0328517              0.27405800
      0.2831450              1.0812500              0.78542100
SP   1   1.00
      0.0998317              1.0000000              1.00000000
D    1   1.00
      1.1000000              1.0000000
D    1   1.00
      0.2750000              1.0000000
F    1   1.00
      0.4500000              1.0000000
****
S     0
S    6   1.00
  21917.1000000              0.0018690
   3301.4900000              0.0142300
    754.1460000              0.0696960
    212.7110000              0.2384870
     67.9896000              0.4833070
     23.0515000              0.3380740
SP   6   1.00
    423.7350000             -0.0023767              0.0040610
    100.7100000             -0.0316930              0.0306810
     32.1599000             -0.1133170              0.1304520
     11.8079000              0.0560900              0.3272050
      4.6311000              0.5922550              0.4528510
      1.8702500              0.4550060              0.2560420
SP   3   1.00
      2.6158400             -0.2503740             -0.0145110
      0.9221670              0.0669570              0.3102630
      0.3412870              1.0545100              0.7544830
SP   1   1.00
      0.1171670              1.0000000              1.0000000
D    1   1.00
      1.3000000              1.0000000
D    1   1.00
      0.3250000              1.0000000
F    1   1.00
      0.5500000              1.0000000
****
Cl     0
S    6   1.00
  25180.1000000              0.0018330
   3780.3500000              0.0140340
    860.4740000              0.0690970
    242.1450000              0.2374520
     77.3349000              0.4830340
     26.2470000              0.3398560
SP   6   1.00
    491.7650000             -0.0022974              0.0039894
    116.9840000             -0.0307140              0.0303180
     37.4153000             -0.1125280              0.1298800
     13.7834000              0.0450160              0.3279510
      5.4521500              0.5893530              0.4535270
      2.2258800              0.4652060              0.2521540
SP   3   1.00
      3.1864900             -0.2518300             -0.0142990
      1.1442700              0.0615890              0.3235720
      0.4203770              1.0601800              0.7435070
SP   1   1.00
      0.1426570              1.0000000              1.0000000
D    1   1.00
      1.5000000              1.0000000
D    1   1.00
      0.3750000              1.0000000
F    1   1.00
      0.7000000              1.0000000
****
}


set {
reference rhf                          
freeze_core true
e_convergence 10                       
d_convergence 10                      
dft_spherical_points 1202
dft_radial_points 99
}

e = energy('b3lyp')

print_out('Grab this energy {0}'.format(e))
--------------------------------------------------------------------------

  Memory set to  13.039 GiB by Python driver.

Scratch directory: /tmp/

*** tstart() called on n084
*** at Wed Jan  5 16:07:17 2022

   => Loading Basis Set <=

    Name: ANONYMOUSF9A58F25
    Role: ORBITAL
    Keyword: BASIS
    atoms 1-2 entry C          line    48 inputblock 6-31g_2dfp_ 
    atoms 3   entry O          line    90 inputblock 6-31g_2dfp_ 
    atoms 4   entry CL         line   244 inputblock 6-31g_2dfp_ 
    atoms 5-7 entry H          line    15 inputblock 6-31g_2dfp_ 


         ---------------------------------------------------------
                                   SCF
               by Justin Turney, Rob Parrish, Andy Simmonett
                          and Daniel G. A. Smith
                              RKS Reference
                        4 Threads,  13351 MiB Core
         ---------------------------------------------------------

  ==> Geometry <==

    Molecular point group: c1
    Full point group: C1

    Geometry (in Bohr), charge = 0, multiplicity = 1:

       Center              X                  Y                   Z               Mass       
    ------------   -----------------  -----------------  -----------------  -----------------
         C            2.376836049676     2.267522834403    -0.003277031080    12.000000000000
         C            1.058779879276    -0.246959835097    -0.001339109380    12.000000000000
         O            2.000076214776    -2.286335332697     0.000363452620    15.994914619570
         CL          -2.324689766824     0.103365522503     0.001754092920    34.968852682000
         H            4.416108740276     1.964718760903    -0.002453965080     1.007825032230
         H            1.802373625576     3.343062712303    -1.673329138680     1.007825032230
         H            1.792128894876     3.333012751203     1.664116073620     1.007825032230

  Running in c1 symmetry.

  Rotational constants: A =      0.33749  B =      0.16448  C =      0.11292 [cm^-1]
  Rotational constants: A =  10117.67381  B =   4931.13358  C =   3385.12563 [MHz]
  Nuclear repulsion =  148.833039187339551

  Charge       = 0
  Multiplicity = 1
  Electrons    = 40
  Nalpha       = 20
  Nbeta        = 20

  ==> Algorithm <==

  SCF Algorithm Type is DF.
  DIIS enabled.
  MOM disabled.
  Fractional occupation disabled.
  Guess Type is SAD.
  Energy threshold   = 1.00e-10
  Density threshold  = 1.00e-10
  Integral threshold = 0.00e+00

  ==> Primary Basis <==

  Basis Set: ANONYMOUSF9A58F25
    Blend: 6-31G_2DFP_
    Number of shells: 46
    Number of basis function: 132
    Number of Cartesian functions: 152
    Spherical Harmonics?: true
    Max angular momentum: 3

  ==> DFT Potential <==

   => Composite Functional: B3LYP <= 

    B3LYP Hyb-GGA Exchange-Correlation Functional

    P. J. Stephens, F. J. Devlin, C. F. Chabalowski, and M. J. Frisch, J. Phys. Chem. 98, 11623 (1994)

    Deriv               =              1
    GGA                 =           TRUE
    Meta                =          FALSE

    Exchange Hybrid     =           TRUE
    MP2 Hybrid          =          FALSE

   => Exchange Functionals <=

    0.0800   Slater exchange
    0.7200         Becke 88

   => Exact (HF) Exchange <=

    0.2000               HF 

   => Correlation Functionals <=

    0.1900   Vosko, Wilk & Nusair (VWN5_RPA)
    0.8100   Lee, Yang & Parr

   => Molecular Quadrature <=

    Radial Scheme          =       TREUTLER
    Pruning Scheme         =           NONE
    Nuclear Scheme         =       TREUTLER

    BS radius alpha        =              1
    Pruning alpha          =              1
    Radial Points          =             99
    Spherical Points       =           1202
    Total Points           =         779092
    Total Blocks           =           5400
    Max Points             =            256
    Max Functions          =            131
    Weights Tolerance      =       1.00E-15

   => Loading Basis Set <=

    Name: (ANONYMOUSF9A58F25 AUX)
    Role: JKFIT
    Keyword: DF_BASIS_SCF
    atoms 1-2 entry C          line   198 file /opt/psi/4/master/share/psi4/basis/def2-universal-jkfit.gbs 
    atoms 3   entry O          line   318 file /opt/psi/4/master/share/psi4/basis/def2-universal-jkfit.gbs 
    atoms 4   entry CL         line   986 file /opt/psi/4/master/share/psi4/basis/def2-universal-jkfit.gbs 
    atoms 5-7 entry H          line    18 file /opt/psi/4/master/share/psi4/basis/def2-universal-jkfit.gbs 

  ==> Integral Setup <==

  DFHelper Memory: AOs need 0.058 GiB; user supplied 7.403 GiB. Using in-core AOs.

  ==> MemDFJK: Density-Fitted J/K Matrices <==

    J tasked:                   Yes
    K tasked:                   Yes
    wK tasked:                   No
    OpenMP threads:               4
    Memory [MiB]:              7580
    Algorithm:                 Core
    Schwarz Cutoff:           1E-12
    Mask sparsity (%):       1.1364
    Fitting Condition:        1E-10

   => Auxiliary Basis Set <=

  Basis Set: (ANONYMOUSF9A58F25 AUX)
    Blend: DEF2-UNIVERSAL-JKFIT
    Number of shells: 131
    Number of basis function: 409
    Number of Cartesian functions: 486
    Spherical Harmonics?: true
    Max angular momentum: 4

  Cached 100.0% of DFT collocation blocks in 2.376 [GiB].

  Minimum eigenvalue in the overlap matrix is 1.6610391893E-03.
  Reciprocal condition number of the overlap matrix is 3.0776596530E-04.
    Using symmetric orthogonalization.

  ==> Pre-Iterations <==

  SCF Guess: Superposition of Atomic Densities via on-the-fly atomic UHF (no occupation information).

   -------------------------
    Irrep   Nso     Nmo    
   -------------------------
     A        132     132 
   -------------------------
    Total     132     132
   -------------------------

  ==> Iterations <==

                           Total Energy        Delta E     RMS |[F,P]|

   @DF-RKS iter SAD:  -613.00948827781701   -6.13009e+02   0.00000e+00 
   @DF-RKS iter   1:  -613.24544954121984   -2.35961e-01   5.19797e-03 DIIS
   @DF-RKS iter   2:  -612.83103922960777    4.14410e-01   9.11864e-03 DIIS
   @DF-RKS iter   3:  -613.41153326791084   -5.80494e-01   2.34270e-03 DIIS
   @DF-RKS iter   4:  -613.45474410156010   -4.32108e-02   3.59619e-04 DIIS
   @DF-RKS iter   5:  -613.45551456852763   -7.70467e-04   1.70374e-04 DIIS
   @DF-RKS iter   6:  -613.45580889718747   -2.94329e-04   4.76107e-05 DIIS
   @DF-RKS iter   7:  -613.45582643643468   -1.75392e-05   1.31470e-05 DIIS
   @DF-RKS iter   8:  -613.45582797157454   -1.53514e-06   2.28341e-06 DIIS
   @DF-RKS iter   9:  -613.45582801970022   -4.81257e-08   4.57041e-07 DIIS
   @DF-RKS iter  10:  -613.45582802164893   -1.94871e-09   9.37300e-08 DIIS
   @DF-RKS iter  11:  -613.45582802174476   -9.58380e-11   1.91074e-08 DIIS
   @DF-RKS iter  12:  -613.45582802174749   -2.72848e-12   5.17917e-09 DIIS
   @DF-RKS iter  13:  -613.45582802174772   -2.27374e-13   7.30539e-10 DIIS
   @DF-RKS iter  14:  -613.45582802174818   -4.54747e-13   2.48460e-10 DIIS
   @DF-RKS iter  15:  -613.45582802174783    3.41061e-13   3.48618e-11 DIIS
  Energy and wave function converged.


  ==> Post-Iterations <==

    Orbital Energies [Eh]
    ---------------------

    Doubly Occupied:                                                      

       1A   -101.533449     2A    -19.181505     3A    -10.338765  
       4A    -10.217644     5A     -9.463606     6A     -7.225277  
       7A     -7.218561     8A     -7.217330     9A     -1.092153  
      10A     -0.853150    11A     -0.765865    12A     -0.563936  
      13A     -0.493714    14A     -0.478070    15A     -0.473792  
      16A     -0.422371    17A     -0.401623    18A     -0.326632  
      19A     -0.322625    20A     -0.296620  

    Virtual:                                                              

      21A     -0.039213    22A      0.024583    23A      0.081605  
      24A      0.128084    25A      0.136630    26A      0.213847  
      27A      0.248926    28A      0.322960    29A      0.369017  
      30A      0.393355    31A      0.394361    32A      0.415050  
      33A      0.415230    34A      0.438700    35A      0.448458  
      36A      0.448657    37A      0.475891    38A      0.526581  
      39A      0.553972    40A      0.554470    41A      0.574162  
      42A      0.602788    43A      0.623750    44A      0.665156  
      45A      0.702142    46A      0.751734    47A      0.809725  
      48A      0.819398    49A      0.844261    50A      0.864309  
      51A      0.909181    52A      0.943082    53A      0.966411  
      54A      1.044144    55A      1.086868    56A      1.123565  
      57A      1.157838    58A      1.186309    59A      1.279756  
      60A      1.310437    61A      1.315748    62A      1.342079  
      63A      1.410770    64A      1.421123    65A      1.536807  
      66A      1.598751    67A      1.648945    68A      1.665063  
      69A      1.767899    70A      1.793126    71A      1.882446  
      72A      1.924993    73A      1.954958    74A      2.068942  
      75A      2.077311    76A      2.104899    77A      2.123922  
      78A      2.136078    79A      2.210677    80A      2.229864  
      81A      2.369381    82A      2.381378    83A      2.412807  
      84A      2.497787    85A      2.521979    86A      2.636562  
      87A      2.725935    88A      2.738158    89A      2.815441  
      90A      2.880814    91A      2.946253    92A      2.966323  
      93A      3.076094    94A      3.111377    95A      3.142396  
      96A      3.200179    97A      3.266769    98A      3.312734  
      99A      3.378144   100A      3.400880   101A      3.442786  
     102A      3.444901   103A      3.493532   104A      3.591373  
     105A      3.642668   106A      3.779197   107A      3.792765  
     108A      3.958354   109A      3.979418   110A      4.092810  
     111A      4.107190   112A      4.124332   113A      4.238486  
     114A      4.387282   115A      4.441783   116A      4.460392  
     117A      4.529699   118A      4.936397   119A      5.046198  
     120A      5.052568   121A      5.189489   122A      5.205795  
     123A      5.493502   124A      5.508162   125A      5.868993  
     126A      5.922240   127A      6.145580   128A      6.801101  
     129A      6.806645   130A      7.088530   131A      7.263052  
     132A      7.537042  

    Final Occupation by Irrep:
              A 
    DOCC [    20 ]

  @DF-RKS Final Energy:  -613.45582802174783

   => Energetics <=

    Nuclear Repulsion Energy =            148.8330391873395513
    One-Electron Energy =               -1138.6934571785225216
    Two-Electron Energy =                 415.7795826334750586
    DFT Exchange-Correlation Energy =     -39.3749926640398442
    Empirical Dispersion Energy =           0.0000000000000000
    VV10 Nonlocal Energy =                  0.0000000000000000
    Total Energy =                       -613.4558280217477204

Computation Completed


Properties will be evaluated at   0.000000,   0.000000,   0.000000 [a0]

Properties computed using the SCF density matrix

  Nuclear Dipole Moment: [e a0]
     X:     5.1052      Y:     4.2307      Z:    -0.0066

  Electronic Dipole Moment: [e a0]
     X:    -4.6638      Y:    -3.2756      Z:     0.0053

  Dipole Moment: [e a0]
     X:     0.4414      Y:     0.9551      Z:    -0.0014     Total:     1.0521

  Dipole Moment: [D]
     X:     1.1218      Y:     2.4276      Z:    -0.0035     Total:     2.6743


*** tstop() called on n084 at Wed Jan  5 16:07:29 2022
Module time:
	user time   =      46.68 seconds =       0.78 minutes
	system time =       0.74 seconds =       0.01 minutes
	total time  =         12 seconds =       0.20 minutes
Total time:
	user time   =      46.68 seconds =       0.78 minutes
	system time =       0.74 seconds =       0.01 minutes
	total time  =         12 seconds =       0.20 minutes
Grab this energy -613.4558280217478
    Psi4 stopped on: Wednesday, 05 January 2022 04:07PM
    Psi4 wall time for execution: 0:00:12.20

*** Psi4 exiting successfully. Buy a developer a beer!
