
    -----------------------------------------------------------------------
          Psi4: An Open-Source Ab Initio Electronic Structure Package
                               Psi4 1.4a2.dev629 

                         Git: Rev {master} 2938fc2 dirty


    D. G. A. Smith, L. A. Burns, A. C. Simmonett, R. M. Parrish,
    M. C. Schieber, R. Galvelis, P. Kraus, H. Kruse, R. Di Remigio,
    A. Alenaizan, A. M. James, S. Lehtola, J. P. Misiewicz, M. Scheurer,
    R. A. Shaw, J. B. Schriber, Y. Xie, Z. L. Glick, D. A. Sirianni,
    J. S. O'Brien, J. M. Waldrop, A. Kumar, E. G. Hohenstein,
    B. P. Pritchard, B. R. Brooks, H. F. Schaefer III, A. Yu. Sokolov,
    K. Patkowski, A. E. DePrince III, U. Bozkaya, R. A. King,
    F. A. Evangelista, J. M. Turney, T. D. Crawford, C. D. Sherrill,
    J. Chem. Phys. 152(18) 184108 (2020). https://doi.org/10.1063/5.0006002

                            Additional Code Authors
    E. T. Seidl, C. L. Janssen, E. F. Valeev, M. L. Leininger,
    J. F. Gonthier, R. M. Richard, H. R. McAlexander, M. Saitow, X. Wang,
    P. Verma, and M. H. Lechner

             Previous Authors, Complete List of Code Contributors,
                       and Citations for Specific Modules
    https://github.com/psi4/psi4/blob/master/codemeta.json
    https://github.com/psi4/psi4/graphs/contributors
    http://psicode.org/psi4manual/master/introduction.html#citing-psifour

    -----------------------------------------------------------------------


    Psi4 started on: Wednesday, 05 January 2022 04:06PM

    Process ID: 13809
    Host:       n082
    PSIDATADIR: /opt/psi/4/master/share/psi4
    Memory:     500.0 MiB
    Threads:    4
    
  ==> Input File <==

--------------------------------------------------------------------------
import os
memory 14 GB 
 
molecule {
 C    2.3757671730    2.2653515674    0.0011289255
 C    1.0585466702   -0.2434418664    0.0006131274
 O    2.0084517289   -2.2777534502    0.0005702421
 Cl   -2.3264119112    0.1062114728   -0.0001477343
 H    4.4080367987    1.9603081876    0.0040008115
 H    1.7959306450    3.3358008860   -1.6675077805
 H    1.8027617479    3.3320233702    1.6594170236
units bohr
}

basis {

assign 6-31g_2dfp_

[ 6-31g_2dfp_ ]

spherical

!----------------------------------------------------------------------
! Basis Set Exchange
! Version v0.8.13
! https://www.basissetexchange.org
!----------------------------------------------------------------------
!   Basis set: 6-31G(2df,p)
! Description: 6-31G(2df,p)
!        Role: orbital
!     Version: 0  (Data from the original Basis Set Exchange)
!----------------------------------------------------------------------


****
H     0
S    3   1.00
     18.7311370              0.03349460
      2.8253937              0.23472695
      0.6401217              0.81375733
S    1   1.00
      0.1612778              1.00000000
P    1   1.00
      1.5000000              1.0000000
P    1   1.00
      0.3750000              1.0000000
****
B     0
S    6   1.00
   2068.8823000              0.0018663
    310.6495700              0.0142515
     70.6830330              0.0695516
     19.8610800              0.2325729
      6.2993048              0.4670787
      2.1270270              0.3634314
SP   3   1.00
      4.7279710             -0.1303938              0.0745976
      1.1903377             -0.1307889              0.3078467
      0.3594117              1.1309444              0.7434568
SP   1   1.00
      0.1267512              1.0000000              1.0000000
D    1   1.00
      0.8020000              1.0000000
D    1   1.00
      0.2005000              1.0000000
F    1   1.00
      0.5000000              1.0000000
****
C     0
S    6   1.00
   3047.5249000              0.0018347
    457.3695100              0.0140373
    103.9486900              0.0688426
     29.2101550              0.2321844
      9.2866630              0.4679413
      3.1639270              0.3623120
SP   3   1.00
      7.8682724             -0.1193324              0.0689991
      1.8812885             -0.1608542              0.3164240
      0.5442493              1.1434564              0.7443083
SP   1   1.00
      0.1687144              1.0000000              1.0000000
D    1   1.00
      1.2520000              1.0000000
D    1   1.00
      0.3130000              1.0000000
F    1   1.00
      0.8000000              1.0000000
****
N     0
S    6   1.00
   4173.5110000              0.0018348
    627.4579000              0.0139950
    142.9021000              0.0685870
     40.2343300              0.2322410
     12.8202100              0.4690700
      4.3904370              0.3604550
SP   3   1.00
     11.6263580             -0.1149610              0.0675800
      2.7162800             -0.1691180              0.3239070
      0.7722180              1.1458520              0.7408950
SP   1   1.00
      0.2120313              1.0000000              1.0000000
D    1   1.00
      1.8260000              1.0000000
D    1   1.00
      0.4565000              1.0000000
F    1   1.00
      1.0000000              1.0000000
****
O     0
S    6   1.00
   5484.6717000              0.0018311
    825.2349500              0.0139501
    188.0469600              0.0684451
     52.9645000              0.2327143
     16.8975700              0.4701930
      5.7996353              0.3585209
SP   3   1.00
     15.5396160             -0.1107775              0.0708743
      3.5999336             -0.1480263              0.3397528
      1.0137618              1.1307670              0.7271586
SP   1   1.00
      0.2700058              1.0000000              1.0000000
D    1   1.00
      2.5840000              1.0000000
D    1   1.00
      0.6460000              1.0000000
F    1   1.00
      1.4000000              1.0000000
****
F     0
S    6   1.00
   7001.7130900              0.0018196169
   1051.3660900              0.0139160796
    239.2856900              0.0684053245
     67.3974453              0.233185760
     21.5199573              0.471267439
      7.40310130             0.356618546
SP   3   1.00
     20.8479528             -0.108506975            0.0716287243
      4.80830834            -0.146451658            0.3459121030
      1.34406986             1.128688580            0.7224699570
SP   1   1.00
      0.358151393            1.0000000              1.0000000
D    1   1.00
      3.5000000              1.0000000
D    1   1.00
      0.8750000              1.0000000
F    1   1.00
      1.8500000              1.0000000
****
Al     0
S    6   1.00
  13983.1000000              0.00194267
   2098.7500000              0.0148599
    477.7050000              0.0728494
    134.3600000              0.2468300
     42.8709000              0.4872580
     14.5189000              0.3234960
SP   6   1.00
    239.6680000             -0.00292619             0.00460285
     57.4419000             -0.0374080              0.0331990
     18.2859000             -0.1144870              0.1362820
      6.5991400              0.1156350              0.3304760
      2.4904900              0.6125950              0.4491460
      0.9445400              0.3937990              0.2657040
SP   3   1.00
      1.2779000             -0.2276060             -0.0175130
      0.3975900              0.00144583             0.2445330
      0.1600950              1.0927900              0.8049340
SP   1   1.00
      0.0556577              1.0000000              1.0000000
D    1   1.00
      0.6500000              1.0000000
D    1   1.00
      0.1625000              1.0000000
F    1   1.00
      0.2500000              1.0000000
****
Si     0
S    6   1.00
  16115.9000000              0.00195948
   2425.5800000              0.01492880
    553.8670000              0.07284780
    156.3400000              0.24613000
     50.0683000              0.48591400
     17.0178000              0.32500200
SP   6   1.00
    292.7180000             -0.00278094             0.00443826
     69.8731000             -0.03571460             0.03266790
     22.3363000             -0.11498500             0.13472100
      8.1503900              0.09356340             0.32867800
      3.1345800              0.60301700             0.44964000
      1.2254300              0.41895900             0.26137200
SP   3   1.00
      1.7273800             -0.24463000            -0.01779510
      0.5729220              0.00431572             0.25353900
      0.2221920              1.09818000             0.80066900
SP   1   1.00
      0.0778369              1.00000000             1.00000000
D    1   1.00
      0.9000000              1.0000000
D    1   1.00
      0.2250000              1.0000000
F    1   1.00
      0.3200000              1.0000000
****
P     0
S    6   1.00
  19413.3000000              0.0018516
   2909.4200000              0.0142062
    661.3640000              0.0699995
    185.7590000              0.2400790
     59.1943000              0.4847620
     20.0310000              0.3352000
SP   6   1.00
    339.4780000             -0.00278217             0.00456462
     81.0101000             -0.0360499              0.03369360
     25.8780000             -0.1166310              0.13975500
      9.4522100              0.0968328              0.33936200
      3.6656600              0.6144180              0.45092100
      1.4674600              0.4037980              0.23858600
SP   3   1.00
      2.1562300             -0.2529230             -0.01776530
      0.7489970              0.0328517              0.27405800
      0.2831450              1.0812500              0.78542100
SP   1   1.00
      0.0998317              1.0000000              1.00000000
D    1   1.00
      1.1000000              1.0000000
D    1   1.00
      0.2750000              1.0000000
F    1   1.00
      0.4500000              1.0000000
****
S     0
S    6   1.00
  21917.1000000              0.0018690
   3301.4900000              0.0142300
    754.1460000              0.0696960
    212.7110000              0.2384870
     67.9896000              0.4833070
     23.0515000              0.3380740
SP   6   1.00
    423.7350000             -0.0023767              0.0040610
    100.7100000             -0.0316930              0.0306810
     32.1599000             -0.1133170              0.1304520
     11.8079000              0.0560900              0.3272050
      4.6311000              0.5922550              0.4528510
      1.8702500              0.4550060              0.2560420
SP   3   1.00
      2.6158400             -0.2503740             -0.0145110
      0.9221670              0.0669570              0.3102630
      0.3412870              1.0545100              0.7544830
SP   1   1.00
      0.1171670              1.0000000              1.0000000
D    1   1.00
      1.3000000              1.0000000
D    1   1.00
      0.3250000              1.0000000
F    1   1.00
      0.5500000              1.0000000
****
Cl     0
S    6   1.00
  25180.1000000              0.0018330
   3780.3500000              0.0140340
    860.4740000              0.0690970
    242.1450000              0.2374520
     77.3349000              0.4830340
     26.2470000              0.3398560
SP   6   1.00
    491.7650000             -0.0022974              0.0039894
    116.9840000             -0.0307140              0.0303180
     37.4153000             -0.1125280              0.1298800
     13.7834000              0.0450160              0.3279510
      5.4521500              0.5893530              0.4535270
      2.2258800              0.4652060              0.2521540
SP   3   1.00
      3.1864900             -0.2518300             -0.0142990
      1.1442700              0.0615890              0.3235720
      0.4203770              1.0601800              0.7435070
SP   1   1.00
      0.1426570              1.0000000              1.0000000
D    1   1.00
      1.5000000              1.0000000
D    1   1.00
      0.3750000              1.0000000
F    1   1.00
      0.7000000              1.0000000
****
}


set {
reference rhf                          
freeze_core true
e_convergence 10                       
d_convergence 10                      
dft_spherical_points 1202
dft_radial_points 99
}

e = energy('b3lyp')

print_out('Grab this energy {0}'.format(e))
--------------------------------------------------------------------------

  Memory set to  13.039 GiB by Python driver.

Scratch directory: /tmp/

*** tstart() called on n082
*** at Wed Jan  5 16:06:47 2022

   => Loading Basis Set <=

    Name: ANONYMOUSAFC893B8
    Role: ORBITAL
    Keyword: BASIS
    atoms 1-2 entry C          line    48 inputblock 6-31g_2dfp_ 
    atoms 3   entry O          line    90 inputblock 6-31g_2dfp_ 
    atoms 4   entry CL         line   244 inputblock 6-31g_2dfp_ 
    atoms 5-7 entry H          line    15 inputblock 6-31g_2dfp_ 


         ---------------------------------------------------------
                                   SCF
               by Justin Turney, Rob Parrish, Andy Simmonett
                          and Daniel G. A. Smith
                              RKS Reference
                        4 Threads,  13351 MiB Core
         ---------------------------------------------------------

  ==> Geometry <==

    Molecular point group: c1
    Full point group: C1

    Geometry (in Bohr), charge = 0, multiplicity = 1:

       Center              X                  Y                   Z               Mass       
    ------------   -----------------  -----------------  -----------------  -----------------
         C            2.375072101047     2.262271760396     0.000863015852    12.000000000000
         C            1.057851598247    -0.246521673404     0.000347217752    12.000000000000
         O            2.007756656947    -2.280833257204     0.000304332452    15.994914619570
         CL          -2.327106983153     0.103131665796    -0.000413643948    34.968852682000
         H            4.407341726747     1.957228380596     0.003734901852     1.007825032230
         H            1.795235573047     3.332721078996    -1.667773690148     1.007825032230
         H            1.802066675947     3.328943563196     1.659151113952     1.007825032230

  Running in c1 symmetry.

  Rotational constants: A =      0.33911  B =      0.16419  C =      0.11294 [cm^-1]
  Rotational constants: A =  10166.17889  B =   4922.31549  C =   3385.91913 [MHz]
  Nuclear repulsion =  148.911200155315214

  Charge       = 0
  Multiplicity = 1
  Electrons    = 40
  Nalpha       = 20
  Nbeta        = 20

  ==> Algorithm <==

  SCF Algorithm Type is DF.
  DIIS enabled.
  MOM disabled.
  Fractional occupation disabled.
  Guess Type is SAD.
  Energy threshold   = 1.00e-10
  Density threshold  = 1.00e-10
  Integral threshold = 0.00e+00

  ==> Primary Basis <==

  Basis Set: ANONYMOUSAFC893B8
    Blend: 6-31G_2DFP_
    Number of shells: 46
    Number of basis function: 132
    Number of Cartesian functions: 152
    Spherical Harmonics?: true
    Max angular momentum: 3

  ==> DFT Potential <==

   => Composite Functional: B3LYP <= 

    B3LYP Hyb-GGA Exchange-Correlation Functional

    P. J. Stephens, F. J. Devlin, C. F. Chabalowski, and M. J. Frisch, J. Phys. Chem. 98, 11623 (1994)

    Deriv               =              1
    GGA                 =           TRUE
    Meta                =          FALSE

    Exchange Hybrid     =           TRUE
    MP2 Hybrid          =          FALSE

   => Exchange Functionals <=

    0.0800   Slater exchange
    0.7200         Becke 88

   => Exact (HF) Exchange <=

    0.2000               HF 

   => Correlation Functionals <=

    0.1900   Vosko, Wilk & Nusair (VWN5_RPA)
    0.8100   Lee, Yang & Parr

   => Molecular Quadrature <=

    Radial Scheme          =       TREUTLER
    Pruning Scheme         =           NONE
    Nuclear Scheme         =       TREUTLER

    BS radius alpha        =              1
    Pruning alpha          =              1
    Radial Points          =             99
    Spherical Points       =           1202
    Total Points           =         779023
    Total Blocks           =           5407
    Max Points             =            256
    Max Functions          =            131
    Weights Tolerance      =       1.00E-15

   => Loading Basis Set <=

    Name: (ANONYMOUSAFC893B8 AUX)
    Role: JKFIT
    Keyword: DF_BASIS_SCF
    atoms 1-2 entry C          line   198 file /opt/psi/4/master/share/psi4/basis/def2-universal-jkfit.gbs 
    atoms 3   entry O          line   318 file /opt/psi/4/master/share/psi4/basis/def2-universal-jkfit.gbs 
    atoms 4   entry CL         line   986 file /opt/psi/4/master/share/psi4/basis/def2-universal-jkfit.gbs 
    atoms 5-7 entry H          line    18 file /opt/psi/4/master/share/psi4/basis/def2-universal-jkfit.gbs 

  ==> Integral Setup <==

  DFHelper Memory: AOs need 0.058 GiB; user supplied 7.402 GiB. Using in-core AOs.

  ==> MemDFJK: Density-Fitted J/K Matrices <==

    J tasked:                   Yes
    K tasked:                   Yes
    wK tasked:                   No
    OpenMP threads:               4
    Memory [MiB]:              7580
    Algorithm:                 Core
    Schwarz Cutoff:           1E-12
    Mask sparsity (%):       1.1364
    Fitting Condition:        1E-10

   => Auxiliary Basis Set <=

  Basis Set: (ANONYMOUSAFC893B8 AUX)
    Blend: DEF2-UNIVERSAL-JKFIT
    Number of shells: 131
    Number of basis function: 409
    Number of Cartesian functions: 486
    Spherical Harmonics?: true
    Max angular momentum: 4

  Cached 100.0% of DFT collocation blocks in 2.377 [GiB].

  Minimum eigenvalue in the overlap matrix is 1.6526635230E-03.
  Reciprocal condition number of the overlap matrix is 3.0537524162E-04.
    Using symmetric orthogonalization.

  ==> Pre-Iterations <==

  SCF Guess: Superposition of Atomic Densities via on-the-fly atomic UHF (no occupation information).

   -------------------------
    Irrep   Nso     Nmo    
   -------------------------
     A        132     132 
   -------------------------
    Total     132     132
   -------------------------

  ==> Iterations <==

                           Total Energy        Delta E     RMS |[F,P]|

   @DF-RKS iter SAD:  -613.01580837117854   -6.13016e+02   0.00000e+00 
   @DF-RKS iter   1:  -613.24458392621773   -2.28776e-01   5.20857e-03 DIIS
   @DF-RKS iter   2:  -612.83150498948646    4.13079e-01   9.11438e-03 DIIS
   @DF-RKS iter   3:  -613.41119938494285   -5.79694e-01   2.35253e-03 DIIS
   @DF-RKS iter   4:  -613.45473055104799   -4.35312e-02   3.58375e-04 DIIS
   @DF-RKS iter   5:  -613.45549101640893   -7.60465e-04   1.70808e-04 DIIS
   @DF-RKS iter   6:  -613.45578685148985   -2.95835e-04   4.77813e-05 DIIS
   @DF-RKS iter   7:  -613.45580453068465   -1.76792e-05   1.31206e-05 DIIS
   @DF-RKS iter   8:  -613.45580605934674   -1.52866e-06   2.27083e-06 DIIS
   @DF-RKS iter   9:  -613.45580610706827   -4.77215e-08   4.55547e-07 DIIS
   @DF-RKS iter  10:  -613.45580610900572   -1.93745e-09   9.39824e-08 DIIS
   @DF-RKS iter  11:  -613.45580610910281   -9.70886e-11   1.91508e-08 DIIS
   @DF-RKS iter  12:  -613.45580610910565   -2.84217e-12   5.19008e-09 DIIS
   @DF-RKS iter  13:  -613.45580610910588   -2.27374e-13   7.37627e-10 DIIS
   @DF-RKS iter  14:  -613.45580610910611   -2.27374e-13   2.49601e-10 DIIS
   @DF-RKS iter  15:  -613.45580610910645   -3.41061e-13   3.49798e-11 DIIS
  Energy and wave function converged.


  ==> Post-Iterations <==

    Orbital Energies [Eh]
    ---------------------

    Doubly Occupied:                                                      

       1A   -101.533559     2A    -19.181484     3A    -10.338505  
       4A    -10.216349     5A     -9.463698     6A     -7.225372  
       7A     -7.218652     8A     -7.217424     9A     -1.092482  
      10A     -0.853247    11A     -0.766779    12A     -0.564178  
      13A     -0.494279    14A     -0.478681    15A     -0.474012  
      16A     -0.422675    17A     -0.401747    18A     -0.326757  
      19A     -0.322666    20A     -0.296768  

    Virtual:                                                              

      21A     -0.038968    22A      0.024364    23A      0.082306  
      24A      0.129042    25A      0.137430    26A      0.214388  
      27A      0.249480    28A      0.323205    29A      0.368992  
      30A      0.393431    31A      0.394314    32A      0.415361  
      33A      0.415444    34A      0.438782    35A      0.448473  
      36A      0.448821    37A      0.476469    38A      0.527820  
      39A      0.554639    40A      0.554767    41A      0.575300  
      42A      0.603663    43A      0.624986    44A      0.665618  
      45A      0.702405    46A      0.751804    47A      0.810687  
      48A      0.820801    49A      0.844132    50A      0.865101  
      51A      0.909341    52A      0.944840    53A      0.966402  
      54A      1.045173    55A      1.087143    56A      1.124755  
      57A      1.159320    58A      1.186918    59A      1.280610  
      60A      1.312397    61A      1.316207    62A      1.343894  
      63A      1.412571    64A      1.422404    65A      1.539832  
      66A      1.600509    67A      1.649002    68A      1.666825  
      69A      1.771502    70A      1.795542    71A      1.883785  
      72A      1.927344    73A      1.955355    74A      2.068903  
      75A      2.077181    76A      2.105210    77A      2.124154  
      78A      2.136537    79A      2.211928    80A      2.231188  
      81A      2.368868    82A      2.381705    83A      2.413285  
      84A      2.498497    85A      2.523092    86A      2.636702  
      87A      2.727921    88A      2.738972    89A      2.815242  
      90A      2.881938    91A      2.947904    92A      2.967571  
      93A      3.075246    94A      3.112098    95A      3.143716  
      96A      3.201444    97A      3.266334    98A      3.312547  
      99A      3.375655   100A      3.401260   101A      3.442349  
     102A      3.445601   103A      3.494714   104A      3.592825  
     105A      3.646529   106A      3.781358   107A      3.791292  
     108A      3.963907   109A      3.984630   110A      4.096963  
     111A      4.113483   112A      4.131030   113A      4.244725  
     114A      4.393378   115A      4.449107   116A      4.466875  
     117A      4.535499   118A      4.940010   119A      5.046892  
     120A      5.052779   121A      5.197878   122A      5.217452  
     123A      5.495931   124A      5.509702   125A      5.868876  
     126A      5.923555   127A      6.146855   128A      6.801179  
     129A      6.806890   130A      7.088601   131A      7.263492  
     132A      7.537649  

    Final Occupation by Irrep:
              A 
    DOCC [    20 ]

  @DF-RKS Final Energy:  -613.45580610910645

   => Energetics <=

    Nuclear Repulsion Energy =            148.9112001553152140
    One-Electron Energy =               -1138.8417061656239184
    Two-Electron Energy =                 415.8536996819377691
    DFT Exchange-Correlation Energy =     -39.3789997807353487
    Empirical Dispersion Energy =           0.0000000000000000
    VV10 Nonlocal Energy =                  0.0000000000000000
    Total Energy =                       -613.4558061091063337

Computation Completed


Properties will be evaluated at   0.000000,   0.000000,   0.000000 [a0]

Properties computed using the SCF density matrix

  Nuclear Dipole Moment: [e a0]
     X:     5.1034      Y:     4.2200      Z:    -0.0022

  Electronic Dipole Moment: [e a0]
     X:    -4.6638      Y:    -3.2672      Z:     0.0029

  Dipole Moment: [e a0]
     X:     0.4396      Y:     0.9527      Z:     0.0007     Total:     1.0493

  Dipole Moment: [D]
     X:     1.1173      Y:     2.4216      Z:     0.0018     Total:     2.6670


*** tstop() called on n082 at Wed Jan  5 16:07:00 2022
Module time:
	user time   =      46.75 seconds =       0.78 minutes
	system time =       0.67 seconds =       0.01 minutes
	total time  =         13 seconds =       0.22 minutes
Total time:
	user time   =      46.75 seconds =       0.78 minutes
	system time =       0.67 seconds =       0.01 minutes
	total time  =         13 seconds =       0.22 minutes
Grab this energy -613.4558061091064
    Psi4 stopped on: Wednesday, 05 January 2022 04:07PM
    Psi4 wall time for execution: 0:00:12.20

*** Psi4 exiting successfully. Buy a developer a beer!
