
 Primary working directories    : /tmp/1059987.931.gen6.q
 Secondary working directories  : /tmp/1059987.931.gen6.q
 Wavefunction directory         : /home/vulcan/jj04645/wfu/
 Main file repository           : /tmp/1059987.931.gen6.q/

 ARCHNAME  : Linux/x86_64
 FC        : /opt/intel/compilers_and_libraries_2016.1.150/linux/bin/intel64/ifort
 FCVERSION : 16.0.1
 BLASLIB   : -mkl
 id        : ccgc

 Nodes     nprocs
 n082         1
 ga_uses_ma=false, calling ma_init with nominal heap.
 GA-space will be limited to   8.0 MW (determined by -G option)

 Using customized tuning parameters: mindgm=10; mindgv=16; mindgc=4; mindgr=1; noblas=0; mincuda=1000; minvec=7
 default implementation of scratch files=df  

 ***,Optimization of 1_4_cyclohexadiene
 memory,1000,m
 gthresh,energy=1.0d-12,orbital=1.0d-10,oneint=1.0d-16,twoint=1.0d-16,optgrad=1.0d-6,compress=1.0d-13
 geomtyp=xyz
 
 bohr
 geometry = {
  H    4.1020339261   -0.0085939221   -1.6462795498
  C    2.8410722015    0.0017358076   -0.0000000000
  C   -1.2612797372    2.3630714490   -0.0000000000
  C   -1.2689285612   -2.3716349541   -0.0000000000
  C   -2.8410722015   -0.0017358076   -0.0000000000
  C    1.2612797372   -2.3630714490   -0.0000000000
  C    1.2689285612    2.3716349541   -0.0000000000
  H   -2.2661751424    4.1509422762   -0.0000000000
  H    2.2706596265    4.1612806574   -0.0000000000
  H   -4.1020339261    0.0085939221   -1.6462795498
  H    2.2661751424   -4.1509422762   -0.0000000000
  H   -2.2706596265   -4.1612806574   -0.0000000000
  H    4.1020607190    0.0079913768    1.6462795498
  H   -4.1020607190   -0.0079913768    1.6462795498
 }
 
 basis=VDZ
 {rhf;maxit,200}
 {ccsd(t);maxit,200}

 Variables initialized (661), CPU time= 0.00 sec
 Commands  initialized (458), CPU time= 0.01 sec, 486 directives.
 Default parameters read. Elapsed time= 0.05 sec

 Checking input...
 Passed
1


                                         ***  PROGRAM SYSTEM MOLPRO  ***
                         Copyright, University College Cardiff Consultants Limited, 2008

                                    Version 2010.1 linked May 16 2016 07:17:05


 **********************************************************************************************************************************
 LABEL *   Optimization of 1_4_cyclohexadiene                                            
 Linux-4.4.3/n082(x86_64) 64 bit mpp version                                             DATE: 06-May-24          TIME: 16:13:51  
 **********************************************************************************************************************************

 SHA1:             9e8077add272b0f3cad6f7df79ec5211205f459d
 **********************************************************************************************************************************

 THRESHOLDS:

 ZERO    =  1.00D-12  ONEINT  =  1.00D-16  TWOINT  =  1.00D-16  PREFAC  =  1.00D-14  LOCALI  =  1.00D-09  EORDER  =  1.00D-04
 ENERGY  =  1.00D-12  ETEST   =  0.00D+00  EDENS   =  0.00D+00  THRDEDEF=  1.00D-06  GRADIENT=  1.00D-02  STEP    =  1.00D-03
 ORBITAL =  1.00D-10  CIVEC   =  1.00D-05  COEFF   =  1.00D-04  PRINTCI =  5.00D-02  PUNCHCI =  9.90D+01  OPTGRAD =  1.00D-06
 OPTENERG=  1.00D-06  OPTSTEP =  3.00D-04  THRGRAD =  1.00D-10  COMPRESS=  1.00D-13  VARMIN  =  1.00D-07  VARMAX  =  1.00D-03
 THRDOUB =  0.00D+00  THRDIV  =  1.00D-05  THRRED  =  1.00D-07  THRPSP  =  1.00D+00  THRDC   =  1.00D-10  THRCS   =  1.00D-10
 THRNRM  =  1.00D-08  THREQ   =  0.00D+00  THRDE   =  1.00D+00  THRREF  =  1.00D-05  SPARFAC =  1.00D+00  THRDLP  =  1.00D-07
 THRDIA  =  1.00D-10  THRDLS  =  1.00D-07  THRGPS  =  0.00D+00  THRKEX  =  0.00D+00  THRDIS  =  2.00D-01  THRVAR  =  1.00D-10
 THRLOC  =  1.00D-06  THRGAP  =  1.00D-06  THRLOCT = -1.00D+00  THRGAPT = -1.00D+00  THRORB  =  1.00D-06  THRMLTP =  0.00D+00
 THRCPQCI=  1.00D-10  KEXTA   =  0.00D+00  THRCOARS=  0.00D+00  SYMTOL  =  1.00D-06  GRADTOL =  1.00D-06  THROVL  =  1.00D-08
 THRORTH =  1.00D-08  GRID    =  1.00D-06  GRIDMAX =  1.00D-03  DTMAX   =  0.00D+00

 SETTING GEOMTYP        =    XYZ
 ZUNIT=BOHR
 

 Variable memory set to 1000000000 words,  buffer space   230000 words

 SETTING BASIS          =    VDZ


 Recomputing integrals since basis changed


 Using spherical harmonics

 Library entry H      S cc-pVDZ              selected for orbital group  1
 Library entry H      P cc-pVDZ              selected for orbital group  1
 Library entry C      S cc-pVDZ              selected for orbital group  2
 Library entry C      P cc-pVDZ              selected for orbital group  2
 Library entry C      D cc-pVDZ              selected for orbital group  2

1PROGRAM * SEWARD (Integral evaluation for generally contracted gaussian basis sets)     Author: Roland Lindh, 1990

 Geometry written to block  1 of record 700


 Point group  C2  



 ATOMIC COORDINATES

 NR  ATOM    CHARGE       X              Y              Z

   1  H       1.00    4.102033926   -0.008593922   -1.646279550
   2  H       1.00   -4.102033926    0.008593922   -1.646279550
   3  C       6.00    2.841072201    0.001735808    0.000000000
   4  C       6.00   -2.841072201   -0.001735808    0.000000000
   5  C       6.00   -1.261279737    2.363071449    0.000000000
   6  C       6.00    1.261279737   -2.363071449    0.000000000
   7  C       6.00   -1.268928561   -2.371634954    0.000000000
   8  C       6.00    1.268928561    2.371634954    0.000000000
   9  H       1.00   -2.266175142    4.150942276    0.000000000
  10  H       1.00    2.266175142   -4.150942276    0.000000000
  11  H       1.00    2.270659627    4.161280657    0.000000000
  12  H       1.00   -2.270659627   -4.161280657    0.000000000
  13  H       1.00    4.102060719    0.007991377    1.646279550
  14  H       1.00   -4.102060719   -0.007991377    1.646279550

 Bond lengths in Bohr (Angstrom)

  1- 3  2.073732753   2- 4  2.073732753   3- 6  2.843951053   3- 8  2.843951053   3-13  2.073732753
       ( 1.097372110)       ( 1.097372110)       ( 1.504954081)       ( 1.504954081)       ( 1.097372110)

  4- 5  2.843951053   4- 7  2.843951053   4-14  2.073732753   5- 8  2.530222790   5- 9  2.050925857
       ( 1.504954081)       ( 1.504954081)       ( 1.097372110)       ( 1.338936234)       ( 1.085303221)

  6- 7  2.530222790   6-10  2.050925857   7-12  2.050925857   8-11  2.050925857
       ( 1.338936234)       ( 1.085303221)       ( 1.085303221)       ( 1.085303221)

 Bond angles

  1- 3- 6  109.48941099   1- 3- 8  109.89455333   1- 3-13  105.09969072   2- 4- 5  109.48941099

  2- 4- 7  109.89455333   2- 4-14  105.09969072   3- 6- 7  123.93853621   3- 6-10  116.91666660

  3- 8- 5  123.36558166   3- 8-11  117.20314388   4- 5- 8  123.93853621   4- 5- 9  116.91666660

  4- 7- 6  123.36558166   4- 7-12  117.20314388   5- 4- 7  112.69588213   5- 4-14  109.89455333

  5- 8-11  119.43127446   6- 3- 8  112.69588213   6- 3-13  109.89455333   6- 7-12  119.43127446

  7- 4-14  109.48941099   7- 6-10  119.14479719   8- 3-13  109.48941099   8- 5- 9  119.14479719

 NUCLEAR CHARGE:                   44
 NUMBER OF PRIMITIVE AOS:         218
 NUMBER OF SYMMETRY AOS:          212
 NUMBER OF CONTRACTIONS:          124   (  62A   +  62B   )
 NUMBER OF CORE ORBITALS:           6   (   3A   +   3B   )
 NUMBER OF VALENCE ORBITALS:       32   (  16A   +  16B   )


 NUCLEAR REPULSION ENERGY  217.75828316


 Eigenvalues of metric

         1 0.169E-02 0.345E-02 0.432E-02 0.143E-01 0.182E-01 0.273E-01 0.312E-01 0.356E-01
         2 0.670E-03 0.315E-02 0.562E-02 0.163E-01 0.227E-01 0.257E-01 0.259E-01 0.320E-01


 Contracted 2-electron integrals neglected if value below      1.0D-16
 AO integral compression algorithm  1   Integral accuracy      1.0D-16

     112.984 MB (compressed) written to integral file ( 77.6%)

     Node minimum: 112.984 MB, node maximum: 112.984 MB


 NUMBER OF SORTED TWO-ELECTRON INTEGRALS:   15258789.     BUFFER LENGTH:  32768
 NUMBER OF SEGMENTS:   1  SEGMENT LENGTH:   15258789      RECORD LENGTH: 524288

 Memory used in sort:      15.82 MW

 SORT1 READ    18181080. AND WROTE    11631973. INTEGRALS IN     34 RECORDS. CPU TIME:     0.15 SEC, REAL TIME:     0.22 SEC
 SORT2 READ    11631973. AND WROTE    15258789. INTEGRALS IN    431 RECORDS. CPU TIME:     0.18 SEC, REAL TIME:     0.23 SEC

 FILE SIZES:   FILE 1:    99.3 MBYTE,  FILE 4:   142.6 MBYTE,   TOTAL:    242.0 MBYTE

 OPERATOR DM      FOR CENTER  0  COORDINATES:    0.000000    0.000000    0.000000


 **********************************************************************************************************************************
 DATASETS  * FILE   NREC   LENGTH (MB)   RECORD NAMES
              1      19       99.42       500      610      700      900      950      970     1000      129      960     1100   
                                          VAR    BASINP    GEOM    SYMINP    ZMAT    AOBASIS   BASIS     P2S    ABASIS      S 
                                         1400     1410     1200     1210     1080     1600     1650     1300     1700   
                                           T        V       H0       H01     AOSYM     SMH    MOLCAS    ERIS     OPER   

 PROGRAMS   *        TOTAL       INT
 CPU TIMES  *         2.20      2.16
 REAL TIME  *         2.55 SEC
 DISK USED  *       355.88 MB      
 GA USED    *         0.00 MB       (max)       0.00 MB       (current)
 **********************************************************************************************************************************

1PROGRAM * RHF-SCF (CLOSED SHELL)       Authors: W. Meyer, H.-J. Werner


 NUMBER OF ELECTRONS:      22+   22-
 CONVERGENCE THRESHOLDS:    1.00E-10 (Density)    1.00E-13 (Energy)
 MAX. NUMBER OF ITERATIONS:      200
 INTERPOLATION TYPE:            DIIS
 INTERPOLATION STEPS:              2 (START)      1 (STEP)
 LEVEL SHIFTS:                  0.00 (CLOSED)  0.00 (OPEN) 



 Orbital guess generated from atomic densities. Full valence occupancy:   19  19

 Molecular orbital dump at record        2100.2

 Initial alpha occupancy:  11  11
 Initial beta  occupancy:  11  11
 Wave function symmetry:    1

 ITERATION    DDIFF          GRAD             ENERGY        2-EL.EN.            DIPOLE MOMENTS         DIIS
    1      0.000D+00      0.000D+00      -231.78149942    590.482647    0.00000    0.00000    0.00000    0
    2      0.000D+00      0.638D-02      -231.84385121    585.626627    0.00000    0.00000    0.00000    1
    3      0.127D-01      0.251D-02      -231.85140520    587.951363    0.00000    0.00000    0.00000    2
    4      0.475D-02      0.854D-03      -231.85264824    587.340903    0.00000    0.00000    0.00000    3
    5      0.175D-02      0.870D-04      -231.85266658    587.346003    0.00000    0.00000    0.00000    4
    6      0.324D-03      0.188D-04      -231.85266718    587.342918    0.00000    0.00000    0.00000    5
    7      0.453D-04      0.629D-05      -231.85266725    587.343934    0.00000    0.00000    0.00000    6
    8      0.177D-04      0.126D-05      -231.85266725    587.343841    0.00000    0.00000    0.00000    7
    9      0.419D-05      0.374D-06      -231.85266725    587.343861    0.00000    0.00000    0.00000    6
   10      0.942D-06      0.143D-06      -231.85266725    587.343859    0.00000    0.00000    0.00000    6
   11      0.361D-06      0.287D-07      -231.85266725    587.343866    0.00000    0.00000    0.00000    7
   12      0.767D-07      0.717D-08      -231.85266725    587.343862    0.00000    0.00000    0.00000    7
   13      0.165D-07      0.312D-08      -231.85266725    587.343864    0.00000    0.00000    0.00000    7
   14      0.817D-08      0.139D-08      -231.85266725    587.343863    0.00000    0.00000    0.00000    7
   15      0.433D-08      0.424D-09      -231.85266725    587.343863    0.00000    0.00000    0.00000    7
   16      0.162D-08      0.100D-09      -231.85266725    587.343863    0.00000    0.00000    0.00000    8
   17      0.354D-09      0.252D-10      -231.85266725    587.343863    0.00000    0.00000    0.00000    8
   18      0.554D-10      0.789D-11      -231.85266725    587.343863    0.00000    0.00000    0.00000    8
   19      0.285D-10      0.306D-11      -231.85266725    587.343863    0.00000    0.00000    0.00000    8
   20      0.996D-11      0.125D-11      -231.85266725    587.343863    0.00000    0.00000    0.00000    8
   21      0.395D-11      0.299D-12      -231.85266725    587.343863    0.00000    0.00000    0.00000    7
   22      0.876D-12      0.939D-13      -231.85266725    587.343863    0.00000    0.00000    0.00000    7
   23      0.530D-12      0.426D-13      -231.85266725    587.343863    0.00000    0.00000    0.00000    0

 Final occupancy:  11  11

 !RHF STATE 1.1 Energy               -231.852667249588
 Nuclear energy                       217.75828316
 One-electron energy                 -743.28288199
 Two-electron energy                  293.67193158
 Virial quotient                       -1.00115572
 !RHF STATE 1.1 Dipole moment           0.00000000     0.00000000     0.00000055
 Dipole moment /Debye                   0.00000000     0.00000000     0.00000140

 Orbital energies:

         1.1          2.1          3.1          4.1          5.1          6.1          7.1          8.1          9.1         10.1
    -11.233779   -11.229229   -11.227660    -1.122179    -0.861946    -0.784629    -0.678374    -0.595263    -0.490820    -0.445794

        11.1         12.1         13.1
     -0.329766     0.174482     0.180776

         1.2          2.2          3.2          4.2          5.2          6.2          7.2          8.2          9.2         10.2
    -11.233780   -11.229290   -11.227626    -1.008427    -1.004901    -0.654609    -0.597620    -0.562084    -0.561152    -0.531795

        11.2         12.2         13.2
     -0.358786     0.193451     0.217555


 **********************************************************************************************************************************
 DATASETS  * FILE   NREC   LENGTH (MB)   RECORD NAMES
              1      19       99.42       500      610      700      900      950      970     1000      129      960     1100   
                                          VAR    BASINP    GEOM    SYMINP    ZMAT    AOBASIS   BASIS     P2S    ABASIS      S 
                                         1400     1410     1200     1210     1080     1600     1650     1300     1700   
                                           T        V       H0       H01     AOSYM     SMH    MOLCAS    ERIS     OPER   

              2       3        0.65       700     1000     2100   
                                         GEOM     BASIS     RHF  

 PROGRAMS   *        TOTAL       RHF       INT
 CPU TIMES  *         3.57      1.37      2.16
 REAL TIME  *         4.15 SEC
 DISK USED  *       355.88 MB      
 GA USED    *         0.00 MB       (max)       0.00 MB       (current)
 **********************************************************************************************************************************


1PROGRAM * CCSD (Closed-shell coupled cluster)     Authors: C. Hampel, H.-J. Werner, 1991, M. Deegan, P.J. Knowles, 1992


 Convergence thresholds:  THRVAR = 1.00D-08  THRDEN = 1.00D-12

 CCSD(T)     terms to be evaluated (factor= 1.000)


 Number of core orbitals:           6 (   3   3 )
 Number of closed-shell orbitals:  16 (   8   8 )
 Number of external orbitals:     102 (  51  51 )

 Molecular orbitals read from record     2100.2  Type=RHF/CANONICAL (state 1.1)

 Number of N-1 electron functions:              16
 Number of N-2 electron functions:             136
 Number of singly external CSFs:               816
 Number of doubly external CSFs:            666672
 Total number of CSFs:                      667489

 Length of J-op  integral file:               0.00 MB
 Length of K-op  integral file:               0.57 MB
 Length of 3-ext integral record:             0.00 MB

 Memory could be reduced to 11.72 Mwords without degradation in triples

 Integral transformation finished. Total CPU:   0.52 sec, npass=  1  Memory used:   7.35 MW

 Reference energy:                   -231.85266725

 MP2 singlet pair energy:              -0.50639823
 MP2 triplet pair energy:              -0.29378243
 MP2 correlation energy:               -0.80018065
 MP2 total energy:                   -232.65284790

 SCS-MP2 correlation energy:           -0.79047583   (PS=  1.200000  PT=  0.333333)
 SCS-MP2 total energy:               -232.64314308

 ITER.      SQ.NORM     CORR.ENERGY   TOTAL ENERGY   ENERGY CHANGE        DEN1      VAR(S)    VAR(P)  DIIS     TIME
   1      1.31822413    -0.85463410  -232.70730135    -0.05445345    -0.03136110  0.31D-02  0.54D-02  1  1     1.42
   2      1.34642251    -0.86046077  -232.71312802    -0.00582667    -0.02420700  0.68D-04  0.70D-03  2  2     2.36
   3      1.35481512    -0.86077298  -232.71344023    -0.00031221    -0.00387058  0.20D-04  0.69D-04  3  3     3.30
   4      1.35836381    -0.86089391  -232.71356116    -0.00012094    -0.00107931  0.10D-05  0.67D-05  4  4     4.25
   5      1.35919526    -0.86090589  -232.71357313    -0.00001197    -0.00017610  0.50D-07  0.65D-06  5  5     5.20
   6      1.35935093    -0.86089827  -232.71356552     0.00000762    -0.00002527  0.49D-08  0.36D-07  6  6     6.15
   7      1.35936611    -0.86089894  -232.71356619    -0.00000067     0.00000118  0.16D-08  0.32D-08  6  2     7.10
   8      1.35937079    -0.86089880  -232.71356605     0.00000014    -0.00000096  0.56D-10  0.35D-09  6  1     8.05
   9      1.35937084    -0.86089887  -232.71356612    -0.00000007     0.00000044  0.18D-10  0.52D-10  6  3     9.00
  10      1.35937077    -0.86089891  -232.71356616    -0.00000004     0.00000016  0.79D-12  0.82D-11  6  4     9.94
  11      1.35937021    -0.86089894  -232.71356619    -0.00000003     0.00000022  0.86D-13  0.11D-11  6  6    10.89
  12      1.35937010    -0.86089895  -232.71356620    -0.00000001     0.00000005  0.20D-13  0.97D-13  6  5    11.83
  13      1.35937010    -0.86089895  -232.71356620     0.00000000    -0.00000000  0.76D-14  0.15D-13  6  2    12.79
  14      1.35937012    -0.86089894  -232.71356619     0.00000000    -0.00000001  0.55D-15  0.13D-14  6  1    13.73
  15      1.35937013    -0.86089894  -232.71356619     0.00000000    -0.00000000  0.17D-15  0.14D-15  6  3    14.69
  16      1.35937013    -0.86089894  -232.71356619     0.00000000    -0.00000000  0.19D-16  0.24D-16  6  4    15.64
  17      1.35937013    -0.86089894  -232.71356619    -0.00000000     0.00000000  0.35D-17  0.38D-17  6  6    16.58
  18      1.35937013    -0.86089894  -232.71356619    -0.00000000     0.00000000  0.23D-18  0.65D-18  6  5    17.53
  19      1.35937012    -0.86089894  -232.71356619     0.00000000     0.00000000  0.28D-19  0.15D-18  6  2    18.48
  20      1.35937012    -0.86089894  -232.71356619     0.00000000    -0.00000000  0.67D-21  0.26D-19  6  1    19.43
  21      1.35937012    -0.86089894  -232.71356619     0.00000000    -0.00000000  0.15D-21  0.18D-20  6  4    20.37
  22      1.35937012    -0.86089894  -232.71356619     0.00000000    -0.00000000  0.16D-22  0.87D-22  6  3    21.32

 Norm of t1 vector:      0.07885060      S-energy:    -0.00000000      T1 diagnostic:  0.00985633
                                                                       D1 diagnostic:  0.02884826

 Doubles amplitudes (print threshold =  0.500E-01):

         I         J         SYM. A    SYM. B    A         B      T(IJ, AB)

         8         8         2         2         1         1     -0.05813767
        16        16         1         1         1         1     -0.07469867
        16         8         1         2         1         1      0.06106877


 Total CPU time for triples:     16.38 sec


 RESULTS
 =======

  Reference energy                   -231.852667249588
  CCSD singlet pair energy             -0.593575049843
  CCSD triplet pair energy             -0.267323894267
  CCSD correlation energy              -0.860898944110

  Triples (T) contribution             -0.032225608015
  Total correlation energy             -0.893124552125

  CCSD total energy                  -232.713566193698
  CCSD[T] energy                     -232.746525118539
  CCSD-T energy                      -232.745473009312
 !CCSD(T) total energy               -232.745791801713

 Timing summary (sec):

 STEP                 CPU(USER)    SYS     CPU(TOT)    WALL
 Transformation          0.54      0.07      0.61      0.61
 CCSD iterations        20.78      0.82     21.60     21.64
 Triples                16.38      0.54     16.92     16.93

 Program statistics:

 Available memory in ccsd:               999998876
 Min. memory needed in ccsd:               1756075
 Max. memory used in ccsd:                 2339371
 Max. memory used in cckext:               2447048 (22 integral passes)



 **********************************************************************************************************************************
 DATASETS  * FILE   NREC   LENGTH (MB)   RECORD NAMES
              1      20      146.58       500      610      700      900      950      970     1000      129      960     1100   
                                          VAR    BASINP    GEOM    SYMINP    ZMAT    AOBASIS   BASIS     P2S    ABASIS      S 
                                         1400     1410     1200     1210     1080     1600     1650     1300     1700     1380   
                                           T        V       H0       H01     AOSYM     SMH    MOLCAS    ERIS     OPER     JKOP   

              2       3        0.65       700     1000     2100   
                                         GEOM     BASIS     RHF  

 PROGRAMS   *        TOTAL   CCSD(T)       RHF       INT
 CPU TIMES  *        41.28     37.71      1.37      2.16
 REAL TIME  *        43.36 SEC
 DISK USED  *       375.02 MB      
 GA USED    *         0.00 MB       (max)       0.00 MB       (current)
 **********************************************************************************************************************************

        CCSD(T)         RHF-SCF 
   -232.74579180   -231.85266725
 **********************************************************************************************************************************
 Variable memory released
