
 Primary working directories    : /tmp/917005.519.gen6.q
 Secondary working directories  : /tmp/917005.519.gen6.q
 Wavefunction directory         : /home/vulcan/lo21740/wfu/
 Main file repository           : /tmp/917005.519.gen6.q/

 ARCHNAME  : Linux/x86_64
 FC        : /opt/intel/compilers_and_libraries_2016.1.150/linux/bin/intel64/ifort
 FCVERSION : 16.0.1
 BLASLIB   : -mkl
 id        : ccgc

 Nodes     nprocs
 n092         1
 ga_uses_ma=false, calling ma_init with nominal heap.
 GA-space will be limited to   8.0 MW (determined by -G option)

 Using customized tuning parameters: mindgm=10; mindgv=16; mindgc=4; mindgr=1; noblas=0; mincuda=1000; minvec=7
 default implementation of scratch files=df  

 ***,Optimization of h2o_2
 memory,1000,m
 gthresh,energy=1.0d-12,orbital=1.0d-10,oneint=1.0d-16,twoint=1.0d-16,optgrad=1.0d-6,compress=1.0d-13
 geomtyp=xyz
 
 bohr
 geometry = {
  C   -0.0020671459   -3.4244423249    0.0035199745
  H   -0.9721054120   -2.7331366154   -1.6770090687
  H   -0.9686656036   -2.7302361296    1.6848351936
  H    1.9376124844   -2.7311285531    0.0068954102
  H    0.0060331015   -5.4841551048   -0.0149869537
  C   -0.0001622647    3.4224855016   -0.0006531995
  H   -0.0009847992    5.4822956460   -0.0031794586
  H    0.9705969512    2.7310994427   -1.6807328248
  H    0.9705943548    2.7352225925    1.6811187725
  H   -1.9408516666    2.7319955451    0.0001921545
 }
 
 basis=VDZ
 {rhf;maxit,200}
 {ccsd(t);maxit,200}

 Variables initialized (661), CPU time= 0.01 sec
 Commands  initialized (458), CPU time= 0.00 sec, 486 directives.
 Default parameters read. Elapsed time= 0.05 sec

 Checking input...
 Passed
1


                                         ***  PROGRAM SYSTEM MOLPRO  ***
                         Copyright, University College Cardiff Consultants Limited, 2008

                                    Version 2010.1 linked May 16 2016 07:17:05


 **********************************************************************************************************************************
 LABEL *   Optimization of h2o_2                                                         
 Linux-4.4.3/n092(x86_64) 64 bit mpp version                                             DATE: 19-Jul-23          TIME: 16:20:56  
 **********************************************************************************************************************************

 SHA1:             9e8077add272b0f3cad6f7df79ec5211205f459d
 **********************************************************************************************************************************

 THRESHOLDS:

 ZERO    =  1.00D-12  ONEINT  =  1.00D-16  TWOINT  =  1.00D-16  PREFAC  =  1.00D-14  LOCALI  =  1.00D-09  EORDER  =  1.00D-04
 ENERGY  =  1.00D-12  ETEST   =  0.00D+00  EDENS   =  0.00D+00  THRDEDEF=  1.00D-06  GRADIENT=  1.00D-02  STEP    =  1.00D-03
 ORBITAL =  1.00D-10  CIVEC   =  1.00D-05  COEFF   =  1.00D-04  PRINTCI =  5.00D-02  PUNCHCI =  9.90D+01  OPTGRAD =  1.00D-06
 OPTENERG=  1.00D-06  OPTSTEP =  3.00D-04  THRGRAD =  1.00D-10  COMPRESS=  1.00D-13  VARMIN  =  1.00D-07  VARMAX  =  1.00D-03
 THRDOUB =  0.00D+00  THRDIV  =  1.00D-05  THRRED  =  1.00D-07  THRPSP  =  1.00D+00  THRDC   =  1.00D-10  THRCS   =  1.00D-10
 THRNRM  =  1.00D-08  THREQ   =  0.00D+00  THRDE   =  1.00D+00  THRREF  =  1.00D-05  SPARFAC =  1.00D+00  THRDLP  =  1.00D-07
 THRDIA  =  1.00D-10  THRDLS  =  1.00D-07  THRGPS  =  0.00D+00  THRKEX  =  0.00D+00  THRDIS  =  2.00D-01  THRVAR  =  1.00D-10
 THRLOC  =  1.00D-06  THRGAP  =  1.00D-06  THRLOCT = -1.00D+00  THRGAPT = -1.00D+00  THRORB  =  1.00D-06  THRMLTP =  0.00D+00
 THRCPQCI=  1.00D-10  KEXTA   =  0.00D+00  THRCOARS=  0.00D+00  SYMTOL  =  1.00D-06  GRADTOL =  1.00D-06  THROVL  =  1.00D-08
 THRORTH =  1.00D-08  GRID    =  1.00D-06  GRIDMAX =  1.00D-03  DTMAX   =  0.00D+00

 SETTING GEOMTYP        =    XYZ
 ZUNIT=BOHR
 

 Variable memory set to 1000000000 words,  buffer space   230000 words

 SETTING BASIS          =    VDZ


 Recomputing integrals since basis changed


 Using spherical harmonics

 Library entry C      S cc-pVDZ              selected for orbital group  1
 Library entry C      P cc-pVDZ              selected for orbital group  1
 Library entry C      D cc-pVDZ              selected for orbital group  1
 Library entry H      S cc-pVDZ              selected for orbital group  2
 Library entry H      P cc-pVDZ              selected for orbital group  2

1PROGRAM * SEWARD (Integral evaluation for generally contracted gaussian basis sets)     Author: Roland Lindh, 1990

 Geometry written to block  1 of record 700


 Point group  C1  



 ATOMIC COORDINATES

 NR  ATOM    CHARGE       X              Y              Z

   1  C       6.00   -0.002067146   -3.424442325    0.003519975
   2  H       1.00   -0.972105412   -2.733136615   -1.677009069
   3  H       1.00   -0.968665604   -2.730236130    1.684835194
   4  H       1.00    1.937612484   -2.731128553    0.006895410
   5  H       1.00    0.006033101   -5.484155105   -0.014986954
   6  C       6.00   -0.000162265    3.422485502   -0.000653199
   7  H       1.00   -0.000984799    5.482295646   -0.003179459
   8  H       1.00    0.970596951    2.731099443   -1.680732825
   9  H       1.00    0.970594355    2.735222592    1.681118773
  10  H       1.00   -1.940851667    2.731995545    0.000192154

 Bond lengths in Bohr (Angstrom)

 1-2  2.059867881  1-3  2.059867881  1-4  2.059867095  1-5  2.059811850  6-7  2.059811858
     ( 1.090035136)     ( 1.090035136)     ( 1.090034720)     ( 1.090005486)     ( 1.090005490)

  6- 8  2.059867880   6- 9  2.059867881   6-10  2.059867095
       ( 1.090035136)       ( 1.090035136)       ( 1.090034720)

 Bond angles

  2-1-3  109.37959600   2-1-4  109.37947996   2-1-5  109.27559970   3-1-4  109.09300106

  3-1-5  110.25369973   4-1-5  109.44350721   7-6-8  109.56240830   7-6-9  109.56240830

  7- 6-10  109.56250039   8- 6- 9  109.37992578   8- 6-10  109.37980977   9- 6-10  109.37980977

 NUCLEAR CHARGE:                   20
 NUMBER OF PRIMITIVE AOS:         110
 NUMBER OF SYMMETRY AOS:          108
 NUMBER OF CONTRACTIONS:           68   (  68A   )
 NUMBER OF CORE ORBITALS:           2   (   2A   )
 NUMBER OF VALENCE ORBITALS:       16   (  16A   )


 NUCLEAR REPULSION ENERGY   41.33735220


 Eigenvalues of metric

         1 0.113E-01 0.127E-01 0.348E-01 0.348E-01 0.356E-01 0.375E-01 0.383E-01 0.383E-01


 Contracted 2-electron integrals neglected if value below      1.0D-16
 AO integral compression algorithm  1   Integral accuracy      1.0D-16

     21.758 MB (compressed) written to integral file ( 87.8%)

     Node minimum: 21.758 MB, node maximum: 21.758 MB


 NUMBER OF SORTED TWO-ELECTRON INTEGRALS:    2753031.     BUFFER LENGTH:  32768
 NUMBER OF SEGMENTS:   1  SEGMENT LENGTH:    2753031      RECORD LENGTH: 524288

 Memory used in sort:       3.31 MW

 SORT1 READ     3104305. AND WROTE     2690819. INTEGRALS IN      8 RECORDS. CPU TIME:     0.03 SEC, REAL TIME:     0.04 SEC
 SORT2 READ     2690819. AND WROTE     2753031. INTEGRALS IN     83 RECORDS. CPU TIME:     0.04 SEC, REAL TIME:     0.05 SEC

 FILE SIZES:   FILE 1:    21.6 MBYTE,  FILE 4:    33.6 MBYTE,   TOTAL:     55.2 MBYTE

 OPERATOR DM      FOR CENTER  0  COORDINATES:    0.000000    0.000000    0.000000


 **********************************************************************************************************************************
 DATASETS  * FILE   NREC   LENGTH (MB)   RECORD NAMES
              1      19       21.69       500      610      700      900      950      970     1000      129      960     1100   
                                          VAR    BASINP    GEOM    SYMINP    ZMAT    AOBASIS   BASIS     P2S    ABASIS      S 
                                         1400     1410     1200     1210     1080     1600     1650     1300     1700   
                                           T        V       H0       H01     AOSYM     SMH    MOLCAS    ERIS     OPER   

 PROGRAMS   *        TOTAL       INT
 CPU TIMES  *         0.39      0.35
 REAL TIME  *         0.62 SEC
 DISK USED  *        77.74 MB      
 GA USED    *         0.00 MB       (max)       0.00 MB       (current)
 **********************************************************************************************************************************

1PROGRAM * RHF-SCF (CLOSED SHELL)       Authors: W. Meyer, H.-J. Werner


 NUMBER OF ELECTRONS:      10+   10-    SPACE SYMMETRY=1    SPIN SYMMETRY: Singlet 
 CONVERGENCE THRESHOLDS:    1.00E-10 (Density)    1.00E-13 (Energy)
 MAX. NUMBER OF ITERATIONS:      200
 INTERPOLATION TYPE:            DIIS
 INTERPOLATION STEPS:              2 (START)      1 (STEP)
 LEVEL SHIFTS:                  0.00 (CLOSED)  0.00 (OPEN) 



 Orbital guess generated from atomic densities. Full valence occupancy:   18

 Molecular orbital dump at record        2100.2

 ITERATION    DDIFF          GRAD             ENERGY        2-EL.EN.            DIPOLE MOMENTS         DIIS
    1      0.000D+00      0.000D+00       -80.35962192    134.818912    0.00183    0.00166   -0.00235    0
    2      0.000D+00      0.637D-02       -80.39228845    132.540109    0.00064    0.00073   -0.00093    1
    3      0.132D-01      0.234D-02       -80.39614976    133.341341    0.00082    0.00081   -0.00118    2
    4      0.460D-02      0.630D-03       -80.39667842    133.204571    0.00071    0.00069   -0.00105    3
    5      0.165D-02      0.664D-04       -80.39668294    133.210599    0.00070    0.00068   -0.00104    4
    6      0.233D-03      0.393D-05       -80.39668296    133.210461    0.00070    0.00068   -0.00104    5
    7      0.205D-04      0.234D-06       -80.39668296    133.210459    0.00070    0.00068   -0.00104    5
    8      0.743D-06      0.420D-07       -80.39668296    133.210460    0.00070    0.00068   -0.00104    4
    9      0.112D-06      0.116D-07       -80.39668296    133.210461    0.00070    0.00068   -0.00104    4
   10      0.386D-07      0.224D-08       -80.39668296    133.210461    0.00070    0.00068   -0.00104    5
   11      0.733D-08      0.270D-09       -80.39668296    133.210461    0.00070    0.00068   -0.00104    5
   12      0.717D-09      0.707D-10       -80.39668296    133.210461    0.00070    0.00068   -0.00104    6
   13      0.188D-09      0.244D-10       -80.39668296    133.210461    0.00070    0.00068   -0.00104    6
   14      0.607D-10      0.443D-11       -80.39668296    133.210461    0.00070    0.00068   -0.00104    6
   15      0.209D-10      0.395D-12       -80.39668296    133.210461    0.00070    0.00068   -0.00104    0

 Final occupancy:  10

 !RHF STATE 1.1 Energy                -80.396682959235
 Nuclear energy                        41.33735220
 One-electron energy                 -188.33926571
 Two-electron energy                   66.60523055
 Virial quotient                       -1.00229933
 !RHF STATE 1.1 Dipole moment           0.00069531     0.00067775    -0.00103678
 Dipole moment /Debye                   0.00176719     0.00172255    -0.00263507

 Orbital energies:

         1.1          2.1          3.1          4.1          5.1          6.1          7.1          8.1          9.1         10.1
    -11.215332   -11.215303    -0.944273    -0.938413    -0.549995    -0.545429    -0.545083    -0.538196    -0.537817    -0.534561

        11.1         12.1
      0.172405     0.229297


 **********************************************************************************************************************************
 DATASETS  * FILE   NREC   LENGTH (MB)   RECORD NAMES
              1      19       21.69       500      610      700      900      950      970     1000      129      960     1100   
                                          VAR    BASINP    GEOM    SYMINP    ZMAT    AOBASIS   BASIS     P2S    ABASIS      S 
                                         1400     1410     1200     1210     1080     1600     1650     1300     1700   
                                           T        V       H0       H01     AOSYM     SMH    MOLCAS    ERIS     OPER   

              2       3        0.51       700     1000     2100   
                                         GEOM     BASIS     RHF  

 PROGRAMS   *        TOTAL       RHF       INT
 CPU TIMES  *         0.66      0.27      0.35
 REAL TIME  *         0.94 SEC
 DISK USED  *        77.74 MB      
 GA USED    *         0.00 MB       (max)       0.00 MB       (current)
 **********************************************************************************************************************************


1PROGRAM * CCSD (Closed-shell coupled cluster)     Authors: C. Hampel, H.-J. Werner, 1991, M. Deegan, P.J. Knowles, 1992


 Convergence thresholds:  THRVAR = 1.00D-08  THRDEN = 1.00D-12

 CCSD(T)     terms to be evaluated (factor= 1.000)


 Number of core orbitals:           2 (   2 )
 Number of closed-shell orbitals:   8 (   8 )
 Number of external orbitals:      58 (  58 )

 Molecular orbitals read from record     2100.2  Type=RHF/CANONICAL (state 1.1)

 Number of N-1 electron functions:               8
 Number of N-2 electron functions:              36
 Number of singly external CSFs:               464
 Number of doubly external CSFs:            107880
 Total number of CSFs:                      108345

 Length of J-op  integral file:               0.00 MB
 Length of K-op  integral file:               0.35 MB
 Length of 3-ext integral record:             0.00 MB

 Memory could be reduced to 2.66 Mwords without degradation in triples

 Integral transformation finished. Total CPU:   0.06 sec, npass=  1  Memory used:   1.86 MW

 Reference energy:                    -80.39668296

 MP2 singlet pair energy:              -0.23207746
 MP2 triplet pair energy:              -0.09154914
 MP2 correlation energy:               -0.32362660
 MP2 total energy:                    -80.72030956

 SCS-MP2 correlation energy:           -0.33545686   (PS=  1.200000  PT=  0.333333)
 SCS-MP2 total energy:                -80.73213982

 ITER.      SQ.NORM     CORR.ENERGY   TOTAL ENERGY   ENERGY CHANGE        DEN1      VAR(S)    VAR(P)  DIIS     TIME
   1      1.13421110    -0.36752815   -80.76421111    -0.04390155    -0.03297772  0.50D-03  0.24D-02  1  1     0.18
   2      1.14682012    -0.37032553   -80.76700849    -0.00279739    -0.01276551  0.15D-04  0.96D-04  2  2     0.30
   3      1.14861146    -0.37049656   -80.76717952    -0.00017103    -0.00095471  0.17D-05  0.56D-05  3  3     0.43
   4      1.14897955    -0.37051686   -80.76719982    -0.00002030    -0.00016604  0.25D-07  0.35D-06  4  4     0.55
   5      1.14902544    -0.37051438   -80.76719734     0.00000248    -0.00002390  0.18D-08  0.18D-07  5  5     0.67
   6      1.14902669    -0.37051432   -80.76719728     0.00000006    -0.00000007  0.19D-09  0.12D-08  6  6     0.80
   7      1.14902677    -0.37051458   -80.76719754    -0.00000026     0.00000014  0.13D-10  0.71D-10  6  1     0.93
   8      1.14902695    -0.37051458   -80.76719754     0.00000001    -0.00000013  0.15D-11  0.41D-11  6  2     1.05
   9      1.14902697    -0.37051456   -80.76719752     0.00000001    -0.00000003  0.15D-12  0.26D-12  6  3     1.18
  10      1.14902696    -0.37051456   -80.76719752     0.00000000     0.00000001  0.11D-13  0.23D-13  6  4     1.31
  11      1.14902695    -0.37051456   -80.76719752    -0.00000000     0.00000001  0.80D-15  0.19D-14  6  5     1.44
  12      1.14902695    -0.37051456   -80.76719752    -0.00000000     0.00000000  0.43D-16  0.23D-15  6  6     1.57
  13      1.14902695    -0.37051456   -80.76719752    -0.00000000     0.00000000  0.33D-17  0.28D-16  6  1     1.69
  14      1.14902695    -0.37051456   -80.76719752     0.00000000     0.00000000  0.59D-18  0.37D-17  6  2     1.81
  15      1.14902695    -0.37051456   -80.76719752     0.00000000     0.00000000  0.71D-19  0.37D-18  6  3     1.94
  16      1.14902695    -0.37051456   -80.76719752    -0.00000000     0.00000000  0.15D-20  0.20D-19  6  5     2.06
  17      1.14902695    -0.37051456   -80.76719752    -0.00000000     0.00000000  0.18D-21  0.56D-21  6  4     2.19
  18      1.14902695    -0.37051456   -80.76719752     0.00000000    -0.00000000  0.45D-22  0.51D-22  6  6     2.32

 Norm of t1 vector:      0.03062639      S-energy:     0.00000000      T1 diagnostic:  0.00541403
                                                                       D1 diagnostic:  0.00878477


 Total CPU time for triples:      0.84 sec


 RESULTS
 =======

  Reference energy                    -80.396682959235
  CCSD singlet pair energy             -0.281840934288
  CCSD triplet pair energy             -0.088673628787
  CCSD correlation energy              -0.370514563074

  Triples (T) contribution             -0.007535616330
  Total correlation energy             -0.378050179404

  CCSD total energy                   -80.767197522309
  CCSD[T] energy                      -80.774909322377
  CCSD-T energy                       -80.774638703605
 !CCSD(T) total energy                -80.774733138639

 Timing summary (sec):

 STEP                 CPU(USER)    SYS     CPU(TOT)    WALL
 Transformation          0.07      0.01      0.08      0.08
 CCSD iterations         2.25      0.10      2.35      2.38
 Triples                 0.84      0.02      0.86      0.86

 Program statistics:

 Available memory in ccsd:               999999644
 Min. memory needed in ccsd:                356281
 Max. memory used in ccsd:                  442401
 Max. memory used in cckext:                403930 (18 integral passes)



 **********************************************************************************************************************************
 DATASETS  * FILE   NREC   LENGTH (MB)   RECORD NAMES
              1      20       30.14       500      610      700      900      950      970     1000      129      960     1100   
                                          VAR    BASINP    GEOM    SYMINP    ZMAT    AOBASIS   BASIS     P2S    ABASIS      S 
                                         1400     1410     1200     1210     1080     1600     1650     1300     1700     1380   
                                           T        V       H0       H01     AOSYM     SMH    MOLCAS    ERIS     OPER     JKOP   

              2       3        0.51       700     1000     2100   
                                         GEOM     BASIS     RHF  

 PROGRAMS   *        TOTAL   CCSD(T)       RHF       INT
 CPU TIMES  *         3.83      3.17      0.27      0.35
 REAL TIME  *         4.28 SEC
 DISK USED  *        77.74 MB      
 GA USED    *         0.00 MB       (max)       0.00 MB       (current)
 **********************************************************************************************************************************

        CCSD(T)         RHF-SCF 
    -80.77473314    -80.39668296
 **********************************************************************************************************************************
 Variable memory released
