
 Primary working directories    : /tmp/880701.511.gen6.q
 Secondary working directories  : /tmp/880701.511.gen6.q
 Wavefunction directory         : /home/vulcan/lo21740/wfu/
 Main file repository           : /tmp/880701.511.gen6.q/

 ARCHNAME  : Linux/x86_64
 FC        : /opt/intel/compilers_and_libraries_2016.1.150/linux/bin/intel64/ifort
 FCVERSION : 16.0.1
 BLASLIB   : -mkl
 id        : ccgc

 Nodes     nprocs
 n076         1
 ga_uses_ma=false, calling ma_init with nominal heap.
 GA-space will be limited to   8.0 MW (determined by -G option)

 Using customized tuning parameters: mindgm=10; mindgv=16; mindgc=4; mindgr=1; noblas=0; mincuda=1000; minvec=7
 default implementation of scratch files=df  

 ***,Optimization of formamide
 memory,1000,m
 gthresh,energy=1.0d-12,orbital=1.0d-10,oneint=1.0d-16,twoint=1.0d-16,optgrad=1.0d-6,compress=1.0d-13
 geomtyp=xyz
 
 bohr
 geometry = {
  C   -3.8246983820    0.0894441544    0.0000000000
  O   -2.7349922486    2.1424239797   -0.0000000000
  N   -2.6781806435   -2.1713197686   -0.0000000000
  H   -3.7291763581   -3.7500713952   -0.0000000000
  H   -0.7447081226   -2.2985100581   -0.0000000000
  H   -5.9036347189   -0.0188373863    0.0000000000
  C    3.8246983820   -0.0894441544    0.0000000000
  O    2.7349922486   -2.1424239797    0.0000000000
  N    2.6781806435    2.1713197686    0.0000000000
  H    3.7291763581    3.7500713952   -0.0000000000
  H    0.7447081226    2.2985100581   -0.0000000000
  H    5.9036347189    0.0188373863    0.0000000000
 }
 
 basis=AVDZ
 {rhf;maxit,200}
 {ccsd(t);maxit,200}

 Variables initialized (661), CPU time= 0.01 sec
 Commands  initialized (458), CPU time= 0.00 sec, 486 directives.
 Default parameters read. Elapsed time= 0.04 sec

 Checking input...
 Passed
1


                                         ***  PROGRAM SYSTEM MOLPRO  ***
                         Copyright, University College Cardiff Consultants Limited, 2008

                                    Version 2010.1 linked May 16 2016 07:17:05


 **********************************************************************************************************************************
 LABEL *   Optimization of formamide                                                     
 Linux-4.4.3/n076(x86_64) 64 bit mpp version                                             DATE: 24-May-23          TIME: 23:57:38  
 **********************************************************************************************************************************

 SHA1:             9e8077add272b0f3cad6f7df79ec5211205f459d
 **********************************************************************************************************************************

 THRESHOLDS:

 ZERO    =  1.00D-12  ONEINT  =  1.00D-16  TWOINT  =  1.00D-16  PREFAC  =  1.00D-14  LOCALI  =  1.00D-09  EORDER  =  1.00D-04
 ENERGY  =  1.00D-12  ETEST   =  0.00D+00  EDENS   =  0.00D+00  THRDEDEF=  1.00D-06  GRADIENT=  1.00D-02  STEP    =  1.00D-03
 ORBITAL =  1.00D-10  CIVEC   =  1.00D-05  COEFF   =  1.00D-04  PRINTCI =  5.00D-02  PUNCHCI =  9.90D+01  OPTGRAD =  1.00D-06
 OPTENERG=  1.00D-06  OPTSTEP =  3.00D-04  THRGRAD =  1.00D-10  COMPRESS=  1.00D-13  VARMIN  =  1.00D-07  VARMAX  =  1.00D-03
 THRDOUB =  0.00D+00  THRDIV  =  1.00D-05  THRRED  =  1.00D-07  THRPSP  =  1.00D+00  THRDC   =  1.00D-10  THRCS   =  1.00D-10
 THRNRM  =  1.00D-08  THREQ   =  0.00D+00  THRDE   =  1.00D+00  THRREF  =  1.00D-05  SPARFAC =  1.00D+00  THRDLP  =  1.00D-07
 THRDIA  =  1.00D-10  THRDLS  =  1.00D-07  THRGPS  =  0.00D+00  THRKEX  =  0.00D+00  THRDIS  =  2.00D-01  THRVAR  =  1.00D-10
 THRLOC  =  1.00D-06  THRGAP  =  1.00D-06  THRLOCT = -1.00D+00  THRGAPT = -1.00D+00  THRORB  =  1.00D-06  THRMLTP =  0.00D+00
 THRCPQCI=  1.00D-10  KEXTA   =  0.00D+00  THRCOARS=  0.00D+00  SYMTOL  =  1.00D-06  GRADTOL =  1.00D-06  THROVL  =  1.00D-08
 THRORTH =  1.00D-08  GRID    =  1.00D-06  GRIDMAX =  1.00D-03  DTMAX   =  0.00D+00

 SETTING GEOMTYP        =    XYZ
 ZUNIT=BOHR
 

 Variable memory set to 1000000000 words,  buffer space   230000 words

 SETTING BASIS          =    AVDZ


 Recomputing integrals since basis changed


 Using spherical harmonics

 Library entry C      S aug-cc-pVDZ          selected for orbital group  1
 Library entry C      P aug-cc-pVDZ          selected for orbital group  1
 Library entry C      D aug-cc-pVDZ          selected for orbital group  1
 Library entry O      S aug-cc-pVDZ          selected for orbital group  2
 Library entry O      P aug-cc-pVDZ          selected for orbital group  2
 Library entry O      D aug-cc-pVDZ          selected for orbital group  2
 Library entry N      S aug-cc-pVDZ          selected for orbital group  3
 Library entry N      P aug-cc-pVDZ          selected for orbital group  3
 Library entry N      D aug-cc-pVDZ          selected for orbital group  3
 Library entry H      S aug-cc-pVDZ          selected for orbital group  4
 Library entry H      P aug-cc-pVDZ          selected for orbital group  4

1PROGRAM * SEWARD (Integral evaluation for generally contracted gaussian basis sets)     Author: Roland Lindh, 1990

 Geometry written to block  1 of record 700


 Point group  C2h 



 ATOMIC COORDINATES

 NR  ATOM    CHARGE       X              Y              Z

   1  C       6.00   -3.824698382    0.089444154    0.000000000
   2  C       6.00    3.824698382   -0.089444154    0.000000000
   3  O       8.00   -2.734992249    2.142423980    0.000000000
   4  O       8.00    2.734992249   -2.142423980    0.000000000
   5  N       7.00   -2.678180644   -2.171319769    0.000000000
   6  N       7.00    2.678180644    2.171319769    0.000000000
   7  H       1.00   -3.729176358   -3.750071395    0.000000000
   8  H       1.00    3.729176358    3.750071395    0.000000000
   9  H       1.00   -0.744708123   -2.298510058    0.000000000
  10  H       1.00    0.744708123    2.298510058    0.000000000
  11  H       1.00   -5.903634719   -0.018837386    0.000000000
  12  H       1.00    5.903634719    0.018837386    0.000000000

 Bond lengths in Bohr (Angstrom)

  1- 3  2.324260231   1- 5  2.534868131   1-11  2.081754353   2- 4  2.324260231   2- 6  2.534868131
       ( 1.229945542)       ( 1.341394443)       ( 1.101616958)       ( 1.229945542)       ( 1.341394443)

  2-12  2.081754353   5- 7  1.896588698   5- 9  1.937651506   6- 8  1.896588698   6-10  1.937651506
       ( 1.101616958)       ( 1.003631514)       ( 1.025361016)       ( 1.003631514)       ( 1.025361016)

 Bond angles

  1- 5- 7  119.45650511   1- 5- 9  120.65495181   2- 6- 8  119.45650511   2- 6-10  120.65495181

  3- 1- 5  125.14970959   3- 1-11  120.94058416   4- 2- 6  125.14970959   4- 2-12  120.94058416

  5- 1-11  113.90970625   6- 2-12  113.90970625   7- 5- 9  119.88854308   8- 6-10  119.88854308

 NUCLEAR CHARGE:                   48
 NUMBER OF PRIMITIVE AOS:         288
 NUMBER OF SYMMETRY AOS:          276
 NUMBER OF CONTRACTIONS:          192   (  69Ag  +  27Au  +  69Bu  +  27Bg  )
 NUMBER OF CORE ORBITALS:           6   (   3Ag  +   0Au  +   3Bu  +   0Bg  )
 NUMBER OF VALENCE ORBITALS:       30   (  12Ag  +   3Au  +  12Bu  +   3Bg  )


 NUCLEAR REPULSION ENERGY  230.63662787


 Eigenvalues of metric

         1 0.230E-03 0.529E-03 0.697E-03 0.714E-03 0.859E-03 0.216E-02 0.278E-02 0.327E-02
         2 0.198E-01 0.282E-01 0.338E-01 0.453E-01 0.702E-01 0.792E-01 0.124E+00 0.184E+00
         3 0.269E-03 0.523E-03 0.565E-03 0.713E-03 0.119E-02 0.133E-02 0.231E-02 0.319E-02
         4 0.181E-01 0.283E-01 0.334E-01 0.417E-01 0.553E-01 0.883E-01 0.165E+00 0.172E+00


 Contracted 2-electron integrals neglected if value below      1.0D-16
 AO integral compression algorithm  1   Integral accuracy      1.0D-16

     455.868 MB (compressed) written to integral file (100.0%)

     Node minimum: 455.868 MB, node maximum: 455.868 MB


 NUMBER OF SORTED TWO-ELECTRON INTEGRALS:   45269976.     BUFFER LENGTH:  32768
 NUMBER OF SEGMENTS:   3  SEGMENT LENGTH:   15999984      RECORD LENGTH: 524288

 Memory used in sort:      16.56 MW

 SORT1 READ    55745328. AND WROTE    45269974. INTEGRALS IN    130 RECORDS. CPU TIME:     0.76 SEC, REAL TIME:     1.08 SEC
 SORT2 READ    45269974. AND WROTE    45269976. INTEGRALS IN   1739 RECORDS. CPU TIME:     0.46 SEC, REAL TIME:     0.64 SEC

 FILE SIZES:   FILE 1:   375.6 MBYTE,  FILE 4:   545.3 MBYTE,   TOTAL:    920.9 MBYTE

 OPERATOR DM      FOR CENTER  0  COORDINATES:    0.000000    0.000000    0.000000


 **********************************************************************************************************************************
 DATASETS  * FILE   NREC   LENGTH (MB)   RECORD NAMES
              1      19      375.74       500      610      700      900      950      970     1000      129      960     1100   
                                          VAR    BASINP    GEOM    SYMINP    ZMAT    AOBASIS   BASIS     P2S    ABASIS      S 
                                         1400     1410     1200     1210     1080     1600     1650     1300     1700   
                                           T        V       H0       H01     AOSYM     SMH    MOLCAS    ERIS     OPER   

 PROGRAMS   *        TOTAL       INT
 CPU TIMES  *         4.31      4.26
 REAL TIME  *         5.43 SEC
 DISK USED  *         1.38 GB      
 GA USED    *         0.00 MB       (max)       0.00 MB       (current)
 **********************************************************************************************************************************

1PROGRAM * RHF-SCF (CLOSED SHELL)       Authors: W. Meyer, H.-J. Werner


 NUMBER OF ELECTRONS:      24+   24-
 CONVERGENCE THRESHOLDS:    1.00E-10 (Density)    1.00E-13 (Energy)
 MAX. NUMBER OF ITERATIONS:      200
 INTERPOLATION TYPE:            DIIS
 INTERPOLATION STEPS:              2 (START)      1 (STEP)
 LEVEL SHIFTS:                  0.00 (CLOSED)  0.00 (OPEN) 



 Orbital guess generated from atomic densities. Full valence occupancy:   15   3  15   3

 Molecular orbital dump at record        2100.2

 Initial alpha occupancy:  10   2  10   2
 Initial beta  occupancy:  10   2  10   2
 Wave function symmetry:    1

 ITERATION    DDIFF          GRAD             ENERGY        2-EL.EN.            DIPOLE MOMENTS         DIIS
    1      0.000D+00      0.000D+00      -337.80662515    704.936658    0.00000    0.00000    0.00000    0
    2      0.000D+00      0.102D-01      -337.88405734    699.332100    0.00000    0.00000    0.00000    1
    3      0.194D-01      0.745D-02      -337.94144801    702.062222    0.00000    0.00000    0.00000    2
    4      0.788D-02      0.986D-03      -337.94365031    701.968894    0.00000    0.00000    0.00000    3
    5      0.188D-02      0.339D-03      -337.94391686    701.901354    0.00000    0.00000    0.00000    4
    6      0.641D-03      0.111D-03      -337.94397756    701.926933    0.00000    0.00000    0.00000    5
    7      0.282D-03      0.492D-04      -337.94398848    701.918247    0.00000    0.00000    0.00000    6
    8      0.135D-03      0.146D-04      -337.94398942    701.923667    0.00000    0.00000    0.00000    7
    9      0.424D-04      0.436D-05      -337.94398949    701.921219    0.00000    0.00000    0.00000    8
   10      0.109D-04      0.152D-05      -337.94398950    701.921776    0.00000    0.00000    0.00000    7
   11      0.456D-05      0.366D-06      -337.94398950    701.921702    0.00000    0.00000    0.00000    8
   12      0.106D-05      0.549D-07      -337.94398950    701.921709    0.00000    0.00000    0.00000    7
   13      0.154D-06      0.132D-07      -337.94398950    701.921710    0.00000    0.00000    0.00000    7
   14      0.400D-07      0.254D-08      -337.94398950    701.921709    0.00000    0.00000    0.00000    6
   15      0.624D-08      0.108D-08      -337.94398950    701.921710    0.00000    0.00000    0.00000    7
   16      0.232D-08      0.375D-09      -337.94398950    701.921710    0.00000    0.00000    0.00000    7
   17      0.710D-09      0.866D-10      -337.94398950    701.921710    0.00000    0.00000    0.00000    7
   18      0.187D-09      0.239D-10      -337.94398950    701.921710    0.00000    0.00000    0.00000    7
   19      0.489D-10      0.766D-11      -337.94398950    701.921710    0.00000    0.00000    0.00000    0

 Final occupancy:  10   2  10   2

 !RHF STATE 1.1 Energy               -337.943989501445
 Nuclear energy                       230.63662787
 One-electron energy                 -919.54147222
 Two-electron energy                  350.96085485
 Virial quotient                       -1.00168192
 !RHF STATE 1.1 Dipole moment           0.00000000     0.00000000     0.00000000
 Dipole moment /Debye                   0.00000000     0.00000000     0.00000000

 Orbital energies:

         1.1          2.1          3.1          4.1          5.1          6.1          7.1          8.1          9.1         10.1
    -20.541046   -15.588909   -11.367481    -1.390239    -1.212982    -0.860770    -0.750584    -0.645268    -0.619041    -0.454452

        11.1         12.1
      0.033394     0.059172

         1.2          2.2          3.2          4.2
     -0.574433    -0.409993     0.092297     0.151157

         1.3          2.3          3.3          4.3          5.3          6.3          7.3          8.3          9.3         10.3
    -20.541046   -15.588909   -11.367481    -1.385527    -1.219120    -0.835593    -0.741144    -0.706248    -0.593758    -0.428921

        11.3         12.3
      0.036381     0.052544

         1.4          2.4          3.4          4.4
     -0.566391    -0.420547     0.103406     0.181919


 **********************************************************************************************************************************
 DATASETS  * FILE   NREC   LENGTH (MB)   RECORD NAMES
              1      19      375.74       500      610      700      900      950      970     1000      129      960     1100   
                                          VAR    BASINP    GEOM    SYMINP    ZMAT    AOBASIS   BASIS     P2S    ABASIS      S 
                                         1400     1410     1200     1210     1080     1600     1650     1300     1700   
                                           T        V       H0       H01     AOSYM     SMH    MOLCAS    ERIS     OPER   

              2       3        0.70       700     1000     2100   
                                         GEOM     BASIS     RHF  

 PROGRAMS   *        TOTAL       RHF       INT
 CPU TIMES  *         6.50      2.20      4.26
 REAL TIME  *         8.18 SEC
 DISK USED  *         1.38 GB      
 GA USED    *         0.00 MB       (max)       0.00 MB       (current)
 **********************************************************************************************************************************


1PROGRAM * CCSD (Closed-shell coupled cluster)     Authors: C. Hampel, H.-J. Werner, 1991, M. Deegan, P.J. Knowles, 1992


 Convergence thresholds:  THRVAR = 1.00D-08  THRDEN = 1.00D-12

 CCSD(T)     terms to be evaluated (factor= 1.000)


 Number of core orbitals:           6 (   3   0   3   0 )
 Number of closed-shell orbitals:  18 (   7   2   7   2 )
 Number of external orbitals:     168 (  59  25  59  25 )

 Molecular orbitals read from record     2100.2  Type=RHF/CANONICAL (state 1.1)

 Number of N-1 electron functions:              18
 Number of N-2 electron functions:             171
 Number of singly external CSFs:               926
 Number of doubly external CSFs:           1202384
 Total number of CSFs:                     1203311

 Length of J-op  integral file:               0.00 MB
 Length of K-op  integral file:               0.79 MB
 Length of 3-ext integral record:             0.00 MB

 Memory could be reduced to 28.44 Mwords without degradation in triples

 Integral transformation finished. Total CPU:   1.06 sec, npass=  1  Memory used:   8.50 MW

 Reference energy:                   -337.94398950

 MP2 singlet pair energy:              -0.62253315
 MP2 triplet pair energy:              -0.40606432
 MP2 correlation energy:               -1.02859747
 MP2 total energy:                   -338.97258698

 SCS-MP2 correlation energy:           -0.99970203   (PS=  1.200000  PT=  0.333333)
 SCS-MP2 total energy:               -338.94369153

 ITER.      SQ.NORM     CORR.ENERGY   TOTAL ENERGY   ENERGY CHANGE        DEN1      VAR(S)    VAR(P)  DIIS     TIME
   1      1.31909956    -1.05715556  -339.00114506    -0.02855809     0.00268299  0.10D-01  0.60D-02  1  1     2.76
   2      1.34456145    -1.05904850  -339.00303800    -0.00189293    -0.02591761  0.22D-03  0.11D-02  2  2     4.56
   3      1.35714750    -1.05993524  -339.00392474    -0.00088674    -0.00555184  0.22D-03  0.52D-04  3  3     6.39
   4      1.36232662    -1.05967195  -339.00366145     0.00026329    -0.00168727  0.22D-04  0.95D-05  4  4     8.22
   5      1.36445447    -1.05961508  -339.00360458     0.00005687    -0.00044595  0.27D-05  0.12D-05  5  5    10.02
   6      1.36497079    -1.05958668  -339.00357618     0.00002840    -0.00004934  0.27D-06  0.19D-06  6  6    11.84
   7      1.36509693    -1.05957446  -339.00356396     0.00001222    -0.00000198  0.35D-07  0.23D-07  6  1    13.68
   8      1.36513384    -1.05957328  -339.00356279     0.00000118    -0.00000692  0.75D-08  0.32D-08  6  2    15.49
   9      1.36513540    -1.05957345  -339.00356295    -0.00000017     0.00000263  0.13D-08  0.48D-09  6  3    17.32
  10      1.36514012    -1.05957291  -339.00356242     0.00000054    -0.00000109  0.32D-09  0.68D-10  6  4    19.15
  11      1.36513989    -1.05957317  -339.00356267    -0.00000025     0.00000046  0.58D-10  0.13D-10  6  5    20.98
  12      1.36513989    -1.05957314  -339.00356264     0.00000003     0.00000002  0.44D-11  0.35D-11  6  6    22.80
  13      1.36513961    -1.05957318  -339.00356268    -0.00000004     0.00000012  0.11D-11  0.38D-12  6  1    24.62
  14      1.36513952    -1.05957319  -339.00356269    -0.00000001     0.00000004  0.85D-13  0.72D-13  6  2    26.45
  15      1.36513949    -1.05957319  -339.00356269     0.00000000     0.00000001  0.21D-13  0.11D-13  6  3    28.26
  16      1.36513949    -1.05957319  -339.00356269    -0.00000000     0.00000000  0.44D-14  0.20D-14  6  4    30.11
  17      1.36513949    -1.05957319  -339.00356269     0.00000000    -0.00000000  0.73D-15  0.40D-15  6  5    31.94
  18      1.36513949    -1.05957319  -339.00356269     0.00000000    -0.00000000  0.23D-15  0.70D-16  6  6    33.78
  19      1.36513950    -1.05957319  -339.00356269    -0.00000000    -0.00000000  0.38D-16  0.17D-16  6  1    35.59
  20      1.36513950    -1.05957319  -339.00356269     0.00000000    -0.00000000  0.10D-16  0.41D-17  6  2    37.42
  21      1.36513950    -1.05957319  -339.00356269    -0.00000000     0.00000000  0.23D-17  0.83D-18  6  3    39.23
  22      1.36513950    -1.05957319  -339.00356269    -0.00000000     0.00000000  0.33D-18  0.20D-18  6  4    41.06
  23      1.36513950    -1.05957319  -339.00356269    -0.00000000     0.00000000  0.10D-18  0.42D-19  6  5    42.87
  24      1.36513950    -1.05957319  -339.00356269    -0.00000000     0.00000000  0.17D-19  0.94D-20  6  6    44.69
  25      1.36513950    -1.05957319  -339.00356269    -0.00000000    -0.00000000  0.44D-20  0.16D-20  6  3    46.52
  26      1.36513950    -1.05957319  -339.00356269    -0.00000000    -0.00000000  0.79D-21  0.22D-21  6  1    48.35

 Norm of t1 vector:      0.14788899      S-energy:     0.00000000      T1 diagnostic:  0.01742888
                                                                       D1 diagnostic:  0.05882263


 Total CPU time for triples:     53.00 sec


 RESULTS
 =======

  Reference energy                   -337.943989501444
  CCSD singlet pair energy             -0.699424683185
  CCSD triplet pair energy             -0.360148507701
  CCSD correlation energy              -1.059573190881

  Triples (T) contribution             -0.039884774345
  Total correlation energy             -1.099457965227

  CCSD total energy                  -339.003562692325
  CCSD[T] energy                     -339.046655210142
  CCSD-T energy                      -339.042328473072
 !CCSD(T) total energy               -339.043447466671

 Timing summary (sec):

 STEP                 CPU(USER)    SYS     CPU(TOT)    WALL
 Transformation          1.09      0.15      1.24      1.24
 CCSD iterations        47.27      2.33     49.60     49.65
 Triples                53.00      1.83     54.83     54.85

 Program statistics:

 Available memory in ccsd:               999998604
 Min. memory needed in ccsd:               3014206
 Max. memory used in ccsd:                 4106384
 Max. memory used in cckext:               3788489 (26 integral passes)



 **********************************************************************************************************************************
 DATASETS  * FILE   NREC   LENGTH (MB)   RECORD NAMES
              1      20      485.26       500      610      700      900      950      970     1000      129      960     1100   
                                          VAR    BASINP    GEOM    SYMINP    ZMAT    AOBASIS   BASIS     P2S    ABASIS      S 
                                         1400     1410     1200     1210     1080     1600     1650     1300     1700     1380   
                                           T        V       H0       H01     AOSYM     SMH    MOLCAS    ERIS     OPER     JKOP   

              2       3        0.70       700     1000     2100   
                                         GEOM     BASIS     RHF  

 PROGRAMS   *        TOTAL   CCSD(T)       RHF       INT
 CPU TIMES  *       107.88    101.38      2.20      4.26
 REAL TIME  *       113.97 SEC
 DISK USED  *         1.38 GB      
 GA USED    *         0.00 MB       (max)       0.00 MB       (current)
 **********************************************************************************************************************************

        CCSD(T)         RHF-SCF 
   -339.04344747   -337.94398950
 **********************************************************************************************************************************
 Variable memory released
