
 Primary working directories    : /tmp/880701.167.gen4.q
 Secondary working directories  : /tmp/880701.167.gen4.q
 Wavefunction directory         : /home/vulcan/lo21740/wfu/
 Main file repository           : /tmp/880701.167.gen4.q/

 ARCHNAME  : Linux/x86_64
 FC        : /opt/intel/compilers_and_libraries_2016.1.150/linux/bin/intel64/ifort
 FCVERSION : 16.0.1
 BLASLIB   : -mkl
 id        : ccgc

 Nodes     nprocs
 n040         1
 ga_uses_ma=false, calling ma_init with nominal heap.
 GA-space will be limited to   8.0 MW (determined by -G option)

 Using customized tuning parameters: mindgm=10; mindgv=16; mindgc=4; mindgr=1; noblas=0; mincuda=1000; minvec=7
 default implementation of scratch files=df  

 ***,Optimization of formamide
 memory,1000,m
 gthresh,energy=1.0d-12,orbital=1.0d-10,oneint=1.0d-16,twoint=1.0d-16,optgrad=1.0d-6,compress=1.0d-13
 geomtyp=xyz
 
 bohr
 geometry = {
  C   -3.8280395568    0.0873254448    0.0013569263
  O   -2.7305206416    2.1398750562   -0.0006782153
  N   -2.6809505807   -2.1814343144   -0.0007931441
  H   -3.7334117844   -3.7625257543    0.0002598093
  H   -0.7504820273   -2.3048131263   -0.0002771033
  H   -5.9060411283   -0.0121175753   -0.0003309493
  C    3.8235636336   -0.0853568291   -0.0013467865
  O    2.7299107263   -2.1380324134    0.0006853331
  N    2.6817730318    2.1774410800    0.0007858910
  H    3.7447407034    3.7495547004   -0.0002838050
  H    0.7508841380    2.3053292800    0.0002743089
  H    5.8985734860    0.0247544513    0.0003477348
 }
 
 basis=AVDZ
 {rhf;maxit,200}
 {ccsd(t);maxit,200}

 Variables initialized (661), CPU time= 0.01 sec
 Commands  initialized (458), CPU time= 0.00 sec, 486 directives.
 Default parameters read. Elapsed time= 0.05 sec

 Checking input...
 Passed
1


                                         ***  PROGRAM SYSTEM MOLPRO  ***
                         Copyright, University College Cardiff Consultants Limited, 2008

                                    Version 2010.1 linked May 16 2016 07:17:05


 **********************************************************************************************************************************
 LABEL *   Optimization of formamide                                                     
 Linux-4.4.3/n040(x86_64) 64 bit mpp version                                             DATE: 24-May-23          TIME: 17:51:53  
 **********************************************************************************************************************************

 SHA1:             9e8077add272b0f3cad6f7df79ec5211205f459d
 **********************************************************************************************************************************

 THRESHOLDS:

 ZERO    =  1.00D-12  ONEINT  =  1.00D-16  TWOINT  =  1.00D-16  PREFAC  =  1.00D-14  LOCALI  =  1.00D-09  EORDER  =  1.00D-04
 ENERGY  =  1.00D-12  ETEST   =  0.00D+00  EDENS   =  0.00D+00  THRDEDEF=  1.00D-06  GRADIENT=  1.00D-02  STEP    =  1.00D-03
 ORBITAL =  1.00D-10  CIVEC   =  1.00D-05  COEFF   =  1.00D-04  PRINTCI =  5.00D-02  PUNCHCI =  9.90D+01  OPTGRAD =  1.00D-06
 OPTENERG=  1.00D-06  OPTSTEP =  3.00D-04  THRGRAD =  1.00D-10  COMPRESS=  1.00D-13  VARMIN  =  1.00D-07  VARMAX  =  1.00D-03
 THRDOUB =  0.00D+00  THRDIV  =  1.00D-05  THRRED  =  1.00D-07  THRPSP  =  1.00D+00  THRDC   =  1.00D-10  THRCS   =  1.00D-10
 THRNRM  =  1.00D-08  THREQ   =  0.00D+00  THRDE   =  1.00D+00  THRREF  =  1.00D-05  SPARFAC =  1.00D+00  THRDLP  =  1.00D-07
 THRDIA  =  1.00D-10  THRDLS  =  1.00D-07  THRGPS  =  0.00D+00  THRKEX  =  0.00D+00  THRDIS  =  2.00D-01  THRVAR  =  1.00D-10
 THRLOC  =  1.00D-06  THRGAP  =  1.00D-06  THRLOCT = -1.00D+00  THRGAPT = -1.00D+00  THRORB  =  1.00D-06  THRMLTP =  0.00D+00
 THRCPQCI=  1.00D-10  KEXTA   =  0.00D+00  THRCOARS=  0.00D+00  SYMTOL  =  1.00D-06  GRADTOL =  1.00D-06  THROVL  =  1.00D-08
 THRORTH =  1.00D-08  GRID    =  1.00D-06  GRIDMAX =  1.00D-03  DTMAX   =  0.00D+00

 SETTING GEOMTYP        =    XYZ
 ZUNIT=BOHR
 

 Variable memory set to 1000000000 words,  buffer space   230000 words

 SETTING BASIS          =    AVDZ


 Recomputing integrals since basis changed


 Using spherical harmonics

 Library entry C      S aug-cc-pVDZ          selected for orbital group  1
 Library entry C      P aug-cc-pVDZ          selected for orbital group  1
 Library entry C      D aug-cc-pVDZ          selected for orbital group  1
 Library entry O      S aug-cc-pVDZ          selected for orbital group  2
 Library entry O      P aug-cc-pVDZ          selected for orbital group  2
 Library entry O      D aug-cc-pVDZ          selected for orbital group  2
 Library entry N      S aug-cc-pVDZ          selected for orbital group  3
 Library entry N      P aug-cc-pVDZ          selected for orbital group  3
 Library entry N      D aug-cc-pVDZ          selected for orbital group  3
 Library entry H      S aug-cc-pVDZ          selected for orbital group  4
 Library entry H      P aug-cc-pVDZ          selected for orbital group  4

1PROGRAM * SEWARD (Integral evaluation for generally contracted gaussian basis sets)     Author: Roland Lindh, 1990

 Geometry written to block  1 of record 700


 Point group  C1  



 ATOMIC COORDINATES

 NR  ATOM    CHARGE       X              Y              Z

   1  C       6.00   -3.828039557    0.087325445    0.001356926
   2  O       8.00   -2.730520642    2.139875056   -0.000678215
   3  N       7.00   -2.680950581   -2.181434314   -0.000793144
   4  H       1.00   -3.733411784   -3.762525754    0.000259809
   5  H       1.00   -0.750482027   -2.304813126   -0.000277103
   6  H       1.00   -5.906041128   -0.012117575   -0.000330949
   7  C       6.00    3.823563634   -0.085356829   -0.001346786
   8  O       8.00    2.729910726   -2.138032413    0.000685333
   9  N       7.00    2.681773032    2.177441080    0.000785891
  10  H       1.00    3.744740703    3.749554700   -0.000283805
  11  H       1.00    0.750884138    2.305329280    0.000274309
  12  H       1.00    5.898573486    0.024754451    0.000347735

 Bond lengths in Bohr (Angstrom)

 1-2  2.327554901  1-3  2.542260527  1-6  2.080380324  3-4  1.899348792  3-5  1.934407256
     ( 1.231689006)     ( 1.345306330)     ( 1.100889854)     ( 1.005092093)     ( 1.023644233)

  7- 8  2.325845624   7- 9  2.534550198   7-12  2.077930040   9-10  1.897746730   9-11  1.935119524
       ( 1.230784496)       ( 1.341226200)       ( 1.099593219)       ( 1.004244318)       ( 1.024021149)

 Bond angles

  1-3-4  119.52879615   1-3-5  120.47808974   2-1-3  125.04481250   2-1-6  120.87359847

  3- 1- 6  114.08137517   4- 3- 5  119.99302234   7- 9-10  119.16062090   7- 9-11  120.56446193

  8- 7- 9  125.17633877   8- 7-12  121.08591964   9- 7-12  113.73752777  10- 9-11  120.27482532

 NUCLEAR CHARGE:                   48
 NUMBER OF PRIMITIVE AOS:         288
 NUMBER OF SYMMETRY AOS:          276
 NUMBER OF CONTRACTIONS:          192   ( 192A   )
 NUMBER OF CORE ORBITALS:           6   (   6A   )
 NUMBER OF VALENCE ORBITALS:       30   (  30A   )


 NUCLEAR REPULSION ENERGY  230.50416543


 Eigenvalues of metric

         1 0.232E-03 0.270E-03 0.524E-03 0.528E-03 0.565E-03 0.700E-03 0.713E-03 0.717E-03


 Contracted 2-electron integrals neglected if value below      1.0D-16
 AO integral compression algorithm  1   Integral accuracy      1.0D-16

     1236.533 MB (compressed) written to integral file ( 80.4%)

     Node minimum: 1236.533 MB, node maximum: 1236.533 MB


 NUMBER OF SORTED TWO-ELECTRON INTEGRALS:  171652656.     BUFFER LENGTH:  32768
 NUMBER OF SEGMENTS:  11  SEGMENT LENGTH:   15999503      RECORD LENGTH: 524288

 Memory used in sort:      16.56 MW

 SORT1 READ   192171061. AND WROTE   169178599. INTEGRALS IN    491 RECORDS. CPU TIME:     2.16 SEC, REAL TIME:     3.20 SEC
 SORT2 READ   169178599. AND WROTE   171652656. INTEGRALS IN   4717 RECORDS. CPU TIME:     1.46 SEC, REAL TIME:     2.15 SEC

 FILE SIZES:   FILE 1:  1125.5 MBYTE,  FILE 4:  2059.4 MBYTE,   TOTAL:   3184.9 MBYTE

 OPERATOR DM      FOR CENTER  0  COORDINATES:    0.000000    0.000000    0.000000


 **********************************************************************************************************************************
 DATASETS  * FILE   NREC   LENGTH (MB)   RECORD NAMES
              1      19     1125.94       500      610      700      900      950      970     1000      129      960     1100   
                                          VAR    BASINP    GEOM    SYMINP    ZMAT    AOBASIS   BASIS     P2S    ABASIS      S 
                                         1400     1410     1200     1210     1080     1600     1650     1300     1700   
                                           T        V       H0       H01     AOSYM     SMH    MOLCAS    ERIS     OPER   

 PROGRAMS   *        TOTAL       INT
 CPU TIMES  *        11.00     10.94
 REAL TIME  *        14.49 SEC
 DISK USED  *         4.42 GB      
 GA USED    *         0.00 MB       (max)       0.00 MB       (current)
 **********************************************************************************************************************************

1PROGRAM * RHF-SCF (CLOSED SHELL)       Authors: W. Meyer, H.-J. Werner


 NUMBER OF ELECTRONS:      24+   24-    SPACE SYMMETRY=1    SPIN SYMMETRY: Singlet 
 CONVERGENCE THRESHOLDS:    1.00E-10 (Density)    1.00E-13 (Energy)
 MAX. NUMBER OF ITERATIONS:      200
 INTERPOLATION TYPE:            DIIS
 INTERPOLATION STEPS:              2 (START)      1 (STEP)
 LEVEL SHIFTS:                  0.00 (CLOSED)  0.00 (OPEN) 



 Orbital guess generated from atomic densities. Full valence occupancy:   36

 Molecular orbital dump at record        2100.2

 ITERATION    DDIFF          GRAD             ENERGY        2-EL.EN.            DIPOLE MOMENTS         DIIS
    1      0.000D+00      0.000D+00      -337.80605407    704.692235   -0.00486    0.00618    0.00001    0
    2      0.000D+00      0.563D-02      -337.88348245    699.080331   -0.00174    0.00538   -0.00001    1
    3      0.107D-01      0.410D-02      -337.94122541    701.818528   -0.00334    0.00462   -0.00000    2
    4      0.434D-02      0.542D-03      -337.94343631    701.723055   -0.00319    0.00540   -0.00000    3
    5      0.103D-02      0.187D-03      -337.94370436    701.656229   -0.00320    0.00498   -0.00000    4
    6      0.353D-03      0.613D-04      -337.94376559    701.681759   -0.00315    0.00526   -0.00000    5
    7      0.156D-03      0.271D-04      -337.94377659    701.672922   -0.00318    0.00511   -0.00000    6
    8      0.741D-04      0.808D-05      -337.94377754    701.678405   -0.00314    0.00530   -0.00000    7
    9      0.233D-04      0.251D-05      -337.94377761    701.676069   -0.00317    0.00513   -0.00000    8
   10      0.608D-05      0.946D-06      -337.94377762    701.676388   -0.00315    0.00526   -0.00000    7
   11      0.261D-05      0.381D-06      -337.94377762    701.676499   -0.00316    0.00519   -0.00000    8
   12      0.617D-06      0.126D-06      -337.94377762    701.676445   -0.00316    0.00520   -0.00000    9
   13      0.299D-06      0.183D-07      -337.94377762    701.676446   -0.00316    0.00521   -0.00000    8
   14      0.487D-07      0.664D-08      -337.94377762    701.676449   -0.00316    0.00520   -0.00000    7
   15      0.178D-07      0.250D-08      -337.94377762    701.676448   -0.00316    0.00520   -0.00000    8
   16      0.528D-08      0.476D-09      -337.94377762    701.676448   -0.00316    0.00520   -0.00000    8
   17      0.103D-08      0.228D-09      -337.94377762    701.676448   -0.00316    0.00520   -0.00000    8
   18      0.394D-09      0.505D-10      -337.94377762    701.676448   -0.00316    0.00520   -0.00000    7
   19      0.109D-09      0.207D-10      -337.94377762    701.676448   -0.00316    0.00520   -0.00000    7
   20      0.347D-10      0.877D-11      -337.94377762    701.676448   -0.00316    0.00520   -0.00000    8
   21      0.135D-10      0.300D-11      -337.94377762    701.676448   -0.00316    0.00520   -0.00000    8
   22      0.747D-11      0.144D-11      -337.94377762    701.676448   -0.00316    0.00520   -0.00000    8
   23      0.546D-11      0.465D-12      -337.94377762    701.676448   -0.00316    0.00520   -0.00000    8
   24      0.515D-11      0.208D-12      -337.94377762    701.676448   -0.00316    0.00520   -0.00000    9
   25      0.445D-11      0.125D-12      -337.94377762    701.676448   -0.00316    0.00520   -0.00000    9
   26      0.202D-11      0.108D-12      -337.94377762    701.676448   -0.00316    0.00520   -0.00000    9
   27      0.159D-11      0.910D-13      -337.94377762    701.676448   -0.00316    0.00520   -0.00000    9
   28      0.968D-12      0.973D-13      -337.94377762    701.676448   -0.00316    0.00520   -0.00000    9
   29      0.857D-12      0.972D-13      -337.94377762    701.676448   -0.00316    0.00520   -0.00000    9
   30      0.745D-12      0.766D-13      -337.94377762    701.676448   -0.00316    0.00520   -0.00000    9
   31      0.382D-12      0.866D-13      -337.94377762    701.676448   -0.00316    0.00520   -0.00000    9
   32      0.315D-12      0.898D-13      -337.94377762    701.676448   -0.00316    0.00520   -0.00000    9
   33      0.394D-12      0.778D-13      -337.94377762    701.676448   -0.00316    0.00520   -0.00000    9
   34      0.356D-12      0.882D-13      -337.94377762    701.676448   -0.00316    0.00520   -0.00000    9
   35      0.406D-12      0.756D-13      -337.94377762    701.676448   -0.00316    0.00520   -0.00000    9
   36      0.333D-12      0.945D-13      -337.94377762    701.676448   -0.00316    0.00520   -0.00000    0

 Final occupancy:  24

 !RHF STATE 1.1 Energy               -337.943777621545
 Nuclear energy                       230.50416543
 One-electron energy                 -919.28616718
 Two-electron energy                  350.83822412
 Virial quotient                       -1.00173024
 !RHF STATE 1.1 Dipole moment          -0.00315805     0.00520497    -0.00000032
 Dipole moment /Debye                  -0.00802643     0.01322884    -0.00000082

 Orbital energies:

         1.1          2.1          3.1          4.1          5.1          6.1          7.1          8.1          9.1         10.1
    -20.541486   -20.540802   -15.588956   -15.588938   -11.368266   -11.367162    -1.389337    -1.384597    -1.218637    -1.212221

        11.1         12.1         13.1         14.1         15.1         16.1         17.1         18.1         19.1         20.1
     -0.860901    -0.835713    -0.749970    -0.740899    -0.705916    -0.645098    -0.619297    -0.593720    -0.573736    -0.565646

        21.1         22.1         23.1         24.1         25.1         26.1
     -0.454439    -0.429028    -0.420341    -0.409753     0.033383     0.036358


 **********************************************************************************************************************************
 DATASETS  * FILE   NREC   LENGTH (MB)   RECORD NAMES
              1      19     1125.94       500      610      700      900      950      970     1000      129      960     1100   
                                          VAR    BASINP    GEOM    SYMINP    ZMAT    AOBASIS   BASIS     P2S    ABASIS      S 
                                         1400     1410     1200     1210     1080     1600     1650     1300     1700   
                                           T        V       H0       H01     AOSYM     SMH    MOLCAS    ERIS     OPER   

              2       3        1.21       700     1000     2100   
                                         GEOM     BASIS     RHF  

 PROGRAMS   *        TOTAL       RHF       INT
 CPU TIMES  *        66.20     55.20     10.94
 REAL TIME  *        74.00 SEC
 DISK USED  *         4.42 GB      
 GA USED    *         0.00 MB       (max)       0.00 MB       (current)
 **********************************************************************************************************************************


1PROGRAM * CCSD (Closed-shell coupled cluster)     Authors: C. Hampel, H.-J. Werner, 1991, M. Deegan, P.J. Knowles, 1992


 Convergence thresholds:  THRVAR = 1.00D-08  THRDEN = 1.00D-12

 CCSD(T)     terms to be evaluated (factor= 1.000)


 Number of core orbitals:           6 (   6 )
 Number of closed-shell orbitals:  18 (  18 )
 Number of external orbitals:     168 ( 168 )

 Molecular orbitals read from record     2100.2  Type=RHF/CANONICAL (state 1.1)

 Number of N-1 electron functions:              18
 Number of N-2 electron functions:             171
 Number of singly external CSFs:              3024
 Number of doubly external CSFs:           4573800
 Total number of CSFs:                     4576825

 Length of J-op  integral file:               0.00 MB
 Length of K-op  integral file:               2.58 MB
 Length of 3-ext integral record:             0.00 MB

 Memory could be reduced to 108.88 Mwords without degradation in triples

 Integral transformation finished. Total CPU:  12.12 sec, npass=  1  Memory used:  78.69 MW

 Reference energy:                   -337.94377762

 MP2 singlet pair energy:              -0.62275630
 MP2 triplet pair energy:              -0.40616873
 MP2 correlation energy:               -1.02892503
 MP2 total energy:                   -338.97270265

 SCS-MP2 correlation energy:           -1.00003477   (PS=  1.200000  PT=  0.333333)
 SCS-MP2 total energy:               -338.94381239

 ITER.      SQ.NORM     CORR.ENERGY   TOTAL ENERGY   ENERGY CHANGE        DEN1      VAR(S)    VAR(P)  DIIS     TIME
   1      1.31936146    -1.05744666  -339.00122428    -0.02852163     0.00279234  0.10D-01  0.60D-02  1  1    48.48
   2      1.34487646    -1.05933006  -339.00310768    -0.00188340    -0.02595856  0.22D-03  0.11D-02  2  2    85.07
   3      1.35751928    -1.06022318  -339.00400080    -0.00089312    -0.00556626  0.22D-03  0.52D-04  3  3   121.68
   4      1.36273339    -1.05995877  -339.00373639     0.00026441    -0.00169519  0.22D-04  0.96D-05  4  4   158.35
   5      1.36488337    -1.05990135  -339.00367897     0.00005743    -0.00044982  0.27D-05  0.12D-05  5  5   195.03
   6      1.36540518    -1.05987267  -339.00365029     0.00002868    -0.00004982  0.27D-06  0.19D-06  6  6   231.73
   7      1.36553260    -1.05986035  -339.00363798     0.00001231    -0.00000196  0.35D-07  0.23D-07  6  1   268.42
   8      1.36556988    -1.05985916  -339.00363678     0.00000119    -0.00000699  0.75D-08  0.33D-08  6  2   305.13
   9      1.36557139    -1.05985933  -339.00363695    -0.00000017     0.00000266  0.13D-08  0.49D-09  6  3   341.81
  10      1.36557615    -1.05985879  -339.00363641     0.00000054    -0.00000110  0.32D-09  0.68D-10  6  4   378.51
  11      1.36557591    -1.05985904  -339.00363666    -0.00000025     0.00000046  0.58D-10  0.13D-10  6  5   415.24
  12      1.36557591    -1.05985902  -339.00363664     0.00000003     0.00000002  0.44D-11  0.35D-11  6  6   451.95
  13      1.36557563    -1.05985906  -339.00363668    -0.00000004     0.00000012  0.11D-11  0.38D-12  6  1   488.65
  14      1.36557553    -1.05985907  -339.00363669    -0.00000001     0.00000004  0.87D-13  0.73D-13  6  2   525.34
  15      1.36557551    -1.05985907  -339.00363669     0.00000000     0.00000001  0.21D-13  0.12D-13  6  3   562.07
  16      1.36557551    -1.05985907  -339.00363669    -0.00000000     0.00000000  0.47D-14  0.20D-14  6  4   598.81
  17      1.36557551    -1.05985907  -339.00363669     0.00000000    -0.00000000  0.83D-15  0.42D-15  6  5   635.50
  18      1.36557551    -1.05985907  -339.00363669     0.00000000    -0.00000000  0.26D-15  0.77D-16  6  6   672.20
  19      1.36557551    -1.05985907  -339.00363669    -0.00000000    -0.00000000  0.51D-16  0.20D-16  6  1   708.92
  20      1.36557551    -1.05985907  -339.00363669     0.00000000    -0.00000000  0.15D-16  0.53D-17  6  2   745.63
  21      1.36557551    -1.05985907  -339.00363669    -0.00000000     0.00000000  0.37D-17  0.12D-17  6  3   782.34
  22      1.36557551    -1.05985907  -339.00363669    -0.00000000     0.00000000  0.81D-18  0.32D-18  6  4   819.07
  23      1.36557551    -1.05985907  -339.00363669     0.00000000     0.00000000  0.23D-18  0.81D-19  6  5   855.77
  24      1.36557551    -1.05985907  -339.00363669    -0.00000000     0.00000000  0.52D-19  0.22D-19  6  6   892.46
  25      1.36557551    -1.05985907  -339.00363669     0.00000000    -0.00000000  0.15D-19  0.49D-20  6  1   929.17
  26      1.36557551    -1.05985907  -339.00363669     0.00000000    -0.00000000  0.35D-20  0.13D-20  6  2   965.90

 Norm of t1 vector:      0.14831592      S-energy:     0.00000000      T1 diagnostic:  0.01747920
                                                                       D1 diagnostic:  0.05909059


 Total CPU time for triples:    695.97 sec


 RESULTS
 =======

  Reference energy                   -337.943777621542
  CCSD singlet pair energy             -0.699685178544
  CCSD triplet pair energy             -0.360173888195
  CCSD correlation energy              -1.059859066739

  Triples (T) contribution             -0.039945329350
  Total correlation energy             -1.099804396089

  CCSD total energy                  -339.003636688281
  CCSD[T] energy                     -339.046805773720
  CCSD-T energy                      -339.042458592825
 !CCSD(T) total energy               -339.043582017631

 Timing summary (sec):

 STEP                 CPU(USER)    SYS     CPU(TOT)    WALL
 Transformation         12.58      0.68     13.26     13.27
 CCSD iterations       953.34     10.13    963.47    963.65
 Triples               695.97      7.91    703.88    703.93

 Program statistics:

 Available memory in ccsd:               999998604
 Min. memory needed in ccsd:              11370604
 Max. memory used in ccsd:                15561652
 Max. memory used in cckext:              13129806 (26 integral passes)



 **********************************************************************************************************************************
 DATASETS  * FILE   NREC   LENGTH (MB)   RECORD NAMES
              1      20     1546.00       500      610      700      900      950      970     1000      129      960     1100   
                                          VAR    BASINP    GEOM    SYMINP    ZMAT    AOBASIS   BASIS     P2S    ABASIS      S 
                                         1400     1410     1200     1210     1080     1600     1650     1300     1700     1380   
                                           T        V       H0       H01     AOSYM     SMH    MOLCAS    ERIS     OPER     JKOP   

              2       3        1.21       700     1000     2100   
                                         GEOM     BASIS     RHF  

 PROGRAMS   *        TOTAL   CCSD(T)       RHF       INT
 CPU TIMES  *      1728.11   1661.91     55.20     10.94
 REAL TIME  *      1754.95 SEC
 DISK USED  *         4.42 GB      
 GA USED    *         0.00 MB       (max)       0.00 MB       (current)
 **********************************************************************************************************************************

        CCSD(T)         RHF-SCF 
   -339.04358202   -337.94377762
 **********************************************************************************************************************************
 Variable memory released
