
 Primary working directories    : /tmp/943417.80.gen6.q
 Secondary working directories  : /tmp/943417.80.gen6.q
 Wavefunction directory         : /home/vulcan/mel64643/wfu/
 Main file repository           : /tmp/943417.80.gen6.q/

 ARCHNAME  : Linux/x86_64
 FC        : /opt/intel/compilers_and_libraries_2016.1.150/linux/bin/intel64/ifort
 FCVERSION : 16.0.1
 BLASLIB   : -mkl
 id        : ccgc

 Nodes     nprocs
 n087         1
 ga_uses_ma=false, calling ma_init with nominal heap.
 GA-space will be limited to   8.0 MW (determined by -G option)

 Using customized tuning parameters: mindgm=10; mindgv=16; mindgc=4; mindgr=1; noblas=0; mincuda=1000; minvec=7
 default implementation of scratch files=df  

 ***,Optimization of nh3_nitrosmethane
 memory,1000,m
 gthresh,energy=1.0d-12,orbital=1.0d-10,oneint=1.0d-16,twoint=1.0d-16,optgrad=1.0d-6,compress=1.0d-13
 geomtyp=xyz
 
 bohr
 geometry = {
  N   -5.2274265370   -0.1860807998   -0.0003789189
  H   -6.2986145041    0.2300877244   -1.5314728667
  H   -3.7548789822    1.0599507132   -0.0000098453
  H   -6.2990022080    0.2296389348    1.5305656462
  H   -0.9249390638   -2.3992167545    0.0044439588
  H    1.8827090102   -3.4249188650   -1.6666181932
  H    1.8812763340   -3.4429752590    1.6667086399
  C    1.1355704797   -2.4696423939    0.0049479780
  N    2.2664400196    0.0979856797   -0.0042443695
  O    0.7029839416    1.7822280289   -0.0039420292
 }
 
 basis=cc-pvdz
 {rhf;maxit,200}
 {ccsd(t);maxit,200}

 Variables initialized (661), CPU time= 0.00 sec
 Commands  initialized (458), CPU time= 0.01 sec, 486 directives.
 Default parameters read. Elapsed time= 0.05 sec

 Checking input...
 Passed
1


                                         ***  PROGRAM SYSTEM MOLPRO  ***
                         Copyright, University College Cardiff Consultants Limited, 2008

                                    Version 2010.1 linked May 16 2016 07:17:05


 **********************************************************************************************************************************
 LABEL *   Optimization of nh3_nitrosmethane                                             
 Linux-4.4.3/n087(x86_64) 64 bit mpp version                                             DATE: 25-Oct-23          TIME: 16:33:48  
 **********************************************************************************************************************************

 SHA1:             9e8077add272b0f3cad6f7df79ec5211205f459d
 **********************************************************************************************************************************

 THRESHOLDS:

 ZERO    =  1.00D-12  ONEINT  =  1.00D-16  TWOINT  =  1.00D-16  PREFAC  =  1.00D-14  LOCALI  =  1.00D-09  EORDER  =  1.00D-04
 ENERGY  =  1.00D-12  ETEST   =  0.00D+00  EDENS   =  0.00D+00  THRDEDEF=  1.00D-06  GRADIENT=  1.00D-02  STEP    =  1.00D-03
 ORBITAL =  1.00D-10  CIVEC   =  1.00D-05  COEFF   =  1.00D-04  PRINTCI =  5.00D-02  PUNCHCI =  9.90D+01  OPTGRAD =  1.00D-06
 OPTENERG=  1.00D-06  OPTSTEP =  3.00D-04  THRGRAD =  1.00D-10  COMPRESS=  1.00D-13  VARMIN  =  1.00D-07  VARMAX  =  1.00D-03
 THRDOUB =  0.00D+00  THRDIV  =  1.00D-05  THRRED  =  1.00D-07  THRPSP  =  1.00D+00  THRDC   =  1.00D-10  THRCS   =  1.00D-10
 THRNRM  =  1.00D-08  THREQ   =  0.00D+00  THRDE   =  1.00D+00  THRREF  =  1.00D-05  SPARFAC =  1.00D+00  THRDLP  =  1.00D-07
 THRDIA  =  1.00D-10  THRDLS  =  1.00D-07  THRGPS  =  0.00D+00  THRKEX  =  0.00D+00  THRDIS  =  2.00D-01  THRVAR  =  1.00D-10
 THRLOC  =  1.00D-06  THRGAP  =  1.00D-06  THRLOCT = -1.00D+00  THRGAPT = -1.00D+00  THRORB  =  1.00D-06  THRMLTP =  0.00D+00
 THRCPQCI=  1.00D-10  KEXTA   =  0.00D+00  THRCOARS=  0.00D+00  SYMTOL  =  1.00D-06  GRADTOL =  1.00D-06  THROVL  =  1.00D-08
 THRORTH =  1.00D-08  GRID    =  1.00D-06  GRIDMAX =  1.00D-03  DTMAX   =  0.00D+00

 SETTING GEOMTYP        =    XYZ
 ZUNIT=BOHR
 

 Variable memory set to 1000000000 words,  buffer space   230000 words

 SETTING BASIS          =    CC-PVDZ


 Recomputing integrals since basis changed


 Using spherical harmonics

 Library entry N      S cc-pVDZ              selected for orbital group  1
 Library entry N      P cc-pVDZ              selected for orbital group  1
 Library entry N      D cc-pVDZ              selected for orbital group  1
 Library entry H      S cc-pVDZ              selected for orbital group  2
 Library entry H      P cc-pVDZ              selected for orbital group  2
 Library entry C      S cc-pVDZ              selected for orbital group  3
 Library entry C      P cc-pVDZ              selected for orbital group  3
 Library entry C      D cc-pVDZ              selected for orbital group  3
 Library entry O      S cc-pVDZ              selected for orbital group  5
 Library entry O      P cc-pVDZ              selected for orbital group  5
 Library entry O      D cc-pVDZ              selected for orbital group  5

1PROGRAM * SEWARD (Integral evaluation for generally contracted gaussian basis sets)     Author: Roland Lindh, 1990

 Geometry written to block  1 of record 700


 Point group  C1  



 ATOMIC COORDINATES

 NR  ATOM    CHARGE       X              Y              Z

   1  N       7.00   -5.227426537   -0.186080800   -0.000378919
   2  H       1.00   -6.298614504    0.230087724   -1.531472867
   3  H       1.00   -3.754878982    1.059950713   -0.000009845
   4  H       1.00   -6.299002208    0.229638935    1.530565646
   5  H       1.00   -0.924939064   -2.399216754    0.004443959
   6  H       1.00    1.882709010   -3.424918865   -1.666618193
   7  H       1.00    1.881276334   -3.442975259    1.666708640
   8  C       6.00    1.135570480   -2.469642394    0.004947978
   9  N       7.00    2.266440020    0.097985680   -0.004244370
  10  O       8.00    0.702983942    1.782228029   -0.003942029

 Bond lengths in Bohr (Angstrom)

 1-2  1.914389871  1-3  1.928987032  1-4  1.914389871  5-8  2.061712784  6-8  2.065164058
     ( 1.013051489)     ( 1.020775974)     ( 1.013051489)     ( 1.091011417)     ( 1.092837752)

  7- 8  2.065164058   8- 9  2.805648649   9-10  2.298057286
       ( 1.092837752)       ( 1.484685321)       ( 1.216079541)

 Bond angles

  2-1-3  106.67095378   2-1-4  106.21107417   3-1-4  106.67095380   5-8-6  112.15870610

  5-8-7  112.15870103   5-8-9  111.81259324   6-8-7  107.61715626   6-8-9  105.95305143

  7- 8- 9  106.76333339   8- 9-10  113.35946296

 NUCLEAR CHARGE:                   34
 NUMBER OF PRIMITIVE AOS:         150
 NUMBER OF SYMMETRY AOS:          146
 NUMBER OF CONTRACTIONS:           86   (  86A   )
 NUMBER OF CORE ORBITALS:           4   (   4A   )
 NUMBER OF VALENCE ORBITALS:       22   (  22A   )


 NUCLEAR REPULSION ENERGY  117.37865619


 Eigenvalues of metric

         1 0.629E-02 0.972E-02 0.152E-01 0.180E-01 0.298E-01 0.370E-01 0.392E-01 0.405E-01


 Contracted 2-electron integrals neglected if value below      1.0D-16
 AO integral compression algorithm  1   Integral accuracy      1.0D-16

     52.953 MB (compressed) written to integral file ( 82.4%)

     Node minimum: 52.953 MB, node maximum: 52.953 MB


 NUMBER OF SORTED TWO-ELECTRON INTEGRALS:    6999411.     BUFFER LENGTH:  32768
 NUMBER OF SEGMENTS:   1  SEGMENT LENGTH:    6999411      RECORD LENGTH: 524288

 Memory used in sort:       7.56 MW

 SORT1 READ     8004583. AND WROTE     6871275. INTEGRALS IN     20 RECORDS. CPU TIME:     0.07 SEC, REAL TIME:     0.11 SEC
 SORT2 READ     6871275. AND WROTE     6999411. INTEGRALS IN    202 RECORDS. CPU TIME:     0.07 SEC, REAL TIME:     0.11 SEC

 FILE SIZES:   FILE 1:    48.6 MBYTE,  FILE 4:    83.9 MBYTE,   TOTAL:    132.5 MBYTE

 OPERATOR DM      FOR CENTER  0  COORDINATES:    0.000000    0.000000    0.000000


 **********************************************************************************************************************************
 DATASETS  * FILE   NREC   LENGTH (MB)   RECORD NAMES
              1      19       48.68       500      610      700      900      950      970     1000      129      960     1100   
                                          VAR    BASINP    GEOM    SYMINP    ZMAT    AOBASIS   BASIS     P2S    ABASIS      S 
                                         1400     1410     1200     1210     1080     1600     1650     1300     1700   
                                           T        V       H0       H01     AOSYM     SMH    MOLCAS    ERIS     OPER   

 PROGRAMS   *        TOTAL       INT
 CPU TIMES  *         0.76      0.72
 REAL TIME  *         1.05 SEC
 DISK USED  *       186.24 MB      
 GA USED    *         0.00 MB       (max)       0.00 MB       (current)
 **********************************************************************************************************************************

1PROGRAM * RHF-SCF (CLOSED SHELL)       Authors: W. Meyer, H.-J. Werner


 NUMBER OF ELECTRONS:      17+   17-    SPACE SYMMETRY=1    SPIN SYMMETRY: Singlet 
 CONVERGENCE THRESHOLDS:    1.00E-10 (Density)    1.00E-13 (Energy)
 MAX. NUMBER OF ITERATIONS:      200
 INTERPOLATION TYPE:            DIIS
 INTERPOLATION STEPS:              2 (START)      1 (STEP)
 LEVEL SHIFTS:                  0.00 (CLOSED)  0.00 (OPEN) 



 Orbital guess generated from atomic densities. Full valence occupancy:   26

 Molecular orbital dump at record        2100.2

 ITERATION    DDIFF          GRAD             ENERGY        2-EL.EN.            DIPOLE MOMENTS         DIIS
    1      0.000D+00      0.000D+00      -224.94599785    393.764066    0.11059   -0.56880    0.00097    0
    2      0.000D+00      0.101D-01      -225.00728623    393.223803   -0.58903   -0.30303    0.00387    1
    3      0.189D-01      0.693D-02      -225.03991502    393.738702   -0.24659   -0.51412    0.00315    2
    4      0.825D-02      0.139D-02      -225.04207739    393.630155   -0.32587   -0.42235    0.00328    3
    5      0.216D-02      0.531D-03      -225.04245433    393.626434   -0.32753   -0.44901    0.00338    4
    6      0.908D-03      0.129D-03      -225.04249089    393.648766   -0.33247   -0.44719    0.00340    5
    7      0.304D-03      0.512D-04      -225.04249670    393.636558   -0.33409   -0.44740    0.00340    6
    8      0.124D-03      0.198D-04      -225.04249755    393.642121   -0.33487   -0.44737    0.00340    7
    9      0.434D-04      0.827D-05      -225.04249772    393.640780   -0.33505   -0.44707    0.00340    8
   10      0.226D-04      0.230D-05      -225.04249774    393.640601   -0.33511   -0.44691    0.00340    8
   11      0.658D-05      0.694D-06      -225.04249774    393.640652   -0.33512   -0.44684    0.00340    8
   12      0.187D-05      0.222D-06      -225.04249774    393.640615   -0.33513   -0.44682    0.00340    8
   13      0.758D-06      0.735D-07      -225.04249774    393.640609   -0.33513   -0.44681    0.00340    8
   14      0.187D-06      0.398D-07      -225.04249774    393.640610   -0.33513   -0.44681    0.00340    8
   15      0.105D-06      0.172D-07      -225.04249774    393.640610   -0.33513   -0.44681    0.00340    8
   16      0.435D-07      0.128D-07      -225.04249774    393.640610   -0.33513   -0.44681    0.00340    8
   17      0.718D-07      0.748D-08      -225.04249774    393.640611   -0.33513   -0.44681    0.00341    9
   18      0.738D-07      0.173D-08      -225.04249774    393.640610   -0.33513   -0.44681    0.00341    9
   19      0.107D-07      0.570D-09      -225.04249774    393.640610   -0.33513   -0.44681    0.00341    9
   20      0.181D-08      0.164D-09      -225.04249774    393.640610   -0.33513   -0.44681    0.00341    9
   21      0.405D-09      0.415D-10      -225.04249774    393.640610   -0.33513   -0.44681    0.00341    9
   22      0.115D-09      0.159D-10      -225.04249774    393.640610   -0.33513   -0.44681    0.00341    9
   23      0.358D-10      0.655D-11      -225.04249774    393.640610   -0.33513   -0.44681    0.00341    0

 Final occupancy:  17

 !RHF STATE 1.1 Energy               -225.042497739235
 Nuclear energy                       117.37865619
 One-electron energy                 -539.24145909
 Two-electron energy                  196.82030516
 Virial quotient                       -1.00156547
 !RHF STATE 1.1 Dipole moment          -0.33512904    -0.44681357     0.00340517
 Dipole moment /Debye                  -0.85175727    -1.13561244     0.00865450

 Orbital energies:

         1.1          2.1          3.1          4.1          5.1          6.1          7.1          8.1          9.1         10.1
    -20.626115   -15.699166   -15.537203   -11.265858    -1.506826    -1.130621    -1.070145    -0.855468    -0.684733    -0.667712

        11.1         12.1         13.1         14.1         15.1         16.1         17.1         18.1         19.1
     -0.630952    -0.615814    -0.612920    -0.550672    -0.527850    -0.420062    -0.398308     0.109445     0.187103


 **********************************************************************************************************************************
 DATASETS  * FILE   NREC   LENGTH (MB)   RECORD NAMES
              1      19       48.68       500      610      700      900      950      970     1000      129      960     1100   
                                          VAR    BASINP    GEOM    SYMINP    ZMAT    AOBASIS   BASIS     P2S    ABASIS      S 
                                         1400     1410     1200     1210     1080     1600     1650     1300     1700   
                                           T        V       H0       H01     AOSYM     SMH    MOLCAS    ERIS     OPER   

              2       3        0.57       700     1000     2100   
                                         GEOM     BASIS     RHF  

 PROGRAMS   *        TOTAL       RHF       INT
 CPU TIMES  *         1.83      1.07      0.72
 REAL TIME  *         2.26 SEC
 DISK USED  *       186.24 MB      
 GA USED    *         0.00 MB       (max)       0.00 MB       (current)
 **********************************************************************************************************************************


1PROGRAM * CCSD (Closed-shell coupled cluster)     Authors: C. Hampel, H.-J. Werner, 1991, M. Deegan, P.J. Knowles, 1992


 Convergence thresholds:  THRVAR = 1.00D-08  THRDEN = 1.00D-12

 CCSD(T)     terms to be evaluated (factor= 1.000)


 Number of core orbitals:           4 (   4 )
 Number of closed-shell orbitals:  13 (  13 )
 Number of external orbitals:      69 (  69 )

 Molecular orbitals read from record     2100.2  Type=RHF/CANONICAL (state 1.1)

 Number of N-1 electron functions:              13
 Number of N-2 electron functions:              91
 Number of singly external CSFs:               897
 Number of doubly external CSFs:            402753
 Total number of CSFs:                      403651

 Length of J-op  integral file:               0.00 MB
 Length of K-op  integral file:               0.54 MB
 Length of 3-ext integral record:             0.00 MB

 Memory could be reduced to 6.46 Mwords without degradation in triples

 Integral transformation finished. Total CPU:   0.26 sec, npass=  1  Memory used:   5.81 MW

 Reference energy:                   -225.04249774

 MP2 singlet pair energy:              -0.42990036
 MP2 triplet pair energy:              -0.25006491
 MP2 correlation energy:               -0.67996527
 MP2 total energy:                   -225.72246301

 SCS-MP2 correlation energy:           -0.67147637   (PS=  1.200000  PT=  0.333333)
 SCS-MP2 total energy:               -225.71397411

 ITER.      SQ.NORM     CORR.ENERGY   TOTAL ENERGY   ENERGY CHANGE        DEN1      VAR(S)    VAR(P)  DIIS     TIME
   1      1.22680988    -0.71575470  -225.75825244    -0.03578943    -0.01323639  0.44D-02  0.46D-02  1  1     0.93
   2      1.24749250    -0.71906480  -225.76156254    -0.00331010    -0.02058334  0.13D-03  0.82D-03  2  2     1.61
   3      1.25646317    -0.71975279  -225.76225053    -0.00068798    -0.00431110  0.10D-03  0.59D-04  3  3     2.29
   4      1.26019016    -0.71974365  -225.76224139     0.00000914    -0.00126905  0.77D-05  0.10D-04  4  4     2.98
   5      1.26162403    -0.71976329  -225.76226103    -0.00001964    -0.00032501  0.14D-05  0.17D-05  5  5     3.66
   6      1.26202358    -0.71973561  -225.76223335     0.00002768    -0.00004703  0.78D-07  0.36D-06  6  6     4.35
   7      1.26211399    -0.71973378  -225.76223152     0.00000184    -0.00000210  0.20D-07  0.96D-07  6  2     5.03
   8      1.26213640    -0.71973386  -225.76223159    -0.00000008     0.00000226  0.87D-08  0.24D-07  6  5     5.72
   9      1.26213162    -0.71973472  -225.76223246    -0.00000087     0.00000162  0.17D-08  0.27D-08  6  1     6.40
  10      1.26213156    -0.71973499  -225.76223273    -0.00000027    -0.00000145  0.40D-09  0.30D-09  6  3     7.09
  11      1.26213005    -0.71973526  -225.76223299    -0.00000027     0.00000087  0.81D-10  0.49D-10  6  4     7.77
  12      1.26212931    -0.71973532  -225.76223306    -0.00000006     0.00000022  0.22D-10  0.11D-10  6  6     8.46
  13      1.26212857    -0.71973535  -225.76223309    -0.00000003     0.00000017  0.57D-11  0.19D-11  6  2     9.14
  14      1.26212819    -0.71973537  -225.76223311    -0.00000002     0.00000013  0.24D-11  0.63D-12  6  1     9.82
  15      1.26212791    -0.71973538  -225.76223312    -0.00000001     0.00000006  0.12D-11  0.17D-12  6  5    10.51
  16      1.26212783    -0.71973539  -225.76223312    -0.00000001     0.00000001  0.83D-12  0.10D-12  6  3    11.19
  17      1.26212778    -0.71973539  -225.76223313    -0.00000000     0.00000001  0.33D-12  0.47D-13  6  6    11.88
  18      1.26212778    -0.71973539  -225.76223313     0.00000000    -0.00000001  0.96D-13  0.23D-13  6  4    12.56
  19      1.26212780    -0.71973539  -225.76223313     0.00000000    -0.00000000  0.22D-13  0.12D-13  6  2    13.24
  20      1.26212782    -0.71973539  -225.76223312     0.00000000    -0.00000000  0.38D-14  0.42D-14  6  1    13.93
  21      1.26212782    -0.71973539  -225.76223312    -0.00000000    -0.00000000  0.63D-15  0.11D-14  6  5    14.61
  22      1.26212783    -0.71973539  -225.76223312     0.00000000    -0.00000000  0.79D-16  0.21D-15  6  2    15.29
  23      1.26212783    -0.71973539  -225.76223312     0.00000000    -0.00000000  0.97D-17  0.17D-16  6  3    15.97
  24      1.26212783    -0.71973539  -225.76223312     0.00000000    -0.00000000  0.29D-17  0.29D-17  6  6    16.66
  25      1.26212783    -0.71973539  -225.76223312     0.00000000    -0.00000000  0.14D-17  0.64D-18  6  4    17.34
  26      1.26212783    -0.71973539  -225.76223312     0.00000000    -0.00000000  0.43D-18  0.16D-18  6  2    18.02
  27      1.26212783    -0.71973539  -225.76223312    -0.00000000    -0.00000000  0.84D-19  0.40D-19  6  1    18.70
  28      1.26212783    -0.71973539  -225.76223312     0.00000000    -0.00000000  0.16D-19  0.55D-20  6  5    19.39
  29      1.26212783    -0.71973539  -225.76223312     0.00000000     0.00000000  0.50D-20  0.17D-20  6  3    20.07
  30      1.26212783    -0.71973539  -225.76223312    -0.00000000    -0.00000000  0.12D-20  0.59D-21  6  4    20.75

 Norm of t1 vector:      0.10010360      S-energy:    -0.00000000      T1 diagnostic:  0.01388187
                                                                       D1 diagnostic:  0.05076691

 Doubles amplitudes (print threshold =  0.500E-01):

         I         J         SYM. A    SYM. B    A         B      T(IJ, AB)

         7         7         1         1         1         1     -0.06082636
        11         7         1         1         1         1     -0.06595641
        11        11         1         1         1         1     -0.09632035


 Total CPU time for triples:      6.18 sec


 RESULTS
 =======

  Reference energy                   -225.042497739235
  CCSD singlet pair energy             -0.499045810914
  CCSD triplet pair energy             -0.220689574124
  CCSD correlation energy              -0.719735385041

  Triples (T) contribution             -0.021673261014
  Total correlation energy             -0.741408646055

  CCSD total energy                  -225.762233124275
  CCSD[T] energy                     -225.785281488924
  CCSD-T energy                      -225.783503012274
 !CCSD(T) total energy               -225.783906385289

 Timing summary (sec):

 STEP                 CPU(USER)    SYS     CPU(TOT)    WALL
 Transformation          0.27      0.04      0.31      0.30
 CCSD iterations        20.48      0.67     21.15     21.21
 Triples                 6.18      0.16      6.34      6.35

 Program statistics:

 Available memory in ccsd:               999999224
 Min. memory needed in ccsd:               1143606
 Max. memory used in ccsd:                 1480488
 Max. memory used in cckext:               1471436 (30 integral passes)



 **********************************************************************************************************************************
 DATASETS  * FILE   NREC   LENGTH (MB)   RECORD NAMES
              1      20       74.30       500      610      700      900      950      970     1000      129      960     1100   
                                          VAR    BASINP    GEOM    SYMINP    ZMAT    AOBASIS   BASIS     P2S    ABASIS      S 
                                         1400     1410     1200     1210     1080     1600     1650     1300     1700     1380   
                                           T        V       H0       H01     AOSYM     SMH    MOLCAS    ERIS     OPER     JKOP   

              2       3        0.57       700     1000     2100   
                                         GEOM     BASIS     RHF  

 PROGRAMS   *        TOTAL   CCSD(T)       RHF       INT
 CPU TIMES  *        28.77     26.94      1.07      0.72
 REAL TIME  *        30.14 SEC
 DISK USED  *       198.88 MB      
 GA USED    *         0.00 MB       (max)       0.00 MB       (current)
 **********************************************************************************************************************************

        CCSD(T)         RHF-SCF 
   -225.78390639   -225.04249774
 **********************************************************************************************************************************
 Variable memory released
