
 Primary working directories    : /tmp/1011203.373.gen6.q
 Secondary working directories  : /tmp/1011203.373.gen6.q
 Wavefunction directory         : /home/vulcan/mel64643/wfu/
 Main file repository           : /tmp/1011203.373.gen6.q/

 ARCHNAME  : Linux/x86_64
 FC        : /opt/intel/compilers_and_libraries_2016.1.150/linux/bin/intel64/ifort
 FCVERSION : 16.0.1
 BLASLIB   : -mkl
 id        : ccgc

 Nodes     nprocs
 n088         1
 ga_uses_ma=false, calling ma_init with nominal heap.
 GA-space will be limited to   8.0 MW (determined by -G option)

 Using customized tuning parameters: mindgm=10; mindgv=16; mindgc=4; mindgr=1; noblas=0; mincuda=1000; minvec=7
 default implementation of scratch files=df  

 ***,Optimization of c2h4_2
 memory,1000,m
 gthresh,energy=1.0d-12,orbital=1.0d-10,oneint=1.0d-16,twoint=1.0d-16,optgrad=1.0d-6,compress=1.0d-13
 geomtyp=xyz
 
 
 
 bohr
 geometry = {
  C   -1.2642076681   -0.0031085381   -3.4910070098
  C    1.2651078250   -0.0031087224   -3.4919739483
  H   -2.3335700683    0.0028876146   -1.7472614026
  H    2.3358031552    0.0028872744   -1.7490464692
  H   -2.3292787851    0.0015666301   -5.2365997516
  H    2.3288439773    0.0015662907   -5.2383805172
  C    0.0031195192    1.2642088918    3.4909853287
  C    0.0031197033   -1.2651064207    3.4919487656
  H   -0.0028997776    2.3372720375    1.7412148379
  H   -0.0028994373   -2.3395022594    1.7429962594
  H   -0.0015693915    2.3329593061    5.2426164316
  H   -0.0015690521   -2.3325221045    5.2443935515
 }
 
 basis=aug-cc-pvdz, H=cc-pvdz
 {rhf;maxit,200}
 {mp2}

 Variables initialized (661), CPU time= 0.00 sec
 Commands  initialized (458), CPU time= 0.01 sec, 486 directives.
 Default parameters read. Elapsed time= 0.05 sec

 Checking input...
 Passed
1


                                         ***  PROGRAM SYSTEM MOLPRO  ***
                         Copyright, University College Cardiff Consultants Limited, 2008

                                    Version 2010.1 linked May 16 2016 07:17:05


 **********************************************************************************************************************************
 LABEL *   Optimization of c2h4_2                                                        
 Linux-4.4.3/n088(x86_64) 64 bit mpp version                                             DATE: 25-Feb-24          TIME: 14:35:22  
 **********************************************************************************************************************************

 SHA1:             9e8077add272b0f3cad6f7df79ec5211205f459d
 **********************************************************************************************************************************

 THRESHOLDS:

 ZERO    =  1.00D-12  ONEINT  =  1.00D-16  TWOINT  =  1.00D-16  PREFAC  =  1.00D-14  LOCALI  =  1.00D-09  EORDER  =  1.00D-04
 ENERGY  =  1.00D-12  ETEST   =  0.00D+00  EDENS   =  0.00D+00  THRDEDEF=  1.00D-06  GRADIENT=  1.00D-02  STEP    =  1.00D-03
 ORBITAL =  1.00D-10  CIVEC   =  1.00D-05  COEFF   =  1.00D-04  PRINTCI =  5.00D-02  PUNCHCI =  9.90D+01  OPTGRAD =  1.00D-06
 OPTENERG=  1.00D-06  OPTSTEP =  3.00D-04  THRGRAD =  1.00D-10  COMPRESS=  1.00D-13  VARMIN  =  1.00D-07  VARMAX  =  1.00D-03
 THRDOUB =  0.00D+00  THRDIV  =  1.00D-05  THRRED  =  1.00D-07  THRPSP  =  1.00D+00  THRDC   =  1.00D-10  THRCS   =  1.00D-10
 THRNRM  =  1.00D-08  THREQ   =  0.00D+00  THRDE   =  1.00D+00  THRREF  =  1.00D-05  SPARFAC =  1.00D+00  THRDLP  =  1.00D-07
 THRDIA  =  1.00D-10  THRDLS  =  1.00D-07  THRGPS  =  0.00D+00  THRKEX  =  0.00D+00  THRDIS  =  2.00D-01  THRVAR  =  1.00D-10
 THRLOC  =  1.00D-06  THRGAP  =  1.00D-06  THRLOCT = -1.00D+00  THRGAPT = -1.00D+00  THRORB  =  1.00D-06  THRMLTP =  0.00D+00
 THRCPQCI=  1.00D-10  KEXTA   =  0.00D+00  THRCOARS=  0.00D+00  SYMTOL  =  1.00D-06  GRADTOL =  1.00D-06  THROVL  =  1.00D-08
 THRORTH =  1.00D-08  GRID    =  1.00D-06  GRIDMAX =  1.00D-03  DTMAX   =  0.00D+00

 SETTING GEOMTYP        =    XYZ
 ZUNIT=BOHR
 

 Variable memory set to 1000000000 words,  buffer space   230000 words

 SETTING BASIS          =    AUG-CC-PVDZ,H=CC-PVDZ


 Recomputing integrals since basis changed


 Using spherical harmonics

 Library entry C      S aug-cc-pVDZ          selected for orbital group  1
 Library entry C      P aug-cc-pVDZ          selected for orbital group  1
 Library entry C      D aug-cc-pVDZ          selected for orbital group  1
 Library entry H      S cc-pVDZ              selected for orbital group  2
 Library entry H      P cc-pVDZ              selected for orbital group  2

1PROGRAM * SEWARD (Integral evaluation for generally contracted gaussian basis sets)     Author: Roland Lindh, 1990

 Geometry written to block  1 of record 700


 Point group  C1  



 ATOMIC COORDINATES

 NR  ATOM    CHARGE       X              Y              Z

   1  C       6.00   -1.264207668   -0.003108538   -3.491007010
   2  C       6.00    1.265107825   -0.003108722   -3.491973948
   3  H       1.00   -2.333570068    0.002887615   -1.747261403
   4  H       1.00    2.335803155    0.002887274   -1.749046469
   5  H       1.00   -2.329278785    0.001566630   -5.236599752
   6  H       1.00    2.328843977    0.001566291   -5.238380517
   7  C       6.00    0.003119519    1.264208892    3.490985329
   8  C       6.00    0.003119703   -1.265106421    3.491948766
   9  H       1.00   -0.002899778    2.337272038    1.741214838
  10  H       1.00   -0.002899437   -2.339502259    1.742996259
  11  H       1.00   -0.001569392    2.332959306    5.242616432
  12  H       1.00   -0.001569052   -2.332522105    5.244393551

 Bond lengths in Bohr (Angstrom)

 1-2  2.529315678  1-3  2.045536761  1-5  2.044869766  2-4  2.045536761  2-6  2.044869766
     ( 1.338456211)     ( 1.082451434)     ( 1.082098476)     ( 1.082451434)     ( 1.082098476)

  7- 8  2.529315496   7- 9  2.052607492   7-11  2.051940778   8-10  2.052607492   8-12  2.051940777
       ( 1.338456115)       ( 1.086193104)       ( 1.085840294)       ( 1.086193104)       ( 1.085840294)

 Bond angles

  1-2-4  121.54070878   1-2-6  121.36740439   2-1-3  121.54070878   2-1-5  121.36740439

  3- 1- 5  117.09101064   4- 2- 6  117.09101064   7- 8-10  121.54077091   7- 8-12  121.36736461

  8- 7- 9  121.54077091   8- 7-11  121.36736461   9- 7-11  117.09098829  10- 8-12  117.09098829

 NUCLEAR CHARGE:                   32
 NUMBER OF PRIMITIVE AOS:         204
 NUMBER OF SYMMETRY AOS:          196
 NUMBER OF CONTRACTIONS:          132   ( 132A   )
 NUMBER OF CORE ORBITALS:           4   (   4A   )
 NUMBER OF VALENCE ORBITALS:       24   (  24A   )


 NUCLEAR REPULSION ENERGY  102.22436712


 Eigenvalues of metric

         1 0.173E-03 0.173E-03 0.331E-03 0.332E-03 0.552E-02 0.554E-02 0.588E-02 0.672E-02


 Contracted 2-electron integrals neglected if value below      1.0D-16
 AO integral compression algorithm  1   Integral accuracy      1.0D-16

     321.651 MB (compressed) written to integral file ( 91.6%)

     Node minimum: 321.651 MB, node maximum: 321.651 MB


 NUMBER OF SORTED TWO-ELECTRON INTEGRALS:   38531031.     BUFFER LENGTH:  32768
 NUMBER OF SEGMENTS:   3  SEGMENT LENGTH:   15998004      RECORD LENGTH: 524288

 Memory used in sort:      16.56 MW

 SORT1 READ    43892337. AND WROTE    37999000. INTEGRALS IN    110 RECORDS. CPU TIME:     0.38 SEC, REAL TIME:     0.60 SEC
 SORT2 READ    37999000. AND WROTE    38531031. INTEGRALS IN   1227 RECORDS. CPU TIME:     0.31 SEC, REAL TIME:     0.47 SEC

 FILE SIZES:   FILE 1:   286.9 MBYTE,  FILE 4:   461.4 MBYTE,   TOTAL:    748.3 MBYTE

 OPERATOR DM      FOR CENTER  0  COORDINATES:    0.000000    0.000000    0.000000


 **********************************************************************************************************************************
 DATASETS  * FILE   NREC   LENGTH (MB)   RECORD NAMES
              1      19      287.08       500      610      700      900      950      970     1000      129      960     1100   
                                          VAR    BASINP    GEOM    SYMINP    ZMAT    AOBASIS   BASIS     P2S    ABASIS      S 
                                         1400     1410     1200     1210     1080     1600     1650     1300     1700   
                                           T        V       H0       H01     AOSYM     SMH    MOLCAS    ERIS     OPER   

 PROGRAMS   *        TOTAL       INT
 CPU TIMES  *         2.45      2.42
 REAL TIME  *         3.20 SEC
 DISK USED  *         1.07 GB      
 GA USED    *         0.00 MB       (max)       0.00 MB       (current)
 **********************************************************************************************************************************

1PROGRAM * RHF-SCF (CLOSED SHELL)       Authors: W. Meyer, H.-J. Werner


 NUMBER OF ELECTRONS:      16+   16-    SPACE SYMMETRY=1    SPIN SYMMETRY: Singlet 
 CONVERGENCE THRESHOLDS:    1.00E-10 (Density)    1.00E-13 (Energy)
 MAX. NUMBER OF ITERATIONS:      200
 INTERPOLATION TYPE:            DIIS
 INTERPOLATION STEPS:              2 (START)      1 (STEP)
 LEVEL SHIFTS:                  0.00 (CLOSED)  0.00 (OPEN) 



 Orbital guess generated from atomic densities. Full valence occupancy:   28

 Molecular orbital dump at record        2100.2

 ITERATION    DDIFF          GRAD             ENERGY        2-EL.EN.            DIPOLE MOMENTS         DIIS
    1      0.000D+00      0.000D+00      -156.03859479    307.072269   -0.00298    0.00296    0.00008    0
    2      0.000D+00      0.347D-02      -156.07903086    304.340001   -0.00270    0.00270   -0.00027    1
    3      0.713D-02      0.117D-02      -156.08309023    305.463947   -0.00314    0.00313   -0.00026    2
    4      0.225D-02      0.354D-03      -156.08366038    305.177107   -0.00310    0.00310   -0.00029    3
    5      0.796D-03      0.441D-04      -156.08367120    305.191675   -0.00315    0.00314   -0.00030    4
    6      0.111D-03      0.712D-05      -156.08367161    305.190114   -0.00313    0.00312   -0.00029    5
    7      0.188D-04      0.171D-05      -156.08367163    305.190096   -0.00314    0.00314   -0.00029    6
    8      0.515D-05      0.293D-06      -156.08367163    305.190107   -0.00313    0.00312   -0.00029    6
    9      0.833D-06      0.936D-07      -156.08367163    305.190108   -0.00314    0.00313   -0.00029    6
   10      0.205D-06      0.230D-07      -156.08367163    305.190109   -0.00314    0.00313   -0.00029    6
   11      0.525D-07      0.633D-08      -156.08367163    305.190110   -0.00314    0.00313   -0.00029    6
   12      0.126D-07      0.130D-08      -156.08367163    305.190110   -0.00314    0.00313   -0.00029    7
   13      0.384D-08      0.340D-09      -156.08367163    305.190110   -0.00314    0.00313   -0.00029    7
   14      0.833D-09      0.109D-09      -156.08367163    305.190110   -0.00314    0.00313   -0.00029    7
   15      0.260D-09      0.382D-10      -156.08367163    305.190110   -0.00314    0.00313   -0.00029    7
   16      0.114D-09      0.151D-10      -156.08367163    305.190110   -0.00314    0.00313   -0.00029    7
   17      0.464D-10      0.393D-11      -156.08367163    305.190110   -0.00314    0.00313   -0.00029    7
   18      0.160D-10      0.945D-12      -156.08367163    305.190110   -0.00314    0.00313   -0.00029    0

 Final occupancy:  16

 !RHF STATE 1.1 Energy               -156.083671633712
 Nuclear energy                       102.22436712
 One-electron energy                 -410.90309369
 Two-electron energy                  152.59505493
 Virial quotient                       -1.00199331
 !RHF STATE 1.1 Dipole moment          -0.00313584     0.00312939    -0.00029334
 Dipole moment /Debye                  -0.00796998     0.00795360    -0.00074556

 Orbital energies:

         1.1          2.1          3.1          4.1          5.1          6.1          7.1          8.1          9.1         10.1
    -11.242212   -11.241347   -11.240594   -11.239729    -1.038672    -1.032821    -0.795545    -0.794018    -0.656826    -0.631272

        11.1         12.1         13.1         14.1         15.1         16.1         17.1         18.1
     -0.588299    -0.584950    -0.509353    -0.508182    -0.376387    -0.376285     0.069011     0.069019


 **********************************************************************************************************************************
 DATASETS  * FILE   NREC   LENGTH (MB)   RECORD NAMES
              1      19      287.08       500      610      700      900      950      970     1000      129      960     1100   
                                          VAR    BASINP    GEOM    SYMINP    ZMAT    AOBASIS   BASIS     P2S    ABASIS      S 
                                         1400     1410     1200     1210     1080     1600     1650     1300     1700   
                                           T        V       H0       H01     AOSYM     SMH    MOLCAS    ERIS     OPER   

              2       3        0.81       700     1000     2100   
                                         GEOM     BASIS     RHF  

 PROGRAMS   *        TOTAL       RHF       INT
 CPU TIMES  *         7.19      4.74      2.42
 REAL TIME  *         8.44 SEC
 DISK USED  *         1.07 GB      
 GA USED    *         0.00 MB       (max)       0.00 MB       (current)
 **********************************************************************************************************************************


1PROGRAM * MP2 (Closed-shell)     Authors: C. Hampel, H.-J. Werner, 1991, M. Deegan, P.J. Knowles, 1992


 Convergence thresholds:  THRVAR = 1.00D-08  THRDEN = 1.00D-12

 Number of core orbitals:           4 (   4 )
 Number of closed-shell orbitals:  12 (  12 )
 Number of external orbitals:     116 ( 116 )

 Molecular orbitals read from record     2100.2  Type=RHF/CANONICAL (state 1.1)

 Number of N-1 electron functions:              12
 Number of N-2 electron functions:              78
 Number of singly external CSFs:              1392
 Number of doubly external CSFs:            969528
 Total number of CSFs:                      970921

 Length of J-op  integral file:               0.00 MB
 Length of K-op  integral file:               1.24 MB

 Integral transformation finished. Total CPU:   0.53 sec, npass=  1  Memory used:   2.65 MW

 Memory needed for MP2:                      0.08 MW

 SCS-MP2 correlation energy:           -0.573944979666   (PS=  1.200000  PT=  0.333333)
 SCS-MP2 total energy:               -156.657616613379


  Reference energy                   -156.083671633713
  MP2 singlet pair energy              -0.379790636936
  MP2 triplet pair energy              -0.189958203230
  MP2 correlation energy               -0.569748840166

 !MP2 total energy                   -156.653420473879


 **********************************************************************************************************************************
 DATASETS  * FILE   NREC   LENGTH (MB)   RECORD NAMES
              1      20      303.79       500      610      700      900      950      970     1000      129      960     1100   
                                          VAR    BASINP    GEOM    SYMINP    ZMAT    AOBASIS   BASIS     P2S    ABASIS      S 
                                         1400     1410     1200     1210     1080     1600     1650     1300     1700     1380   
                                           T        V       H0       H01     AOSYM     SMH    MOLCAS    ERIS     OPER     JKOP   

              2       3        0.81       700     1000     2100   
                                         GEOM     BASIS     RHF  

 PROGRAMS   *        TOTAL       MP2       RHF       INT
 CPU TIMES  *         7.78      0.59      4.74      2.42
 REAL TIME  *         9.10 SEC
 DISK USED  *         1.07 GB      
 GA USED    *         0.00 MB       (max)       0.00 MB       (current)
 **********************************************************************************************************************************

        MP2             RHF-SCF 
   -156.65342047   -156.08367163
 **********************************************************************************************************************************
 Variable memory released
