
    -----------------------------------------------------------------------
          Psi4: An Open-Source Ab Initio Electronic Structure Package
                               Psi4 1.4a2.dev629 

                         Git: Rev {master} 2938fc2 dirty


    D. G. A. Smith, L. A. Burns, A. C. Simmonett, R. M. Parrish,
    M. C. Schieber, R. Galvelis, P. Kraus, H. Kruse, R. Di Remigio,
    A. Alenaizan, A. M. James, S. Lehtola, J. P. Misiewicz, M. Scheurer,
    R. A. Shaw, J. B. Schriber, Y. Xie, Z. L. Glick, D. A. Sirianni,
    J. S. O'Brien, J. M. Waldrop, A. Kumar, E. G. Hohenstein,
    B. P. Pritchard, B. R. Brooks, H. F. Schaefer III, A. Yu. Sokolov,
    K. Patkowski, A. E. DePrince III, U. Bozkaya, R. A. King,
    F. A. Evangelista, J. M. Turney, T. D. Crawford, C. D. Sherrill,
    J. Chem. Phys. 152(18) 184108 (2020). https://doi.org/10.1063/5.0006002

                            Additional Code Authors
    E. T. Seidl, C. L. Janssen, E. F. Valeev, M. L. Leininger,
    J. F. Gonthier, R. M. Richard, H. R. McAlexander, M. Saitow, X. Wang,
    P. Verma, and M. H. Lechner

             Previous Authors, Complete List of Code Contributors,
                       and Citations for Specific Modules
    https://github.com/psi4/psi4/blob/master/codemeta.json
    https://github.com/psi4/psi4/graphs/contributors
    http://psicode.org/psi4manual/master/introduction.html#citing-psifour

    -----------------------------------------------------------------------


    Psi4 started on: Thursday, 06 January 2022 09:36AM

    Process ID: 25650
    Host:       n081
    PSIDATADIR: /opt/psi/4/master/share/psi4
    Memory:     500.0 MiB
    Threads:    4
    
  ==> Input File <==

--------------------------------------------------------------------------
import os
memory 14 GB 
 
molecule {
 C    0.0000007058    0.8909735701    0.0000000000
 H    0.0000008801    2.9401902069   -0.0000000000
 Cl   -3.1836312459   -0.1296082075   -0.0000000000
 Cl    1.5918154888   -0.1296074838   -2.7571061089
 Cl    1.5918154888   -0.1296074838    2.7571061089
units bohr
}

basis {

assign 6-31g_2dfp_

[ 6-31g_2dfp_ ]

spherical

!----------------------------------------------------------------------
! Basis Set Exchange
! Version v0.8.13
! https://www.basissetexchange.org
!----------------------------------------------------------------------
!   Basis set: 6-31G(2df,p)
! Description: 6-31G(2df,p)
!        Role: orbital
!     Version: 0  (Data from the original Basis Set Exchange)
!----------------------------------------------------------------------


****
H     0
S    3   1.00
     18.7311370              0.03349460
      2.8253937              0.23472695
      0.6401217              0.81375733
S    1   1.00
      0.1612778              1.00000000
P    1   1.00
      1.5000000              1.0000000
P    1   1.00
      0.3750000              1.0000000
****
B     0
S    6   1.00
   2068.8823000              0.0018663
    310.6495700              0.0142515
     70.6830330              0.0695516
     19.8610800              0.2325729
      6.2993048              0.4670787
      2.1270270              0.3634314
SP   3   1.00
      4.7279710             -0.1303938              0.0745976
      1.1903377             -0.1307889              0.3078467
      0.3594117              1.1309444              0.7434568
SP   1   1.00
      0.1267512              1.0000000              1.0000000
D    1   1.00
      0.8020000              1.0000000
D    1   1.00
      0.2005000              1.0000000
F    1   1.00
      0.5000000              1.0000000
****
C     0
S    6   1.00
   3047.5249000              0.0018347
    457.3695100              0.0140373
    103.9486900              0.0688426
     29.2101550              0.2321844
      9.2866630              0.4679413
      3.1639270              0.3623120
SP   3   1.00
      7.8682724             -0.1193324              0.0689991
      1.8812885             -0.1608542              0.3164240
      0.5442493              1.1434564              0.7443083
SP   1   1.00
      0.1687144              1.0000000              1.0000000
D    1   1.00
      1.2520000              1.0000000
D    1   1.00
      0.3130000              1.0000000
F    1   1.00
      0.8000000              1.0000000
****
N     0
S    6   1.00
   4173.5110000              0.0018348
    627.4579000              0.0139950
    142.9021000              0.0685870
     40.2343300              0.2322410
     12.8202100              0.4690700
      4.3904370              0.3604550
SP   3   1.00
     11.6263580             -0.1149610              0.0675800
      2.7162800             -0.1691180              0.3239070
      0.7722180              1.1458520              0.7408950
SP   1   1.00
      0.2120313              1.0000000              1.0000000
D    1   1.00
      1.8260000              1.0000000
D    1   1.00
      0.4565000              1.0000000
F    1   1.00
      1.0000000              1.0000000
****
O     0
S    6   1.00
   5484.6717000              0.0018311
    825.2349500              0.0139501
    188.0469600              0.0684451
     52.9645000              0.2327143
     16.8975700              0.4701930
      5.7996353              0.3585209
SP   3   1.00
     15.5396160             -0.1107775              0.0708743
      3.5999336             -0.1480263              0.3397528
      1.0137618              1.1307670              0.7271586
SP   1   1.00
      0.2700058              1.0000000              1.0000000
D    1   1.00
      2.5840000              1.0000000
D    1   1.00
      0.6460000              1.0000000
F    1   1.00
      1.4000000              1.0000000
****
F     0
S    6   1.00
   7001.7130900              0.0018196169
   1051.3660900              0.0139160796
    239.2856900              0.0684053245
     67.3974453              0.233185760
     21.5199573              0.471267439
      7.40310130             0.356618546
SP   3   1.00
     20.8479528             -0.108506975            0.0716287243
      4.80830834            -0.146451658            0.3459121030
      1.34406986             1.128688580            0.7224699570
SP   1   1.00
      0.358151393            1.0000000              1.0000000
D    1   1.00
      3.5000000              1.0000000
D    1   1.00
      0.8750000              1.0000000
F    1   1.00
      1.8500000              1.0000000
****
Al     0
S    6   1.00
  13983.1000000              0.00194267
   2098.7500000              0.0148599
    477.7050000              0.0728494
    134.3600000              0.2468300
     42.8709000              0.4872580
     14.5189000              0.3234960
SP   6   1.00
    239.6680000             -0.00292619             0.00460285
     57.4419000             -0.0374080              0.0331990
     18.2859000             -0.1144870              0.1362820
      6.5991400              0.1156350              0.3304760
      2.4904900              0.6125950              0.4491460
      0.9445400              0.3937990              0.2657040
SP   3   1.00
      1.2779000             -0.2276060             -0.0175130
      0.3975900              0.00144583             0.2445330
      0.1600950              1.0927900              0.8049340
SP   1   1.00
      0.0556577              1.0000000              1.0000000
D    1   1.00
      0.6500000              1.0000000
D    1   1.00
      0.1625000              1.0000000
F    1   1.00
      0.2500000              1.0000000
****
Si     0
S    6   1.00
  16115.9000000              0.00195948
   2425.5800000              0.01492880
    553.8670000              0.07284780
    156.3400000              0.24613000
     50.0683000              0.48591400
     17.0178000              0.32500200
SP   6   1.00
    292.7180000             -0.00278094             0.00443826
     69.8731000             -0.03571460             0.03266790
     22.3363000             -0.11498500             0.13472100
      8.1503900              0.09356340             0.32867800
      3.1345800              0.60301700             0.44964000
      1.2254300              0.41895900             0.26137200
SP   3   1.00
      1.7273800             -0.24463000            -0.01779510
      0.5729220              0.00431572             0.25353900
      0.2221920              1.09818000             0.80066900
SP   1   1.00
      0.0778369              1.00000000             1.00000000
D    1   1.00
      0.9000000              1.0000000
D    1   1.00
      0.2250000              1.0000000
F    1   1.00
      0.3200000              1.0000000
****
P     0
S    6   1.00
  19413.3000000              0.0018516
   2909.4200000              0.0142062
    661.3640000              0.0699995
    185.7590000              0.2400790
     59.1943000              0.4847620
     20.0310000              0.3352000
SP   6   1.00
    339.4780000             -0.00278217             0.00456462
     81.0101000             -0.0360499              0.03369360
     25.8780000             -0.1166310              0.13975500
      9.4522100              0.0968328              0.33936200
      3.6656600              0.6144180              0.45092100
      1.4674600              0.4037980              0.23858600
SP   3   1.00
      2.1562300             -0.2529230             -0.01776530
      0.7489970              0.0328517              0.27405800
      0.2831450              1.0812500              0.78542100
SP   1   1.00
      0.0998317              1.0000000              1.00000000
D    1   1.00
      1.1000000              1.0000000
D    1   1.00
      0.2750000              1.0000000
F    1   1.00
      0.4500000              1.0000000
****
S     0
S    6   1.00
  21917.1000000              0.0018690
   3301.4900000              0.0142300
    754.1460000              0.0696960
    212.7110000              0.2384870
     67.9896000              0.4833070
     23.0515000              0.3380740
SP   6   1.00
    423.7350000             -0.0023767              0.0040610
    100.7100000             -0.0316930              0.0306810
     32.1599000             -0.1133170              0.1304520
     11.8079000              0.0560900              0.3272050
      4.6311000              0.5922550              0.4528510
      1.8702500              0.4550060              0.2560420
SP   3   1.00
      2.6158400             -0.2503740             -0.0145110
      0.9221670              0.0669570              0.3102630
      0.3412870              1.0545100              0.7544830
SP   1   1.00
      0.1171670              1.0000000              1.0000000
D    1   1.00
      1.3000000              1.0000000
D    1   1.00
      0.3250000              1.0000000
F    1   1.00
      0.5500000              1.0000000
****
Cl     0
S    6   1.00
  25180.1000000              0.0018330
   3780.3500000              0.0140340
    860.4740000              0.0690970
    242.1450000              0.2374520
     77.3349000              0.4830340
     26.2470000              0.3398560
SP   6   1.00
    491.7650000             -0.0022974              0.0039894
    116.9840000             -0.0307140              0.0303180
     37.4153000             -0.1125280              0.1298800
     13.7834000              0.0450160              0.3279510
      5.4521500              0.5893530              0.4535270
      2.2258800              0.4652060              0.2521540
SP   3   1.00
      3.1864900             -0.2518300             -0.0142990
      1.1442700              0.0615890              0.3235720
      0.4203770              1.0601800              0.7435070
SP   1   1.00
      0.1426570              1.0000000              1.0000000
D    1   1.00
      1.5000000              1.0000000
D    1   1.00
      0.3750000              1.0000000
F    1   1.00
      0.7000000              1.0000000
****
}


set {
reference rhf                          
freeze_core true
e_convergence 10                       
d_convergence 10                      
dft_spherical_points 1202
dft_radial_points 99
}

e = energy('b3lyp')

print_out('Grab this energy {0}'.format(e))
--------------------------------------------------------------------------

  Memory set to  13.039 GiB by Python driver.

Scratch directory: /tmp/

*** tstart() called on n081
*** at Thu Jan  6 09:36:47 2022

   => Loading Basis Set <=

    Name: ANONYMOUSE5FE80E6
    Role: ORBITAL
    Keyword: BASIS
    atoms 1   entry C          line    48 inputblock 6-31g_2dfp_ 
    atoms 2   entry H          line    15 inputblock 6-31g_2dfp_ 
    atoms 3-5 entry CL         line   244 inputblock 6-31g_2dfp_ 


         ---------------------------------------------------------
                                   SCF
               by Justin Turney, Rob Parrish, Andy Simmonett
                          and Daniel G. A. Smith
                              RKS Reference
                        4 Threads,  13351 MiB Core
         ---------------------------------------------------------

  ==> Geometry <==

    Molecular point group: cs
    Full point group: Cs

    Geometry (in Bohr), charge = 0, multiplicity = 1:

       Center              X                  Y                   Z               Mass       
    ------------   -----------------  -----------------  -----------------  -----------------
         C            0.000000706017     0.890480162932     0.000000000000    12.000000000000
         H            0.000000880317     2.939696799732     0.000000000000     1.007825032230
         CL          -3.183631245683    -0.130101614668     0.000000000000    34.968852682000
         CL           1.591815489017    -0.130100890968    -2.757106108900    34.968852682000
         CL           1.591815489017    -0.130100890968     2.757106108900    34.968852682000

  Running in cs symmetry.

  Rotational constants: A =      0.10913  B =      0.10913  C =      0.05662 [cm^-1]
  Rotational constants: A =   3271.58539  B =   3271.58390  C =   1697.33161 [MHz]
  Nuclear repulsion =  263.218410011317360

  Charge       = 0
  Multiplicity = 1
  Electrons    = 58
  Nalpha       = 29
  Nbeta        = 29

  ==> Algorithm <==

  SCF Algorithm Type is DF.
  DIIS enabled.
  MOM disabled.
  Fractional occupation disabled.
  Guess Type is SAD.
  Energy threshold   = 1.00e-10
  Density threshold  = 1.00e-10
  Integral threshold = 0.00e+00

  ==> Primary Basis <==

  Basis Set: ANONYMOUSE5FE80E6
    Blend: 6-31G_2DFP_
    Number of shells: 42
    Number of basis function: 124
    Number of Cartesian functions: 144
    Spherical Harmonics?: true
    Max angular momentum: 3

  ==> DFT Potential <==

   => Composite Functional: B3LYP <= 

    B3LYP Hyb-GGA Exchange-Correlation Functional

    P. J. Stephens, F. J. Devlin, C. F. Chabalowski, and M. J. Frisch, J. Phys. Chem. 98, 11623 (1994)

    Deriv               =              1
    GGA                 =           TRUE
    Meta                =          FALSE

    Exchange Hybrid     =           TRUE
    MP2 Hybrid          =          FALSE

   => Exchange Functionals <=

    0.0800   Slater exchange
    0.7200         Becke 88

   => Exact (HF) Exchange <=

    0.2000               HF 

   => Correlation Functionals <=

    0.1900   Vosko, Wilk & Nusair (VWN5_RPA)
    0.8100   Lee, Yang & Parr

   => Molecular Quadrature <=

    Radial Scheme          =       TREUTLER
    Pruning Scheme         =           NONE
    Nuclear Scheme         =       TREUTLER

    BS radius alpha        =              1
    Pruning alpha          =              1
    Radial Points          =             99
    Spherical Points       =           1202
    Total Points           =         542256
    Total Blocks           =           3894
    Max Points             =            256
    Max Functions          =            121
    Weights Tolerance      =       1.00E-15

   => Loading Basis Set <=

    Name: (ANONYMOUSE5FE80E6 AUX)
    Role: JKFIT
    Keyword: DF_BASIS_SCF
    atoms 1   entry C          line   198 file /opt/psi/4/master/share/psi4/basis/def2-universal-jkfit.gbs 
    atoms 2   entry H          line    18 file /opt/psi/4/master/share/psi4/basis/def2-universal-jkfit.gbs 
    atoms 3-5 entry CL         line   986 file /opt/psi/4/master/share/psi4/basis/def2-universal-jkfit.gbs 

  ==> Integral Setup <==

  DFHelper Memory: AOs need 0.059 GiB; user supplied 8.223 GiB. Using in-core AOs.

  ==> MemDFJK: Density-Fitted J/K Matrices <==

    J tasked:                   Yes
    K tasked:                   Yes
    wK tasked:                   No
    OpenMP threads:               4
    Memory [MiB]:              8419
    Algorithm:                 Core
    Schwarz Cutoff:           1E-12
    Mask sparsity (%):       1.6259
    Fitting Condition:        1E-10

   => Auxiliary Basis Set <=

  Basis Set: (ANONYMOUSE5FE80E6 AUX)
    Blend: DEF2-UNIVERSAL-JKFIT
    Number of shells: 145
    Number of basis function: 477
    Number of Cartesian functions: 574
    Spherical Harmonics?: true
    Max angular momentum: 4

  Cached 100.0% of DFT collocation blocks in 1.556 [GiB].

  Minimum eigenvalue in the overlap matrix is 6.1804020905E-03.
  Reciprocal condition number of the overlap matrix is 1.3687016925E-03.
    Using symmetric orthogonalization.

  ==> Pre-Iterations <==

  SCF Guess: Superposition of Atomic Densities via on-the-fly atomic UHF (no occupation information).

   -------------------------
    Irrep   Nso     Nmo    
   -------------------------
     A'        73      73 
     A"        51      51 
   -------------------------
    Total     124     124
   -------------------------

  ==> Iterations <==

                           Total Energy        Delta E     RMS |[F,P]|

   @DF-RKS iter SAD: -1419.25030826109378   -1.41925e+03   0.00000e+00 
   @DF-RKS iter   1: -1419.25666897203701   -6.36071e-03   2.48172e-03 DIIS
   @DF-RKS iter   2: -1419.27163640985123   -1.49674e-02   1.77468e-03 DIIS
   @DF-RKS iter   3: -1419.28423049974731   -1.25941e-02   6.43635e-04 DIIS
   @DF-RKS iter   4: -1419.28574511914849   -1.51462e-03   1.49515e-04 DIIS
   @DF-RKS iter   5: -1419.28583197517628   -8.68560e-05   2.44734e-05 DIIS
   @DF-RKS iter   6: -1419.28583427620219   -2.30103e-06   5.64581e-06 DIIS
   @DF-RKS iter   7: -1419.28583440202442   -1.25822e-07   1.42278e-06 DIIS
   @DF-RKS iter   8: -1419.28583441036494   -8.34052e-09   1.75189e-07 DIIS
   @DF-RKS iter   9: -1419.28583441050932   -1.44382e-10   8.74526e-09 DIIS
   @DF-RKS iter  10: -1419.28583441051114   -1.81899e-12   1.02437e-09 DIIS
   @DF-RKS iter  11: -1419.28583441051023    9.09495e-13   8.76637e-11 DIIS
  Energy and wave function converged.


  ==> Post-Iterations <==

    Orbital Energies [Eh]
    ---------------------

    Doubly Occupied:                                                      

       1App -101.556416     1Ap  -101.556416     2Ap  -101.556395  
       3Ap   -10.366972     2App   -9.485705     4Ap    -9.485705  
       5Ap    -9.485643     3App   -7.248943     6Ap    -7.248943  
       7Ap    -7.248939     8Ap    -7.239347     4App   -7.239347  
       5App   -7.239341     6App   -7.239252     9Ap    -7.239252  
      10Ap    -7.239231    11Ap    -0.948566     7App   -0.844844  
      12Ap    -0.844844    13Ap    -0.655591    14Ap    -0.512768  
       8App   -0.479322    15Ap    -0.479322     9App   -0.358835  
      16Ap    -0.358835    10App   -0.330515    17Ap    -0.330514  
      18Ap    -0.327322    11App   -0.312239  

    Virtual:                                                              

      19Ap    -0.038477    20Ap     0.012263    12App    0.012264  
      21Ap     0.076861    22Ap     0.283416    13App    0.301402  
      23Ap     0.301402    14App    0.321123    24Ap     0.321123  
      25Ap     0.339123    15App    0.351044    26Ap     0.351044  
      27Ap     0.382912    28Ap     0.383630    16App    0.383630  
      17App    0.413795    29Ap     0.413795    18App    0.418676  
      30Ap     0.418676    31Ap     0.420181    19App    0.425873  
      32Ap     0.440466    20App    0.461963    21App    0.503019  
      33Ap     0.503020    34Ap     0.581573    22App    0.607377  
      35Ap     0.607377    23App    0.681764    36Ap     0.708513  
      24App    0.708513    37Ap     0.771445    25App    0.859796  
      38Ap     0.859796    39Ap     0.951827    26App    1.049992  
      40Ap     1.049992    41Ap     1.182685    27App    1.182685  
      42Ap     1.255953    43Ap     1.300493    44Ap     1.364221  
      28App    1.364222    45Ap     1.705997    29App    1.930257  
      30App    1.939570    46Ap     1.939570    47Ap     2.019186  
      31App    2.019186    48Ap     2.023306    49Ap     2.048424  
      32App    2.048424    50Ap     2.049610    33App    2.053221  
      34App    2.055040    51Ap     2.055040    35App    2.058073  
      52Ap     2.090358    36App    2.090358    53Ap     2.174206  
      37App    2.174206    54Ap     2.213157    55Ap     2.223958  
      38App    2.223958    56Ap     2.264488    39App    2.345373  
      57Ap     2.345374    40App    2.346730    41App    2.371353  
      58Ap     2.371353    59Ap     2.403500    42App    2.541394  
      43App    2.548615    60Ap     2.548615    44App    2.642866  
      61Ap     2.642866    62Ap     2.654347    45App    2.709948  
      63Ap     2.709948    64Ap     2.720556    65Ap     3.176602  
      46App    3.176602    66Ap     3.250842    67Ap     3.452766  
      47App    3.452766    68Ap     3.496399    48App    3.496399  
      69Ap     3.513650    49App    3.613126    70Ap     3.705715  
      71Ap     3.820171    50App    3.820171    72Ap     4.228718  
      51App    4.228719    73Ap     5.018608  

    Final Occupation by Irrep:
             Ap   App 
    DOCC [    18,   11 ]

  @DF-RKS Final Energy: -1419.28583441051023

   => Energetics <=

    Nuclear Repulsion Energy =            263.2184100113173599
    One-Electron Energy =               -2482.2156700434175036
    Two-Electron Energy =                 872.6707269739952153
    DFT Exchange-Correlation Energy =     -72.9593013524052481
    Empirical Dispersion Energy =           0.0000000000000000
    VV10 Nonlocal Energy =                  0.0000000000000000
    Total Energy =                      -1419.2858344105102333

Computation Completed


Properties will be evaluated at   0.000000,   0.000000,   0.000000 [a0]

Properties computed using the SCF density matrix

  Nuclear Dipole Moment: [e a0]
     X:     0.0000      Y:     1.6474      Z:     0.0000

  Electronic Dipole Moment: [e a0]
     X:     0.0000      Y:    -1.2101      Z:     0.0000

  Dipole Moment: [e a0]
     X:     0.0000      Y:     0.4373      Z:     0.0000     Total:     0.4373

  Dipole Moment: [D]
     X:     0.0000      Y:     1.1115      Z:     0.0000     Total:     1.1115


*** tstop() called on n081 at Thu Jan  6 09:36:54 2022
Module time:
	user time   =      25.25 seconds =       0.42 minutes
	system time =       0.45 seconds =       0.01 minutes
	total time  =          7 seconds =       0.12 minutes
Total time:
	user time   =      25.25 seconds =       0.42 minutes
	system time =       0.45 seconds =       0.01 minutes
	total time  =          7 seconds =       0.12 minutes
Grab this energy -1419.2858344105102
    Psi4 stopped on: Thursday, 06 January 2022 09:36AM
    Psi4 wall time for execution: 0:00:06.67

*** Psi4 exiting successfully. Buy a developer a beer!
