
    -----------------------------------------------------------------------
          Psi4: An Open-Source Ab Initio Electronic Structure Package
                               Psi4 1.4a2.dev629 

                         Git: Rev {master} 2938fc2 dirty


    D. G. A. Smith, L. A. Burns, A. C. Simmonett, R. M. Parrish,
    M. C. Schieber, R. Galvelis, P. Kraus, H. Kruse, R. Di Remigio,
    A. Alenaizan, A. M. James, S. Lehtola, J. P. Misiewicz, M. Scheurer,
    R. A. Shaw, J. B. Schriber, Y. Xie, Z. L. Glick, D. A. Sirianni,
    J. S. O'Brien, J. M. Waldrop, A. Kumar, E. G. Hohenstein,
    B. P. Pritchard, B. R. Brooks, H. F. Schaefer III, A. Yu. Sokolov,
    K. Patkowski, A. E. DePrince III, U. Bozkaya, R. A. King,
    F. A. Evangelista, J. M. Turney, T. D. Crawford, C. D. Sherrill,
    J. Chem. Phys. 152(18) 184108 (2020). https://doi.org/10.1063/5.0006002

                            Additional Code Authors
    E. T. Seidl, C. L. Janssen, E. F. Valeev, M. L. Leininger,
    J. F. Gonthier, R. M. Richard, H. R. McAlexander, M. Saitow, X. Wang,
    P. Verma, and M. H. Lechner

             Previous Authors, Complete List of Code Contributors,
                       and Citations for Specific Modules
    https://github.com/psi4/psi4/blob/master/codemeta.json
    https://github.com/psi4/psi4/graphs/contributors
    http://psicode.org/psi4manual/master/introduction.html#citing-psifour

    -----------------------------------------------------------------------


    Psi4 started on: Saturday, 06 November 2021 02:30PM

    Process ID: 27930
    Host:       n090
    PSIDATADIR: /opt/psi/4/master/share/psi4
    Memory:     500.0 MiB
    Threads:    1
    
  ==> Input File <==

--------------------------------------------------------------------------
import os
memory 14 GB 
 
molecule {
 N    1.0568284594   -0.1616557180   -0.0044294678
 H    2.3206760142    1.2809498860    0.0022419107
 C   -0.4891617890    0.0301086629    2.2755938939
 C   -0.4881721259    0.0301189268   -2.2767062885
 H    0.7176426853    0.0183401617    3.9478491807
 H   -1.7337040156   -1.6134640525    2.3874069462
 H   -1.6804233226    1.7299749876    2.3330438839
 H    0.7182835112    0.0173840933   -3.9466294813
 H   -1.7347892395   -1.6130213443   -2.3859793585
 H   -1.6806613275    1.7301003066   -2.3323912192
units bohr
}

basis {

assign 6-31g_2dfp_

[ 6-31g_2dfp_ ]

spherical

!----------------------------------------------------------------------
! Basis Set Exchange
! Version v0.8.13
! https://www.basissetexchange.org
!----------------------------------------------------------------------
!   Basis set: 6-31G(2df,p)
! Description: 6-31G(2df,p)
!        Role: orbital
!     Version: 0  (Data from the original Basis Set Exchange)
!----------------------------------------------------------------------


****
H     0
S    3   1.00
     18.7311370              0.03349460
      2.8253937              0.23472695
      0.6401217              0.81375733
S    1   1.00
      0.1612778              1.00000000
P    1   1.00
      1.5000000              1.0000000
P    1   1.00
      0.3750000              1.0000000
****
B     0
S    6   1.00
   2068.8823000              0.0018663
    310.6495700              0.0142515
     70.6830330              0.0695516
     19.8610800              0.2325729
      6.2993048              0.4670787
      2.1270270              0.3634314
SP   3   1.00
      4.7279710             -0.1303938              0.0745976
      1.1903377             -0.1307889              0.3078467
      0.3594117              1.1309444              0.7434568
SP   1   1.00
      0.1267512              1.0000000              1.0000000
D    1   1.00
      0.8020000              1.0000000
D    1   1.00
      0.2005000              1.0000000
F    1   1.00
      0.5000000              1.0000000
****
C     0
S    6   1.00
   3047.5249000              0.0018347
    457.3695100              0.0140373
    103.9486900              0.0688426
     29.2101550              0.2321844
      9.2866630              0.4679413
      3.1639270              0.3623120
SP   3   1.00
      7.8682724             -0.1193324              0.0689991
      1.8812885             -0.1608542              0.3164240
      0.5442493              1.1434564              0.7443083
SP   1   1.00
      0.1687144              1.0000000              1.0000000
D    1   1.00
      1.2520000              1.0000000
D    1   1.00
      0.3130000              1.0000000
F    1   1.00
      0.8000000              1.0000000
****
N     0
S    6   1.00
   4173.5110000              0.0018348
    627.4579000              0.0139950
    142.9021000              0.0685870
     40.2343300              0.2322410
     12.8202100              0.4690700
      4.3904370              0.3604550
SP   3   1.00
     11.6263580             -0.1149610              0.0675800
      2.7162800             -0.1691180              0.3239070
      0.7722180              1.1458520              0.7408950
SP   1   1.00
      0.2120313              1.0000000              1.0000000
D    1   1.00
      1.8260000              1.0000000
D    1   1.00
      0.4565000              1.0000000
F    1   1.00
      1.0000000              1.0000000
****
O     0
S    6   1.00
   5484.6717000              0.0018311
    825.2349500              0.0139501
    188.0469600              0.0684451
     52.9645000              0.2327143
     16.8975700              0.4701930
      5.7996353              0.3585209
SP   3   1.00
     15.5396160             -0.1107775              0.0708743
      3.5999336             -0.1480263              0.3397528
      1.0137618              1.1307670              0.7271586
SP   1   1.00
      0.2700058              1.0000000              1.0000000
D    1   1.00
      2.5840000              1.0000000
D    1   1.00
      0.6460000              1.0000000
F    1   1.00
      1.4000000              1.0000000
****
F     0
S    6   1.00
   7001.7130900              0.0018196169
   1051.3660900              0.0139160796
    239.2856900              0.0684053245
     67.3974453              0.233185760
     21.5199573              0.471267439
      7.40310130             0.356618546
SP   3   1.00
     20.8479528             -0.108506975            0.0716287243
      4.80830834            -0.146451658            0.3459121030
      1.34406986             1.128688580            0.7224699570
SP   1   1.00
      0.358151393            1.0000000              1.0000000
D    1   1.00
      3.5000000              1.0000000
D    1   1.00
      0.8750000              1.0000000
F    1   1.00
      1.8500000              1.0000000
****
Al     0
S    6   1.00
  13983.1000000              0.00194267
   2098.7500000              0.0148599
    477.7050000              0.0728494
    134.3600000              0.2468300
     42.8709000              0.4872580
     14.5189000              0.3234960
SP   6   1.00
    239.6680000             -0.00292619             0.00460285
     57.4419000             -0.0374080              0.0331990
     18.2859000             -0.1144870              0.1362820
      6.5991400              0.1156350              0.3304760
      2.4904900              0.6125950              0.4491460
      0.9445400              0.3937990              0.2657040
SP   3   1.00
      1.2779000             -0.2276060             -0.0175130
      0.3975900              0.00144583             0.2445330
      0.1600950              1.0927900              0.8049340
SP   1   1.00
      0.0556577              1.0000000              1.0000000
D    1   1.00
      0.6500000              1.0000000
D    1   1.00
      0.1625000              1.0000000
F    1   1.00
      0.2500000              1.0000000
****
Si     0
S    6   1.00
  16115.9000000              0.00195948
   2425.5800000              0.01492880
    553.8670000              0.07284780
    156.3400000              0.24613000
     50.0683000              0.48591400
     17.0178000              0.32500200
SP   6   1.00
    292.7180000             -0.00278094             0.00443826
     69.8731000             -0.03571460             0.03266790
     22.3363000             -0.11498500             0.13472100
      8.1503900              0.09356340             0.32867800
      3.1345800              0.60301700             0.44964000
      1.2254300              0.41895900             0.26137200
SP   3   1.00
      1.7273800             -0.24463000            -0.01779510
      0.5729220              0.00431572             0.25353900
      0.2221920              1.09818000             0.80066900
SP   1   1.00
      0.0778369              1.00000000             1.00000000
D    1   1.00
      0.9000000              1.0000000
D    1   1.00
      0.2250000              1.0000000
F    1   1.00
      0.3200000              1.0000000
****
P     0
S    6   1.00
  19413.3000000              0.0018516
   2909.4200000              0.0142062
    661.3640000              0.0699995
    185.7590000              0.2400790
     59.1943000              0.4847620
     20.0310000              0.3352000
SP   6   1.00
    339.4780000             -0.00278217             0.00456462
     81.0101000             -0.0360499              0.03369360
     25.8780000             -0.1166310              0.13975500
      9.4522100              0.0968328              0.33936200
      3.6656600              0.6144180              0.45092100
      1.4674600              0.4037980              0.23858600
SP   3   1.00
      2.1562300             -0.2529230             -0.01776530
      0.7489970              0.0328517              0.27405800
      0.2831450              1.0812500              0.78542100
SP   1   1.00
      0.0998317              1.0000000              1.00000000
D    1   1.00
      1.1000000              1.0000000
D    1   1.00
      0.2750000              1.0000000
F    1   1.00
      0.4500000              1.0000000
****
S     0
S    6   1.00
  21917.1000000              0.0018690
   3301.4900000              0.0142300
    754.1460000              0.0696960
    212.7110000              0.2384870
     67.9896000              0.4833070
     23.0515000              0.3380740
SP   6   1.00
    423.7350000             -0.0023767              0.0040610
    100.7100000             -0.0316930              0.0306810
     32.1599000             -0.1133170              0.1304520
     11.8079000              0.0560900              0.3272050
      4.6311000              0.5922550              0.4528510
      1.8702500              0.4550060              0.2560420
SP   3   1.00
      2.6158400             -0.2503740             -0.0145110
      0.9221670              0.0669570              0.3102630
      0.3412870              1.0545100              0.7544830
SP   1   1.00
      0.1171670              1.0000000              1.0000000
D    1   1.00
      1.3000000              1.0000000
D    1   1.00
      0.3250000              1.0000000
F    1   1.00
      0.5500000              1.0000000
****
Cl     0
S    6   1.00
  25180.1000000              0.0018330
   3780.3500000              0.0140340
    860.4740000              0.0690970
    242.1450000              0.2374520
     77.3349000              0.4830340
     26.2470000              0.3398560
SP   6   1.00
    491.7650000             -0.0022974              0.0039894
    116.9840000             -0.0307140              0.0303180
     37.4153000             -0.1125280              0.1298800
     13.7834000              0.0450160              0.3279510
      5.4521500              0.5893530              0.4535270
      2.2258800              0.4652060              0.2521540
SP   3   1.00
      3.1864900             -0.2518300             -0.0142990
      1.1442700              0.0615890              0.3235720
      0.4203770              1.0601800              0.7435070
SP   1   1.00
      0.1426570              1.0000000              1.0000000
D    1   1.00
      1.5000000              1.0000000
D    1   1.00
      0.3750000              1.0000000
F    1   1.00
      0.7000000              1.0000000
****
}


set {
reference rhf                          
freeze_core true
e_convergence 10                       
d_convergence 10                      
dft_spherical_points 1202
dft_radial_points 99
}

e = energy('b3lyp')

print_out('Grab this energy {0}'.format(e))
--------------------------------------------------------------------------

  Memory set to  13.039 GiB by Python driver.

Scratch directory: /tmp/

*** tstart() called on n090
*** at Sat Nov  6 14:30:17 2021

   => Loading Basis Set <=

    Name: ANONYMOUS3796558A
    Role: ORBITAL
    Keyword: BASIS
    atoms 1       entry N          line    69 inputblock 6-31g_2dfp_ 
    atoms 2, 5-10 entry H          line    15 inputblock 6-31g_2dfp_ 
    atoms 3-4     entry C          line    48 inputblock 6-31g_2dfp_ 


         ---------------------------------------------------------
                                   SCF
               by Justin Turney, Rob Parrish, Andy Simmonett
                          and Daniel G. A. Smith
                              RKS Reference
                        1 Threads,  13351 MiB Core
         ---------------------------------------------------------

  ==> Geometry <==

    Molecular point group: c1
    Full point group: C1

    Geometry (in Bohr), charge = 0, multiplicity = 1:

       Center              X                  Y                   Z               Mass       
    ------------   -----------------  -----------------  -----------------  -----------------
         N            1.057409527530    -0.162131750452    -0.002880577339    14.003074004430
         H            2.321257082330     1.280473853548     0.003790801161     1.007825032230
         C           -0.488580720870     0.029632630448     2.277142784361    12.000000000000
         C           -0.487591057770     0.029642894348    -2.275157398039    12.000000000000
         H            0.718223753430     0.017864129248     3.949398071161     1.007825032230
         H           -1.733122947470    -1.613940084952     2.388955836661     1.007825032230
         H           -1.679842254470     1.729498955148     2.334592774361     1.007825032230
         H            0.718864579330     0.016908060848    -3.945080590839     1.007825032230
         H           -1.734208171370    -1.613497376752    -2.384430468039     1.007825032230
         H           -1.680080259370     1.729624274148    -2.330842328739     1.007825032230

  Running in c1 symmetry.

  Rotational constants: A =      1.13771  B =      0.31433  C =      0.27641 [cm^-1]
  Rotational constants: A =  34107.55452  B =   9423.41069  C =   8286.65893 [MHz]
  Nuclear repulsion =   84.210090678447600

  Charge       = 0
  Multiplicity = 1
  Electrons    = 26
  Nalpha       = 13
  Nbeta        = 13

  ==> Algorithm <==

  SCF Algorithm Type is DF.
  DIIS enabled.
  MOM disabled.
  Fractional occupation disabled.
  Guess Type is SAD.
  Energy threshold   = 1.00e-10
  Density threshold  = 1.00e-10
  Integral threshold = 0.00e+00

  ==> Primary Basis <==

  Basis Set: ANONYMOUS3796558A
    Blend: 6-31G_2DFP_
    Number of shells: 52
    Number of basis function: 134
    Number of Cartesian functions: 149
    Spherical Harmonics?: true
    Max angular momentum: 3

  ==> DFT Potential <==

   => Composite Functional: B3LYP <= 

    B3LYP Hyb-GGA Exchange-Correlation Functional

    P. J. Stephens, F. J. Devlin, C. F. Chabalowski, and M. J. Frisch, J. Phys. Chem. 98, 11623 (1994)

    Deriv               =              1
    GGA                 =           TRUE
    Meta                =          FALSE

    Exchange Hybrid     =           TRUE
    MP2 Hybrid          =          FALSE

   => Exchange Functionals <=

    0.0800   Slater exchange
    0.7200         Becke 88

   => Exact (HF) Exchange <=

    0.2000               HF 

   => Correlation Functionals <=

    0.1900   Vosko, Wilk & Nusair (VWN5_RPA)
    0.8100   Lee, Yang & Parr

   => Molecular Quadrature <=

    Radial Scheme          =       TREUTLER
    Pruning Scheme         =           NONE
    Nuclear Scheme         =       TREUTLER

    BS radius alpha        =              1
    Pruning alpha          =              1
    Radial Points          =             99
    Spherical Points       =           1202
    Total Points           =        1117317
    Total Blocks           =           7397
    Max Points             =            256
    Max Functions          =            134
    Weights Tolerance      =       1.00E-15

   => Loading Basis Set <=

    Name: (ANONYMOUS3796558A AUX)
    Role: JKFIT
    Keyword: DF_BASIS_SCF
    atoms 1       entry N          line   258 file /opt/psi/4/master/share/psi4/basis/def2-universal-jkfit.gbs 
    atoms 2, 5-10 entry H          line    18 file /opt/psi/4/master/share/psi4/basis/def2-universal-jkfit.gbs 
    atoms 3-4     entry C          line   198 file /opt/psi/4/master/share/psi4/basis/def2-universal-jkfit.gbs 

  ==> Integral Setup <==

  DFHelper Memory: AOs need 0.052 GiB; user supplied 6.079 GiB. Using in-core AOs.

  ==> MemDFJK: Density-Fitted J/K Matrices <==

    J tasked:                   Yes
    K tasked:                   Yes
    wK tasked:                   No
    OpenMP threads:               1
    Memory [MiB]:              6224
    Algorithm:                 Core
    Schwarz Cutoff:           1E-12
    Mask sparsity (%):       0.6237
    Fitting Condition:        1E-10

   => Auxiliary Basis Set <=

  Basis Set: (ANONYMOUS3796558A AUX)
    Blend: DEF2-UNIVERSAL-JKFIT
    Number of shells: 117
    Number of basis function: 353
    Number of Cartesian functions: 411
    Spherical Harmonics?: true
    Max angular momentum: 4

  Cached 100.0% of DFT collocation blocks in 3.700 [GiB].

  Minimum eigenvalue in the overlap matrix is 2.6773472203E-03.
  Reciprocal condition number of the overlap matrix is 4.5894402420E-04.
    Using symmetric orthogonalization.

  ==> Pre-Iterations <==

  SCF Guess: Superposition of Atomic Densities via on-the-fly atomic UHF (no occupation information).

   -------------------------
    Irrep   Nso     Nmo    
   -------------------------
     A        134     134 
   -------------------------
    Total     134     134
   -------------------------

  ==> Iterations <==

                           Total Energy        Delta E     RMS |[F,P]|

   @DF-RKS iter SAD:  -134.62366874736787   -1.34624e+02   0.00000e+00 
   @DF-RKS iter   1:  -134.88928873853465   -2.65620e-01   5.53446e-03 DIIS
   @DF-RKS iter   2:  -134.70007832928442    1.89210e-01   7.15909e-03 DIIS
   @DF-RKS iter   3:  -135.17267894393808   -4.72601e-01   7.73650e-04 DIIS
   @DF-RKS iter   4:  -135.17656719098011   -3.88825e-03   3.10083e-04 DIIS
   @DF-RKS iter   5:  -135.17729075092603   -7.23560e-04   5.28954e-05 DIIS
   @DF-RKS iter   6:  -135.17731291605847   -2.21651e-05   6.77341e-06 DIIS
   @DF-RKS iter   7:  -135.17731336735056   -4.51292e-07   1.54479e-06 DIIS
   @DF-RKS iter   8:  -135.17731339233791   -2.49873e-08   1.43702e-07 DIIS
   @DF-RKS iter   9:  -135.17731339244884   -1.10930e-10   9.97123e-08 DIIS
   @DF-RKS iter  10:  -135.17731339253618   -8.73399e-11   1.47094e-08 DIIS
   @DF-RKS iter  11:  -135.17731339253811   -1.93268e-12   2.11762e-09 DIIS
   @DF-RKS iter  12:  -135.17731339253825   -1.42109e-13   1.55638e-10 DIIS
   @DF-RKS iter  13:  -135.17731339253828   -2.84217e-14   1.75037e-11 DIIS
  Energy and wave function converged.


  ==> Post-Iterations <==

    Orbital Energies [Eh]
    ---------------------

    Doubly Occupied:                                                      

       1A    -14.310167     2A    -10.190880     3A    -10.190647  
       4A     -0.892535     5A     -0.694281     6A     -0.623440  
       7A     -0.482589     8A     -0.438326     9A     -0.428329  
      10A     -0.382411    11A     -0.359768    12A     -0.356394  
      13A     -0.219911  

    Virtual:                                                              

      14A      0.076506    15A      0.123100    16A      0.134769  
      17A      0.148168    18A      0.155392    19A      0.181679  
      20A      0.185720    21A      0.199734    22A      0.255253  
      23A      0.408228    24A      0.429854    25A      0.444570  
      26A      0.460791    27A      0.470577    28A      0.489306  
      29A      0.512520    30A      0.546766    31A      0.594748  
      32A      0.598468    33A      0.611667    34A      0.615707  
      35A      0.621257    36A      0.634673    37A      0.652449  
      38A      0.654043    39A      0.706348    40A      0.718687  
      41A      0.800796    42A      0.831964    43A      0.851249  
      44A      0.903721    45A      0.958824    46A      1.003780  
      47A      1.031271    48A      1.096875    49A      1.120283  
      50A      1.151805    51A      1.166768    52A      1.191988  
      53A      1.208425    54A      1.264859    55A      1.290642  
      56A      1.330338    57A      1.351293    58A      1.359080  
      59A      1.389602    60A      1.397797    61A      1.426665  
      62A      1.441611    63A      1.472841    64A      1.517579  
      65A      1.618544    66A      1.630280    67A      1.685128  
      68A      1.700229    69A      1.752787    70A      1.801591  
      71A      1.813946    72A      1.865880    73A      1.902470  
      74A      1.958191    75A      2.002425    76A      2.121302  
      77A      2.394687    78A      2.897696    79A      2.913679  
      80A      2.919257    81A      2.937186    82A      2.953347  
      83A      2.987106    84A      3.008431    85A      3.018419  
      86A      3.088911    87A      3.142757    88A      3.149792  
      89A      3.178808    90A      3.229686    91A      3.345829  
      92A      3.350848    93A      3.378871    94A      3.440451  
      95A      3.454859    96A      3.456639    97A      3.550892  
      98A      3.560504    99A      3.633040   100A      3.740984  
     101A      3.782761   102A      3.803022   103A      3.918847  
     104A      3.972797   105A      4.039334   106A      4.110764  
     107A      4.168899   108A      4.177919   109A      4.191807  
     110A      4.229807   111A      4.262381   112A      4.319871  
     113A      4.339703   114A      4.415932   115A      4.422278  
     116A      4.454282   117A      4.598466   118A      4.686728  
     119A      4.728831   120A      4.735000   121A      4.864286  
     122A      4.954995   123A      4.993863   124A      5.024403  
     125A      5.066507   126A      5.198312   127A      5.236002  
     128A      5.251895   129A      5.399475   130A      5.412690  
     131A      5.440893   132A      5.459902   133A      5.722250  
     134A      5.870313  

    Final Occupation by Irrep:
              A 
    DOCC [    13 ]

  @DF-RKS Final Energy:  -135.17731339253828

   => Energetics <=

    Nuclear Repulsion Energy =             84.2100906784475995
    One-Electron Energy =                -347.7587893458403983
    Two-Electron Energy =                 144.8930344778992776
    DFT Exchange-Correlation Energy =     -16.5216492030447810
    Empirical Dispersion Energy =           0.0000000000000000
    VV10 Nonlocal Energy =                  0.0000000000000000
    Total Energy =                       -135.1773133925382808

Computation Completed


Properties will be evaluated at   0.000000,   0.000000,   0.000000 [a0]

Properties computed using the SCF density matrix

  Nuclear Dipole Moment: [e a0]
     X:    -1.5241      Y:     0.7677      Z:     0.0081

  Electronic Dipole Moment: [e a0]
     X:     1.4290      Y:    -0.4162      Z:    -0.0057

  Dipole Moment: [e a0]
     X:    -0.0951      Y:     0.3515      Z:     0.0024     Total:     0.3641

  Dipole Moment: [D]
     X:    -0.2416      Y:     0.8934      Z:     0.0062     Total:     0.9255


*** tstop() called on n090 at Sat Nov  6 14:31:11 2021
Module time:
	user time   =      53.33 seconds =       0.89 minutes
	system time =       0.97 seconds =       0.02 minutes
	total time  =         54 seconds =       0.90 minutes
Total time:
	user time   =      53.33 seconds =       0.89 minutes
	system time =       0.97 seconds =       0.02 minutes
	total time  =         54 seconds =       0.90 minutes
Grab this energy -135.17731339253828
    Psi4 stopped on: Saturday, 06 November 2021 02:31PM
    Psi4 wall time for execution: 0:00:54.33

*** Psi4 exiting successfully. Buy a developer a beer!
