
    -----------------------------------------------------------------------
          Psi4: An Open-Source Ab Initio Electronic Structure Package
                               Psi4 1.4a2.dev629 

                         Git: Rev {master} 2938fc2 dirty


    D. G. A. Smith, L. A. Burns, A. C. Simmonett, R. M. Parrish,
    M. C. Schieber, R. Galvelis, P. Kraus, H. Kruse, R. Di Remigio,
    A. Alenaizan, A. M. James, S. Lehtola, J. P. Misiewicz, M. Scheurer,
    R. A. Shaw, J. B. Schriber, Y. Xie, Z. L. Glick, D. A. Sirianni,
    J. S. O'Brien, J. M. Waldrop, A. Kumar, E. G. Hohenstein,
    B. P. Pritchard, B. R. Brooks, H. F. Schaefer III, A. Yu. Sokolov,
    K. Patkowski, A. E. DePrince III, U. Bozkaya, R. A. King,
    F. A. Evangelista, J. M. Turney, T. D. Crawford, C. D. Sherrill,
    J. Chem. Phys. 152(18) 184108 (2020). https://doi.org/10.1063/5.0006002

                            Additional Code Authors
    E. T. Seidl, C. L. Janssen, E. F. Valeev, M. L. Leininger,
    J. F. Gonthier, R. M. Richard, H. R. McAlexander, M. Saitow, X. Wang,
    P. Verma, and M. H. Lechner

             Previous Authors, Complete List of Code Contributors,
                       and Citations for Specific Modules
    https://github.com/psi4/psi4/blob/master/codemeta.json
    https://github.com/psi4/psi4/graphs/contributors
    http://psicode.org/psi4manual/master/introduction.html#citing-psifour

    -----------------------------------------------------------------------


    Psi4 started on: Saturday, 06 November 2021 02:06PM

    Process ID: 6489
    Host:       n040
    PSIDATADIR: /opt/psi/4/master/share/psi4
    Memory:     500.0 MiB
    Threads:    1
    
  ==> Input File <==

--------------------------------------------------------------------------
import os
memory 14 GB 
 
molecule {
 N    1.0575201170   -0.1631383844   -0.0003426624
 H    2.3225473420    1.2758092343   -0.0001632822
 C   -0.4881082771    0.0299384442    2.2762195189
 C   -0.4861307242    0.0306278973   -2.2773588507
 H    0.7220959207    0.0186378422    3.9485557003
 H   -1.7336831066   -1.6100607206    2.3860524447
 H   -1.6871931378    1.7294485772    2.3321395568
 H    0.7166352882    0.0205068321   -3.9438514617
 H   -1.7336842649   -1.6171488229   -2.3867224098
 H   -1.6834803071    1.7342150107   -2.3345285539
units bohr
}

basis {

assign 6-31g_2dfp_

[ 6-31g_2dfp_ ]

spherical

!----------------------------------------------------------------------
! Basis Set Exchange
! Version v0.8.13
! https://www.basissetexchange.org
!----------------------------------------------------------------------
!   Basis set: 6-31G(2df,p)
! Description: 6-31G(2df,p)
!        Role: orbital
!     Version: 0  (Data from the original Basis Set Exchange)
!----------------------------------------------------------------------


****
H     0
S    3   1.00
     18.7311370              0.03349460
      2.8253937              0.23472695
      0.6401217              0.81375733
S    1   1.00
      0.1612778              1.00000000
P    1   1.00
      1.5000000              1.0000000
P    1   1.00
      0.3750000              1.0000000
****
B     0
S    6   1.00
   2068.8823000              0.0018663
    310.6495700              0.0142515
     70.6830330              0.0695516
     19.8610800              0.2325729
      6.2993048              0.4670787
      2.1270270              0.3634314
SP   3   1.00
      4.7279710             -0.1303938              0.0745976
      1.1903377             -0.1307889              0.3078467
      0.3594117              1.1309444              0.7434568
SP   1   1.00
      0.1267512              1.0000000              1.0000000
D    1   1.00
      0.8020000              1.0000000
D    1   1.00
      0.2005000              1.0000000
F    1   1.00
      0.5000000              1.0000000
****
C     0
S    6   1.00
   3047.5249000              0.0018347
    457.3695100              0.0140373
    103.9486900              0.0688426
     29.2101550              0.2321844
      9.2866630              0.4679413
      3.1639270              0.3623120
SP   3   1.00
      7.8682724             -0.1193324              0.0689991
      1.8812885             -0.1608542              0.3164240
      0.5442493              1.1434564              0.7443083
SP   1   1.00
      0.1687144              1.0000000              1.0000000
D    1   1.00
      1.2520000              1.0000000
D    1   1.00
      0.3130000              1.0000000
F    1   1.00
      0.8000000              1.0000000
****
N     0
S    6   1.00
   4173.5110000              0.0018348
    627.4579000              0.0139950
    142.9021000              0.0685870
     40.2343300              0.2322410
     12.8202100              0.4690700
      4.3904370              0.3604550
SP   3   1.00
     11.6263580             -0.1149610              0.0675800
      2.7162800             -0.1691180              0.3239070
      0.7722180              1.1458520              0.7408950
SP   1   1.00
      0.2120313              1.0000000              1.0000000
D    1   1.00
      1.8260000              1.0000000
D    1   1.00
      0.4565000              1.0000000
F    1   1.00
      1.0000000              1.0000000
****
O     0
S    6   1.00
   5484.6717000              0.0018311
    825.2349500              0.0139501
    188.0469600              0.0684451
     52.9645000              0.2327143
     16.8975700              0.4701930
      5.7996353              0.3585209
SP   3   1.00
     15.5396160             -0.1107775              0.0708743
      3.5999336             -0.1480263              0.3397528
      1.0137618              1.1307670              0.7271586
SP   1   1.00
      0.2700058              1.0000000              1.0000000
D    1   1.00
      2.5840000              1.0000000
D    1   1.00
      0.6460000              1.0000000
F    1   1.00
      1.4000000              1.0000000
****
F     0
S    6   1.00
   7001.7130900              0.0018196169
   1051.3660900              0.0139160796
    239.2856900              0.0684053245
     67.3974453              0.233185760
     21.5199573              0.471267439
      7.40310130             0.356618546
SP   3   1.00
     20.8479528             -0.108506975            0.0716287243
      4.80830834            -0.146451658            0.3459121030
      1.34406986             1.128688580            0.7224699570
SP   1   1.00
      0.358151393            1.0000000              1.0000000
D    1   1.00
      3.5000000              1.0000000
D    1   1.00
      0.8750000              1.0000000
F    1   1.00
      1.8500000              1.0000000
****
Al     0
S    6   1.00
  13983.1000000              0.00194267
   2098.7500000              0.0148599
    477.7050000              0.0728494
    134.3600000              0.2468300
     42.8709000              0.4872580
     14.5189000              0.3234960
SP   6   1.00
    239.6680000             -0.00292619             0.00460285
     57.4419000             -0.0374080              0.0331990
     18.2859000             -0.1144870              0.1362820
      6.5991400              0.1156350              0.3304760
      2.4904900              0.6125950              0.4491460
      0.9445400              0.3937990              0.2657040
SP   3   1.00
      1.2779000             -0.2276060             -0.0175130
      0.3975900              0.00144583             0.2445330
      0.1600950              1.0927900              0.8049340
SP   1   1.00
      0.0556577              1.0000000              1.0000000
D    1   1.00
      0.6500000              1.0000000
D    1   1.00
      0.1625000              1.0000000
F    1   1.00
      0.2500000              1.0000000
****
Si     0
S    6   1.00
  16115.9000000              0.00195948
   2425.5800000              0.01492880
    553.8670000              0.07284780
    156.3400000              0.24613000
     50.0683000              0.48591400
     17.0178000              0.32500200
SP   6   1.00
    292.7180000             -0.00278094             0.00443826
     69.8731000             -0.03571460             0.03266790
     22.3363000             -0.11498500             0.13472100
      8.1503900              0.09356340             0.32867800
      3.1345800              0.60301700             0.44964000
      1.2254300              0.41895900             0.26137200
SP   3   1.00
      1.7273800             -0.24463000            -0.01779510
      0.5729220              0.00431572             0.25353900
      0.2221920              1.09818000             0.80066900
SP   1   1.00
      0.0778369              1.00000000             1.00000000
D    1   1.00
      0.9000000              1.0000000
D    1   1.00
      0.2250000              1.0000000
F    1   1.00
      0.3200000              1.0000000
****
P     0
S    6   1.00
  19413.3000000              0.0018516
   2909.4200000              0.0142062
    661.3640000              0.0699995
    185.7590000              0.2400790
     59.1943000              0.4847620
     20.0310000              0.3352000
SP   6   1.00
    339.4780000             -0.00278217             0.00456462
     81.0101000             -0.0360499              0.03369360
     25.8780000             -0.1166310              0.13975500
      9.4522100              0.0968328              0.33936200
      3.6656600              0.6144180              0.45092100
      1.4674600              0.4037980              0.23858600
SP   3   1.00
      2.1562300             -0.2529230             -0.01776530
      0.7489970              0.0328517              0.27405800
      0.2831450              1.0812500              0.78542100
SP   1   1.00
      0.0998317              1.0000000              1.00000000
D    1   1.00
      1.1000000              1.0000000
D    1   1.00
      0.2750000              1.0000000
F    1   1.00
      0.4500000              1.0000000
****
S     0
S    6   1.00
  21917.1000000              0.0018690
   3301.4900000              0.0142300
    754.1460000              0.0696960
    212.7110000              0.2384870
     67.9896000              0.4833070
     23.0515000              0.3380740
SP   6   1.00
    423.7350000             -0.0023767              0.0040610
    100.7100000             -0.0316930              0.0306810
     32.1599000             -0.1133170              0.1304520
     11.8079000              0.0560900              0.3272050
      4.6311000              0.5922550              0.4528510
      1.8702500              0.4550060              0.2560420
SP   3   1.00
      2.6158400             -0.2503740             -0.0145110
      0.9221670              0.0669570              0.3102630
      0.3412870              1.0545100              0.7544830
SP   1   1.00
      0.1171670              1.0000000              1.0000000
D    1   1.00
      1.3000000              1.0000000
D    1   1.00
      0.3250000              1.0000000
F    1   1.00
      0.5500000              1.0000000
****
Cl     0
S    6   1.00
  25180.1000000              0.0018330
   3780.3500000              0.0140340
    860.4740000              0.0690970
    242.1450000              0.2374520
     77.3349000              0.4830340
     26.2470000              0.3398560
SP   6   1.00
    491.7650000             -0.0022974              0.0039894
    116.9840000             -0.0307140              0.0303180
     37.4153000             -0.1125280              0.1298800
     13.7834000              0.0450160              0.3279510
      5.4521500              0.5893530              0.4535270
      2.2258800              0.4652060              0.2521540
SP   3   1.00
      3.1864900             -0.2518300             -0.0142990
      1.1442700              0.0615890              0.3235720
      0.4203770              1.0601800              0.7435070
SP   1   1.00
      0.1426570              1.0000000              1.0000000
D    1   1.00
      1.5000000              1.0000000
D    1   1.00
      0.3750000              1.0000000
F    1   1.00
      0.7000000              1.0000000
****
}


set {
reference rhf                          
freeze_core true
e_convergence 10                       
d_convergence 10                      
dft_spherical_points 1202
dft_radial_points 99
}

e = energy('b3lyp')

print_out('Grab this energy {0}'.format(e))
--------------------------------------------------------------------------

  Memory set to  13.039 GiB by Python driver.

Scratch directory: /tmp/

*** tstart() called on n040
*** at Sat Nov  6 14:06:03 2021

   => Loading Basis Set <=

    Name: ANONYMOUS28A6B41B
    Role: ORBITAL
    Keyword: BASIS
    atoms 1       entry N          line    69 inputblock 6-31g_2dfp_ 
    atoms 2, 5-10 entry H          line    15 inputblock 6-31g_2dfp_ 
    atoms 3-4     entry C          line    48 inputblock 6-31g_2dfp_ 


         ---------------------------------------------------------
                                   SCF
               by Justin Turney, Rob Parrish, Andy Simmonett
                          and Daniel G. A. Smith
                              RKS Reference
                        1 Threads,  13351 MiB Core
         ---------------------------------------------------------

  ==> Geometry <==

    Molecular point group: c1
    Full point group: C1

    Geometry (in Bohr), charge = 0, multiplicity = 1:

       Center              X                  Y                   Z               Mass       
    ------------   -----------------  -----------------  -----------------  -----------------
         N            1.057146676749    -0.163269438115     0.000034113633    14.003074004430
         H            2.322173901749     1.275678180585     0.000213493833     1.007825032230
         C           -0.488481717351     0.029807390485     2.276596294933    12.000000000000
         C           -0.486504164451     0.030496843585    -2.276982074667    12.000000000000
         H            0.721722480449     0.018506788485     3.948932476333     1.007825032230
         H           -1.734056546851    -1.610191774315     2.386429220733     1.007825032230
         H           -1.687566578051     1.729317523485     2.332516332833     1.007825032230
         H            0.716261847949     0.020375778385    -3.943474685667     1.007825032230
         H           -1.734057705151    -1.617279876615    -2.386345633767     1.007825032230
         H           -1.683853747351     1.734083956985    -2.334151777867     1.007825032230

  Running in c1 symmetry.

  Rotational constants: A =      1.13696  B =      0.31422  C =      0.27631 [cm^-1]
  Rotational constants: A =  34085.30774  B =   9420.21753  C =   8283.55406 [MHz]
  Nuclear repulsion =   84.191576748134054

  Charge       = 0
  Multiplicity = 1
  Electrons    = 26
  Nalpha       = 13
  Nbeta        = 13

  ==> Algorithm <==

  SCF Algorithm Type is DF.
  DIIS enabled.
  MOM disabled.
  Fractional occupation disabled.
  Guess Type is SAD.
  Energy threshold   = 1.00e-10
  Density threshold  = 1.00e-10
  Integral threshold = 0.00e+00

  ==> Primary Basis <==

  Basis Set: ANONYMOUS28A6B41B
    Blend: 6-31G_2DFP_
    Number of shells: 52
    Number of basis function: 134
    Number of Cartesian functions: 149
    Spherical Harmonics?: true
    Max angular momentum: 3

  ==> DFT Potential <==

   => Composite Functional: B3LYP <= 

    B3LYP Hyb-GGA Exchange-Correlation Functional

    P. J. Stephens, F. J. Devlin, C. F. Chabalowski, and M. J. Frisch, J. Phys. Chem. 98, 11623 (1994)

    Deriv               =              1
    GGA                 =           TRUE
    Meta                =          FALSE

    Exchange Hybrid     =           TRUE
    MP2 Hybrid          =          FALSE

   => Exchange Functionals <=

    0.0800   Slater exchange
    0.7200         Becke 88

   => Exact (HF) Exchange <=

    0.2000               HF 

   => Correlation Functionals <=

    0.1900   Vosko, Wilk & Nusair (VWN5_RPA)
    0.8100   Lee, Yang & Parr

   => Molecular Quadrature <=

    Radial Scheme          =       TREUTLER
    Pruning Scheme         =           NONE
    Nuclear Scheme         =       TREUTLER

    BS radius alpha        =              1
    Pruning alpha          =              1
    Radial Points          =             99
    Spherical Points       =           1202
    Total Points           =        1117375
    Total Blocks           =           7383
    Max Points             =            256
    Max Functions          =            134
    Weights Tolerance      =       1.00E-15

   => Loading Basis Set <=

    Name: (ANONYMOUS28A6B41B AUX)
    Role: JKFIT
    Keyword: DF_BASIS_SCF
    atoms 1       entry N          line   258 file /opt/psi/4/master/share/psi4/basis/def2-universal-jkfit.gbs 
    atoms 2, 5-10 entry H          line    18 file /opt/psi/4/master/share/psi4/basis/def2-universal-jkfit.gbs 
    atoms 3-4     entry C          line   198 file /opt/psi/4/master/share/psi4/basis/def2-universal-jkfit.gbs 

  ==> Integral Setup <==

  DFHelper Memory: AOs need 0.052 GiB; user supplied 6.079 GiB. Using in-core AOs.

  ==> MemDFJK: Density-Fitted J/K Matrices <==

    J tasked:                   Yes
    K tasked:                   Yes
    wK tasked:                   No
    OpenMP threads:               1
    Memory [MiB]:              6225
    Algorithm:                 Core
    Schwarz Cutoff:           1E-12
    Mask sparsity (%):       0.6237
    Fitting Condition:        1E-10

   => Auxiliary Basis Set <=

  Basis Set: (ANONYMOUS28A6B41B AUX)
    Blend: DEF2-UNIVERSAL-JKFIT
    Number of shells: 117
    Number of basis function: 353
    Number of Cartesian functions: 411
    Spherical Harmonics?: true
    Max angular momentum: 4

  Cached 100.0% of DFT collocation blocks in 3.699 [GiB].

  Minimum eigenvalue in the overlap matrix is 2.6775830423E-03.
  Reciprocal condition number of the overlap matrix is 4.5921033042E-04.
    Using symmetric orthogonalization.

  ==> Pre-Iterations <==

  SCF Guess: Superposition of Atomic Densities via on-the-fly atomic UHF (no occupation information).

   -------------------------
    Irrep   Nso     Nmo    
   -------------------------
     A        134     134 
   -------------------------
    Total     134     134
   -------------------------

  ==> Iterations <==

                           Total Energy        Delta E     RMS |[F,P]|

   @DF-RKS iter SAD:  -134.62227854653739   -1.34622e+02   0.00000e+00 
   @DF-RKS iter   1:  -134.88951136691293   -2.67233e-01   5.53231e-03 DIIS
   @DF-RKS iter   2:  -134.69958805067324    1.89923e-01   7.16181e-03 DIIS
   @DF-RKS iter   3:  -135.17268945507959   -4.73101e-01   7.74405e-04 DIIS
   @DF-RKS iter   4:  -135.17658550299359   -3.89605e-03   3.10599e-04 DIIS
   @DF-RKS iter   5:  -135.17731202214625   -7.26519e-04   5.27618e-05 DIIS
   @DF-RKS iter   6:  -135.17733407235966   -2.20502e-05   6.76726e-06 DIIS
   @DF-RKS iter   7:  -135.17733452379900   -4.51439e-07   1.53864e-06 DIIS
   @DF-RKS iter   8:  -135.17733454879178   -2.49928e-08   8.90797e-08 DIIS
   @DF-RKS iter   9:  -135.17733454886050   -6.87237e-11   4.33929e-08 DIIS
   @DF-RKS iter  10:  -135.17733454887954   -1.90425e-11   2.45602e-09 DIIS
   @DF-RKS iter  11:  -135.17733454887963   -8.52651e-14   8.31986e-10 DIIS
   @DF-RKS iter  12:  -135.17733454887986   -2.27374e-13   4.40354e-10 DIIS
   @DF-RKS iter  13:  -135.17733454887997   -1.13687e-13   1.83630e-11 DIIS
  Energy and wave function converged.


  ==> Post-Iterations <==

    Orbital Energies [Eh]
    ---------------------

    Doubly Occupied:                                                      

       1A    -14.310247     2A    -10.191047     3A    -10.191017  
       4A     -0.892618     5A     -0.694169     6A     -0.623420  
       7A     -0.482695     8A     -0.438018     9A     -0.428333  
      10A     -0.381932    11A     -0.359893    12A     -0.356587  
      13A     -0.220014  

    Virtual:                                                              

      14A      0.076532    15A      0.123060    16A      0.134575  
      17A      0.148361    18A      0.155033    19A      0.181492  
      20A      0.185300    21A      0.199752    22A      0.255252  
      23A      0.408107    24A      0.430072    25A      0.444433  
      26A      0.460751    27A      0.470754    28A      0.489285  
      29A      0.512166    30A      0.546641    31A      0.594154  
      32A      0.597970    33A      0.611629    34A      0.615636  
      35A      0.620765    36A      0.634762    37A      0.652389  
      38A      0.653751    39A      0.706311    40A      0.718549  
      41A      0.800588    42A      0.831650    43A      0.850978  
      44A      0.903338    45A      0.958351    46A      1.003521  
      47A      1.031305    48A      1.096984    49A      1.119677  
      50A      1.151969    51A      1.166151    52A      1.191365  
      53A      1.208265    54A      1.264791    55A      1.289859  
      56A      1.329661    57A      1.350696    58A      1.358346  
      59A      1.389850    60A      1.397872    61A      1.426435  
      62A      1.441709    63A      1.471835    64A      1.518115  
      65A      1.618044    66A      1.630478    67A      1.685227  
      68A      1.700773    69A      1.751748    70A      1.800060  
      71A      1.812287    72A      1.866491    73A      1.902417  
      74A      1.957746    75A      2.000815    76A      2.119882  
      77A      2.395442    78A      2.897292    79A      2.912995  
      80A      2.918829    81A      2.936848    82A      2.953174  
      83A      2.986467    84A      3.008055    85A      3.018781  
      86A      3.088343    87A      3.143039    88A      3.149971  
      89A      3.178547    90A      3.229485    91A      3.345715  
      92A      3.351948    93A      3.380014    94A      3.439864  
      95A      3.456040    96A      3.456251    97A      3.550801  
      98A      3.560956    99A      3.632136   100A      3.740524  
     101A      3.781002   102A      3.802772   103A      3.919220  
     104A      3.972999   105A      4.038084   106A      4.109864  
     107A      4.167346   108A      4.176718   109A      4.189722  
     110A      4.229614   111A      4.261142   112A      4.319069  
     113A      4.338735   114A      4.415613   115A      4.420770  
     116A      4.453549   117A      4.596733   118A      4.687309  
     119A      4.727045   120A      4.733441   121A      4.864987  
     122A      4.954703   123A      4.992393   124A      5.023174  
     125A      5.065549   126A      5.197803   127A      5.235443  
     128A      5.250024   129A      5.397526   130A      5.410223  
     131A      5.440897   132A      5.459718   133A      5.721788  
     134A      5.872607  

    Final Occupation by Irrep:
              A 
    DOCC [    13 ]

  @DF-RKS Final Energy:  -135.17733454887997

   => Energetics <=

    Nuclear Repulsion Energy =             84.1915767481340538
    One-Electron Energy =                -347.7219672428920489
    Two-Electron Energy =                 144.8735785212881524
    DFT Exchange-Correlation Energy =     -16.5205225754101761
    Empirical Dispersion Energy =           0.0000000000000000
    VV10 Nonlocal Energy =                  0.0000000000000000
    Total Energy =                       -135.1773345488799976

Computation Completed


Properties will be evaluated at   0.000000,   0.000000,   0.000000 [a0]

Properties computed using the SCF density matrix

  Nuclear Dipole Moment: [e a0]
     X:    -1.5293      Y:     0.7694      Z:     0.0020

  Electronic Dipole Moment: [e a0]
     X:     1.4371      Y:    -0.4195      Z:    -0.0029

  Dipole Moment: [e a0]
     X:    -0.0921      Y:     0.3500      Z:    -0.0009     Total:     0.3619

  Dipole Moment: [D]
     X:    -0.2342      Y:     0.8895      Z:    -0.0022     Total:     0.9199


*** tstop() called on n040 at Sat Nov  6 14:07:19 2021
Module time:
	user time   =      74.80 seconds =       1.25 minutes
	system time =       0.81 seconds =       0.01 minutes
	total time  =         76 seconds =       1.27 minutes
Total time:
	user time   =      74.80 seconds =       1.25 minutes
	system time =       0.81 seconds =       0.01 minutes
	total time  =         76 seconds =       1.27 minutes
Grab this energy -135.17733454887997
    Psi4 stopped on: Saturday, 06 November 2021 02:07PM
    Psi4 wall time for execution: 0:01:15.66

*** Psi4 exiting successfully. Buy a developer a beer!
