
    -----------------------------------------------------------------------
          Psi4: An Open-Source Ab Initio Electronic Structure Package
                               Psi4 1.4a2.dev629 

                         Git: Rev {master} 2938fc2 dirty


    D. G. A. Smith, L. A. Burns, A. C. Simmonett, R. M. Parrish,
    M. C. Schieber, R. Galvelis, P. Kraus, H. Kruse, R. Di Remigio,
    A. Alenaizan, A. M. James, S. Lehtola, J. P. Misiewicz, M. Scheurer,
    R. A. Shaw, J. B. Schriber, Y. Xie, Z. L. Glick, D. A. Sirianni,
    J. S. O'Brien, J. M. Waldrop, A. Kumar, E. G. Hohenstein,
    B. P. Pritchard, B. R. Brooks, H. F. Schaefer III, A. Yu. Sokolov,
    K. Patkowski, A. E. DePrince III, U. Bozkaya, R. A. King,
    F. A. Evangelista, J. M. Turney, T. D. Crawford, C. D. Sherrill,
    J. Chem. Phys. 152(18) 184108 (2020). https://doi.org/10.1063/5.0006002

                            Additional Code Authors
    E. T. Seidl, C. L. Janssen, E. F. Valeev, M. L. Leininger,
    J. F. Gonthier, R. M. Richard, H. R. McAlexander, M. Saitow, X. Wang,
    P. Verma, and M. H. Lechner

             Previous Authors, Complete List of Code Contributors,
                       and Citations for Specific Modules
    https://github.com/psi4/psi4/blob/master/codemeta.json
    https://github.com/psi4/psi4/graphs/contributors
    http://psicode.org/psi4manual/master/introduction.html#citing-psifour

    -----------------------------------------------------------------------


    Psi4 started on: Saturday, 06 November 2021 02:35PM

    Process ID: 21405
    Host:       n021
    PSIDATADIR: /opt/psi/4/master/share/psi4
    Memory:     500.0 MiB
    Threads:    1
    
  ==> Input File <==

--------------------------------------------------------------------------
import os
memory 14 GB 
 
molecule {
 N    1.0573133081   -0.1602676285   -0.0000000000
 H    2.3134913253    1.2739771981    0.0000000000
 C   -0.4872867308    0.0307964308    2.2734030620
 C   -0.4872867308    0.0307964308   -2.2734030620
 H    0.7236958931    0.0179283234    3.9384966579
 H   -1.7342063086   -1.6125917157    2.3862222935
 H   -1.6843457455    1.7314301317    2.3321169602
 H    0.7236958931    0.0179283234   -3.9384966579
 H   -1.7342063086   -1.6125917157   -2.3862222935
 H   -1.6843457455    1.7314301317   -2.3321169602
units bohr
}

basis {

assign 6-31g_2dfp_

[ 6-31g_2dfp_ ]

spherical

!----------------------------------------------------------------------
! Basis Set Exchange
! Version v0.8.13
! https://www.basissetexchange.org
!----------------------------------------------------------------------
!   Basis set: 6-31G(2df,p)
! Description: 6-31G(2df,p)
!        Role: orbital
!     Version: 0  (Data from the original Basis Set Exchange)
!----------------------------------------------------------------------


****
H     0
S    3   1.00
     18.7311370              0.03349460
      2.8253937              0.23472695
      0.6401217              0.81375733
S    1   1.00
      0.1612778              1.00000000
P    1   1.00
      1.5000000              1.0000000
P    1   1.00
      0.3750000              1.0000000
****
B     0
S    6   1.00
   2068.8823000              0.0018663
    310.6495700              0.0142515
     70.6830330              0.0695516
     19.8610800              0.2325729
      6.2993048              0.4670787
      2.1270270              0.3634314
SP   3   1.00
      4.7279710             -0.1303938              0.0745976
      1.1903377             -0.1307889              0.3078467
      0.3594117              1.1309444              0.7434568
SP   1   1.00
      0.1267512              1.0000000              1.0000000
D    1   1.00
      0.8020000              1.0000000
D    1   1.00
      0.2005000              1.0000000
F    1   1.00
      0.5000000              1.0000000
****
C     0
S    6   1.00
   3047.5249000              0.0018347
    457.3695100              0.0140373
    103.9486900              0.0688426
     29.2101550              0.2321844
      9.2866630              0.4679413
      3.1639270              0.3623120
SP   3   1.00
      7.8682724             -0.1193324              0.0689991
      1.8812885             -0.1608542              0.3164240
      0.5442493              1.1434564              0.7443083
SP   1   1.00
      0.1687144              1.0000000              1.0000000
D    1   1.00
      1.2520000              1.0000000
D    1   1.00
      0.3130000              1.0000000
F    1   1.00
      0.8000000              1.0000000
****
N     0
S    6   1.00
   4173.5110000              0.0018348
    627.4579000              0.0139950
    142.9021000              0.0685870
     40.2343300              0.2322410
     12.8202100              0.4690700
      4.3904370              0.3604550
SP   3   1.00
     11.6263580             -0.1149610              0.0675800
      2.7162800             -0.1691180              0.3239070
      0.7722180              1.1458520              0.7408950
SP   1   1.00
      0.2120313              1.0000000              1.0000000
D    1   1.00
      1.8260000              1.0000000
D    1   1.00
      0.4565000              1.0000000
F    1   1.00
      1.0000000              1.0000000
****
O     0
S    6   1.00
   5484.6717000              0.0018311
    825.2349500              0.0139501
    188.0469600              0.0684451
     52.9645000              0.2327143
     16.8975700              0.4701930
      5.7996353              0.3585209
SP   3   1.00
     15.5396160             -0.1107775              0.0708743
      3.5999336             -0.1480263              0.3397528
      1.0137618              1.1307670              0.7271586
SP   1   1.00
      0.2700058              1.0000000              1.0000000
D    1   1.00
      2.5840000              1.0000000
D    1   1.00
      0.6460000              1.0000000
F    1   1.00
      1.4000000              1.0000000
****
F     0
S    6   1.00
   7001.7130900              0.0018196169
   1051.3660900              0.0139160796
    239.2856900              0.0684053245
     67.3974453              0.233185760
     21.5199573              0.471267439
      7.40310130             0.356618546
SP   3   1.00
     20.8479528             -0.108506975            0.0716287243
      4.80830834            -0.146451658            0.3459121030
      1.34406986             1.128688580            0.7224699570
SP   1   1.00
      0.358151393            1.0000000              1.0000000
D    1   1.00
      3.5000000              1.0000000
D    1   1.00
      0.8750000              1.0000000
F    1   1.00
      1.8500000              1.0000000
****
Al     0
S    6   1.00
  13983.1000000              0.00194267
   2098.7500000              0.0148599
    477.7050000              0.0728494
    134.3600000              0.2468300
     42.8709000              0.4872580
     14.5189000              0.3234960
SP   6   1.00
    239.6680000             -0.00292619             0.00460285
     57.4419000             -0.0374080              0.0331990
     18.2859000             -0.1144870              0.1362820
      6.5991400              0.1156350              0.3304760
      2.4904900              0.6125950              0.4491460
      0.9445400              0.3937990              0.2657040
SP   3   1.00
      1.2779000             -0.2276060             -0.0175130
      0.3975900              0.00144583             0.2445330
      0.1600950              1.0927900              0.8049340
SP   1   1.00
      0.0556577              1.0000000              1.0000000
D    1   1.00
      0.6500000              1.0000000
D    1   1.00
      0.1625000              1.0000000
F    1   1.00
      0.2500000              1.0000000
****
Si     0
S    6   1.00
  16115.9000000              0.00195948
   2425.5800000              0.01492880
    553.8670000              0.07284780
    156.3400000              0.24613000
     50.0683000              0.48591400
     17.0178000              0.32500200
SP   6   1.00
    292.7180000             -0.00278094             0.00443826
     69.8731000             -0.03571460             0.03266790
     22.3363000             -0.11498500             0.13472100
      8.1503900              0.09356340             0.32867800
      3.1345800              0.60301700             0.44964000
      1.2254300              0.41895900             0.26137200
SP   3   1.00
      1.7273800             -0.24463000            -0.01779510
      0.5729220              0.00431572             0.25353900
      0.2221920              1.09818000             0.80066900
SP   1   1.00
      0.0778369              1.00000000             1.00000000
D    1   1.00
      0.9000000              1.0000000
D    1   1.00
      0.2250000              1.0000000
F    1   1.00
      0.3200000              1.0000000
****
P     0
S    6   1.00
  19413.3000000              0.0018516
   2909.4200000              0.0142062
    661.3640000              0.0699995
    185.7590000              0.2400790
     59.1943000              0.4847620
     20.0310000              0.3352000
SP   6   1.00
    339.4780000             -0.00278217             0.00456462
     81.0101000             -0.0360499              0.03369360
     25.8780000             -0.1166310              0.13975500
      9.4522100              0.0968328              0.33936200
      3.6656600              0.6144180              0.45092100
      1.4674600              0.4037980              0.23858600
SP   3   1.00
      2.1562300             -0.2529230             -0.01776530
      0.7489970              0.0328517              0.27405800
      0.2831450              1.0812500              0.78542100
SP   1   1.00
      0.0998317              1.0000000              1.00000000
D    1   1.00
      1.1000000              1.0000000
D    1   1.00
      0.2750000              1.0000000
F    1   1.00
      0.4500000              1.0000000
****
S     0
S    6   1.00
  21917.1000000              0.0018690
   3301.4900000              0.0142300
    754.1460000              0.0696960
    212.7110000              0.2384870
     67.9896000              0.4833070
     23.0515000              0.3380740
SP   6   1.00
    423.7350000             -0.0023767              0.0040610
    100.7100000             -0.0316930              0.0306810
     32.1599000             -0.1133170              0.1304520
     11.8079000              0.0560900              0.3272050
      4.6311000              0.5922550              0.4528510
      1.8702500              0.4550060              0.2560420
SP   3   1.00
      2.6158400             -0.2503740             -0.0145110
      0.9221670              0.0669570              0.3102630
      0.3412870              1.0545100              0.7544830
SP   1   1.00
      0.1171670              1.0000000              1.0000000
D    1   1.00
      1.3000000              1.0000000
D    1   1.00
      0.3250000              1.0000000
F    1   1.00
      0.5500000              1.0000000
****
Cl     0
S    6   1.00
  25180.1000000              0.0018330
   3780.3500000              0.0140340
    860.4740000              0.0690970
    242.1450000              0.2374520
     77.3349000              0.4830340
     26.2470000              0.3398560
SP   6   1.00
    491.7650000             -0.0022974              0.0039894
    116.9840000             -0.0307140              0.0303180
     37.4153000             -0.1125280              0.1298800
     13.7834000              0.0450160              0.3279510
      5.4521500              0.5893530              0.4535270
      2.2258800              0.4652060              0.2521540
SP   3   1.00
      3.1864900             -0.2518300             -0.0142990
      1.1442700              0.0615890              0.3235720
      0.4203770              1.0601800              0.7435070
SP   1   1.00
      0.1426570              1.0000000              1.0000000
D    1   1.00
      1.5000000              1.0000000
D    1   1.00
      0.3750000              1.0000000
F    1   1.00
      0.7000000              1.0000000
****
}


set {
reference rhf                          
freeze_core true
e_convergence 10                       
d_convergence 10                      
dft_spherical_points 1202
dft_radial_points 99
}

e = energy('b3lyp')

print_out('Grab this energy {0}'.format(e))
--------------------------------------------------------------------------

  Memory set to  13.039 GiB by Python driver.

Scratch directory: /tmp/

*** tstart() called on n021
*** at Sat Nov  6 14:35:10 2021

   => Loading Basis Set <=

    Name: ANONYMOUS8A8DDA0E
    Role: ORBITAL
    Keyword: BASIS
    atoms 1       entry N          line    69 inputblock 6-31g_2dfp_ 
    atoms 2, 5-10 entry H          line    15 inputblock 6-31g_2dfp_ 
    atoms 3-4     entry C          line    48 inputblock 6-31g_2dfp_ 


         ---------------------------------------------------------
                                   SCF
               by Justin Turney, Rob Parrish, Andy Simmonett
                          and Daniel G. A. Smith
                              RKS Reference
                        1 Threads,  13351 MiB Core
         ---------------------------------------------------------

  ==> Geometry <==

    Molecular point group: cs
    Full point group: Cs

    Geometry (in Bohr), charge = 0, multiplicity = 1:

       Center              X                  Y                   Z               Mass       
    ------------   -----------------  -----------------  -----------------  -----------------
         N            1.057081108050    -0.161477070929     0.000000000000    14.003074004430
         H            2.313259125250     1.272767755671     0.000000000000     1.007825032230
         C           -0.487518930850     0.029586988371     2.273403062000    12.000000000000
         C           -0.487518930850     0.029586988371    -2.273403062000    12.000000000000
         H            0.723463693050     0.016718880971     3.938496657900     1.007825032230
         H           -1.734438508650    -1.613801158129     2.386222293500     1.007825032230
         H           -1.684577945550     1.730220689271     2.332116960200     1.007825032230
         H            0.723463693050     0.016718880971    -3.938496657900     1.007825032230
         H           -1.734438508650    -1.613801158129    -2.386222293500     1.007825032230
         H           -1.684577945550     1.730220689271    -2.332116960200     1.007825032230

  Running in cs symmetry.

  Rotational constants: A =      1.13829  B =      0.31510  C =      0.27700 [cm^-1]
  Rotational constants: A =  34125.02094  B =   9446.44529  C =   8304.14958 [MHz]
  Nuclear repulsion =   84.288085518465849

  Charge       = 0
  Multiplicity = 1
  Electrons    = 26
  Nalpha       = 13
  Nbeta        = 13

  ==> Algorithm <==

  SCF Algorithm Type is DF.
  DIIS enabled.
  MOM disabled.
  Fractional occupation disabled.
  Guess Type is SAD.
  Energy threshold   = 1.00e-10
  Density threshold  = 1.00e-10
  Integral threshold = 0.00e+00

  ==> Primary Basis <==

  Basis Set: ANONYMOUS8A8DDA0E
    Blend: 6-31G_2DFP_
    Number of shells: 52
    Number of basis function: 134
    Number of Cartesian functions: 149
    Spherical Harmonics?: true
    Max angular momentum: 3

  ==> DFT Potential <==

   => Composite Functional: B3LYP <= 

    B3LYP Hyb-GGA Exchange-Correlation Functional

    P. J. Stephens, F. J. Devlin, C. F. Chabalowski, and M. J. Frisch, J. Phys. Chem. 98, 11623 (1994)

    Deriv               =              1
    GGA                 =           TRUE
    Meta                =          FALSE

    Exchange Hybrid     =           TRUE
    MP2 Hybrid          =          FALSE

   => Exchange Functionals <=

    0.0800   Slater exchange
    0.7200         Becke 88

   => Exact (HF) Exchange <=

    0.2000               HF 

   => Correlation Functionals <=

    0.1900   Vosko, Wilk & Nusair (VWN5_RPA)
    0.8100   Lee, Yang & Parr

   => Molecular Quadrature <=

    Radial Scheme          =       TREUTLER
    Pruning Scheme         =           NONE
    Nuclear Scheme         =       TREUTLER

    BS radius alpha        =              1
    Pruning alpha          =              1
    Radial Points          =             99
    Spherical Points       =           1202
    Total Points           =        1117303
    Total Blocks           =           7382
    Max Points             =            256
    Max Functions          =            134
    Weights Tolerance      =       1.00E-15

   => Loading Basis Set <=

    Name: (ANONYMOUS8A8DDA0E AUX)
    Role: JKFIT
    Keyword: DF_BASIS_SCF
    atoms 1       entry N          line   258 file /opt/psi/4/master/share/psi4/basis/def2-universal-jkfit.gbs 
    atoms 2, 5-10 entry H          line    18 file /opt/psi/4/master/share/psi4/basis/def2-universal-jkfit.gbs 
    atoms 3-4     entry C          line   198 file /opt/psi/4/master/share/psi4/basis/def2-universal-jkfit.gbs 

  ==> Integral Setup <==

  DFHelper Memory: AOs need 0.052 GiB; user supplied 6.078 GiB. Using in-core AOs.

  ==> MemDFJK: Density-Fitted J/K Matrices <==

    J tasked:                   Yes
    K tasked:                   Yes
    wK tasked:                   No
    OpenMP threads:               1
    Memory [MiB]:              6223
    Algorithm:                 Core
    Schwarz Cutoff:           1E-12
    Mask sparsity (%):       0.6237
    Fitting Condition:        1E-10

   => Auxiliary Basis Set <=

  Basis Set: (ANONYMOUS8A8DDA0E AUX)
    Blend: DEF2-UNIVERSAL-JKFIT
    Number of shells: 117
    Number of basis function: 353
    Number of Cartesian functions: 411
    Spherical Harmonics?: true
    Max angular momentum: 4

  Cached 100.0% of DFT collocation blocks in 3.701 [GiB].

  Minimum eigenvalue in the overlap matrix is 2.4211195390E-03.
  Reciprocal condition number of the overlap matrix is 4.4467275868E-04.
    Using symmetric orthogonalization.

  ==> Pre-Iterations <==

  SCF Guess: Superposition of Atomic Densities via on-the-fly atomic UHF (no occupation information).

   -------------------------
    Irrep   Nso     Nmo    
   -------------------------
     A'        73      73 
     A"        61      61 
   -------------------------
    Total     134     134
   -------------------------

  ==> Iterations <==

                           Total Energy        Delta E     RMS |[F,P]|

   @DF-RKS iter SAD:  -134.62933871791148   -1.34629e+02   0.00000e+00 
   @DF-RKS iter   1:  -134.88885782812795   -2.59519e-01   7.80463e-03 DIIS
   @DF-RKS iter   2:  -134.69952151603439    1.89336e-01   1.00927e-02 DIIS
   @DF-RKS iter   3:  -135.17271673245446   -4.73195e-01   1.08349e-03 DIIS
   @DF-RKS iter   4:  -135.17654819092877   -3.83146e-03   4.37331e-04 DIIS
   @DF-RKS iter   5:  -135.17727378848167   -7.25598e-04   7.44212e-05 DIIS
   @DF-RKS iter   6:  -135.17729587182609   -2.20833e-05   9.50887e-06 DIIS
   @DF-RKS iter   7:  -135.17729632124176   -4.49416e-07   2.16444e-06 DIIS
   @DF-RKS iter   8:  -135.17729634616285   -2.49211e-08   1.24568e-07 DIIS
   @DF-RKS iter   9:  -135.17729634623043   -6.75868e-11   6.06455e-08 DIIS
   @DF-RKS iter  10:  -135.17729634624897   -1.85310e-11   3.32619e-09 DIIS
   @DF-RKS iter  11:  -135.17729634624931   -3.41061e-13   3.55470e-10 DIIS
   @DF-RKS iter  12:  -135.17729634624951   -1.98952e-13   4.26548e-11 DIIS
  Energy and wave function converged.


  ==> Post-Iterations <==

    Orbital Energies [Eh]
    ---------------------

    Doubly Occupied:                                                      

       1Ap   -14.309633     1App  -10.190744     2Ap   -10.190715  
       3Ap    -0.893788     2App   -0.694377     4Ap    -0.623936  
       5Ap    -0.483204     6Ap    -0.438433     3App   -0.428895  
       4App   -0.381867     7Ap    -0.360402     5App   -0.356199  
       8Ap    -0.220103  

    Virtual:                                                              

       9Ap     0.076832    10Ap     0.123547     6App    0.134687  
      11Ap     0.149005    12Ap     0.155240     7App    0.181672  
       8App    0.185327    13Ap     0.200227     9App    0.255789  
      14Ap     0.408678    10App    0.430212    15Ap     0.444533  
      16Ap     0.460553    11App    0.470711    17Ap     0.489995  
      12App    0.512086    18Ap     0.546933    19Ap     0.594569  
      13App    0.598957    14App    0.612256    20Ap     0.616107  
      15App    0.620894    21Ap     0.635039    16App    0.653193  
      22Ap     0.654597    23Ap     0.707310    17App    0.718658  
      24Ap     0.800311    25Ap     0.831934    18App    0.851549  
      19App    0.903993    20App    0.958969    26Ap     1.003908  
      27Ap     1.031331    28Ap     1.098185    21App    1.119118  
      29Ap     1.152271    30Ap     1.168482    22App    1.192721  
      31Ap     1.209555    23App    1.265658    32Ap     1.290394  
      33Ap     1.329382    24App    1.353234    34Ap     1.359050  
      25App    1.390331    26App    1.398614    27App    1.427461  
      35Ap     1.442279    28App    1.472197    36Ap     1.520035  
      37Ap     1.619368    29App    1.631047    38Ap     1.686239  
      30App    1.700426    39Ap     1.751956    31App    1.801090  
      40Ap     1.812613    41Ap     1.866708    32App    1.903124  
      42Ap     1.958856    33App    2.002208    34App    2.123080  
      43Ap     2.401803    44Ap     2.896953    35App    2.914417  
      45Ap     2.918795    46Ap     2.938241    36App    2.953214  
      37App    2.987325    47Ap     3.008497    38App    3.019503  
      39App    3.089325    48Ap     3.144863    40App    3.150217  
      49Ap     3.179312    50Ap     3.228907    41App    3.347276  
      51Ap     3.352235    52Ap     3.378611    42App    3.441634  
      43App    3.456375    53Ap     3.458584    44App    3.552458  
      45App    3.561467    54Ap     3.633936    55Ap     3.742968  
      46App    3.781929    56Ap     3.807637    47App    3.919632  
      57Ap     3.976461    58Ap     4.038899    59Ap     4.110448  
      60Ap     4.168264    48App    4.178252    49App    4.191405  
      61Ap     4.229486    50App    4.262254    62Ap     4.320147  
      51App    4.340359    63Ap     4.417835    52App    4.424299  
      53App    4.454417    64Ap     4.595715    65Ap     4.694387  
      54App    4.731684    66Ap     4.733454    55App    4.873271  
      56App    4.957396    67Ap     4.991769    57App    5.023944  
      68Ap     5.069072    69Ap     5.199071    58App    5.235721  
      70Ap     5.252156    71Ap     5.399834    59App    5.411502  
      72Ap     5.442925    60App    5.463040    61App    5.724276  
      73Ap     5.885840  

    Final Occupation by Irrep:
             Ap   App 
    DOCC [     8,    5 ]

  @DF-RKS Final Energy:  -135.17729634624951

   => Energetics <=

    Nuclear Repulsion Energy =             84.2880855184658486
    One-Electron Energy =                -347.9078153349739750
    Two-Electron Energy =                 144.9665693161277886
    DFT Exchange-Correlation Energy =     -16.5241358458691643
    Empirical Dispersion Energy =           0.0000000000000000
    VV10 Nonlocal Energy =                  0.0000000000000000
    Total Energy =                       -135.1772963462495056

Computation Completed


Properties will be evaluated at   0.000000,   0.000000,   0.000000 [a0]

Properties computed using the SCF density matrix

  Nuclear Dipole Moment: [e a0]
     X:    -1.5285      Y:     0.7637      Z:     0.0000

  Electronic Dipole Moment: [e a0]
     X:     1.4369      Y:    -0.4139      Z:     0.0000

  Dipole Moment: [e a0]
     X:    -0.0916      Y:     0.3498      Z:     0.0000     Total:     0.3616

  Dipole Moment: [D]
     X:    -0.2327      Y:     0.8892      Z:     0.0000     Total:     0.9191


*** tstop() called on n021 at Sat Nov  6 14:36:21 2021
Module time:
	user time   =      69.92 seconds =       1.17 minutes
	system time =       0.82 seconds =       0.01 minutes
	total time  =         71 seconds =       1.18 minutes
Total time:
	user time   =      69.92 seconds =       1.17 minutes
	system time =       0.82 seconds =       0.01 minutes
	total time  =         71 seconds =       1.18 minutes
Grab this energy -135.1772963462495
    Psi4 stopped on: Saturday, 06 November 2021 02:36PM
    Psi4 wall time for execution: 0:01:10.78

*** Psi4 exiting successfully. Buy a developer a beer!
