
 Primary working directories    : /tmp/870712.421.gen4.q
 Secondary working directories  : /tmp/870712.421.gen4.q
 Wavefunction directory         : /home/vulcan/lo21740/wfu/
 Main file repository           : /tmp/870712.421.gen4.q/

 ARCHNAME  : Linux/x86_64
 FC        : /opt/intel/compilers_and_libraries_2016.1.150/linux/bin/intel64/ifort
 FCVERSION : 16.0.1
 BLASLIB   : -mkl
 id        : ccgc

 Nodes     nprocs
 n040         1
 ga_uses_ma=false, calling ma_init with nominal heap.
 GA-space will be limited to   8.0 MW (determined by -G option)

 Using customized tuning parameters: mindgm=10; mindgv=16; mindgc=4; mindgr=1; noblas=0; mincuda=1000; minvec=7
 default implementation of scratch files=df  

 ***,Optimization of formic acid
 memory,1000,m
 gthresh,energy=1.0d-12,orbital=1.0d-10,oneint=1.0d-16,twoint=1.0d-16,optgrad=1.0d-6,compress=1.0d-13
 geomtyp=xyz
 
 bohr
 geometry = {
  C   -3.5010193797   -0.8291017250   -0.0000000000
  O   -3.0969602345    1.6247101640    0.0000000000
  O   -1.8829963062   -2.4819252515   -0.0000000000
  H   -5.5197433153   -1.2735895260   -0.0000000000
  H   -1.2416509948    1.9512365219    0.0000000000
  C    3.5001968434    0.8324414951   -0.0000000000
  O    3.0917248029   -1.6206529192   -0.0000000000
  O    1.8877811073    2.4805248019    0.0000000000
  H    5.5199532066    1.2731679877    0.0000000000
  H    1.2427142704   -1.9568115488   -0.0000000000
 }
 
 basis=AVTZ
 {rhf;maxit,200}
 {mp2}

 Variables initialized (661), CPU time= 0.00 sec
 Commands  initialized (458), CPU time= 0.01 sec, 486 directives.
 Default parameters read. Elapsed time= 0.07 sec

 Checking input...
 Passed
1


                                         ***  PROGRAM SYSTEM MOLPRO  ***
                         Copyright, University College Cardiff Consultants Limited, 2008

                                    Version 2010.1 linked May 16 2016 07:17:05


 **********************************************************************************************************************************
 LABEL *   Optimization of formic acid                                                   
 Linux-4.4.3/n040(x86_64) 64 bit mpp version                                             DATE: 12-May-23          TIME: 21:42:24  
 **********************************************************************************************************************************

 SHA1:             9e8077add272b0f3cad6f7df79ec5211205f459d
 **********************************************************************************************************************************

 THRESHOLDS:

 ZERO    =  1.00D-12  ONEINT  =  1.00D-16  TWOINT  =  1.00D-16  PREFAC  =  1.00D-14  LOCALI  =  1.00D-09  EORDER  =  1.00D-04
 ENERGY  =  1.00D-12  ETEST   =  0.00D+00  EDENS   =  0.00D+00  THRDEDEF=  1.00D-06  GRADIENT=  1.00D-02  STEP    =  1.00D-03
 ORBITAL =  1.00D-10  CIVEC   =  1.00D-05  COEFF   =  1.00D-04  PRINTCI =  5.00D-02  PUNCHCI =  9.90D+01  OPTGRAD =  1.00D-06
 OPTENERG=  1.00D-06  OPTSTEP =  3.00D-04  THRGRAD =  1.00D-10  COMPRESS=  1.00D-13  VARMIN  =  1.00D-07  VARMAX  =  1.00D-03
 THRDOUB =  0.00D+00  THRDIV  =  1.00D-05  THRRED  =  1.00D-07  THRPSP  =  1.00D+00  THRDC   =  1.00D-10  THRCS   =  1.00D-10
 THRNRM  =  1.00D-08  THREQ   =  0.00D+00  THRDE   =  1.00D+00  THRREF  =  1.00D-05  SPARFAC =  1.00D+00  THRDLP  =  1.00D-07
 THRDIA  =  1.00D-10  THRDLS  =  1.00D-07  THRGPS  =  0.00D+00  THRKEX  =  0.00D+00  THRDIS  =  2.00D-01  THRVAR  =  1.00D-10
 THRLOC  =  1.00D-06  THRGAP  =  1.00D-06  THRLOCT = -1.00D+00  THRGAPT = -1.00D+00  THRORB  =  1.00D-06  THRMLTP =  0.00D+00
 THRCPQCI=  1.00D-10  KEXTA   =  0.00D+00  THRCOARS=  0.00D+00  SYMTOL  =  1.00D-06  GRADTOL =  1.00D-06  THROVL  =  1.00D-08
 THRORTH =  1.00D-08  GRID    =  1.00D-06  GRIDMAX =  1.00D-03  DTMAX   =  0.00D+00

 SETTING GEOMTYP        =    XYZ
 ZUNIT=BOHR
 

 Variable memory set to 1000000000 words,  buffer space   230000 words

 SETTING BASIS          =    AVTZ


 Recomputing integrals since basis changed


 Using spherical harmonics

 Library entry C      S aug-cc-pVTZ          selected for orbital group  1
 Library entry C      P aug-cc-pVTZ          selected for orbital group  1
 Library entry C      D aug-cc-pVTZ          selected for orbital group  1
 Library entry C      F aug-cc-pVTZ          selected for orbital group  1
 Library entry O      S aug-cc-pVTZ          selected for orbital group  2
 Library entry O      P aug-cc-pVTZ          selected for orbital group  2
 Library entry O      D aug-cc-pVTZ          selected for orbital group  2
 Library entry O      F aug-cc-pVTZ          selected for orbital group  2
 Library entry H      S aug-cc-pVTZ          selected for orbital group  3
 Library entry H      P aug-cc-pVTZ          selected for orbital group  3
 Library entry H      D aug-cc-pVTZ          selected for orbital group  3

1PROGRAM * SEWARD (Integral evaluation for generally contracted gaussian basis sets)     Author: Roland Lindh, 1990

 Geometry written to block  1 of record 700


 Point group  Cs  



 ATOMIC COORDINATES

 NR  ATOM    CHARGE       X              Y              Z

   1  C       6.00   -3.501019380   -0.829101725    0.000000000
   2  O       8.00   -3.096960235    1.624710164    0.000000000
   3  O       8.00   -1.882996306   -2.481925251    0.000000000
   4  H       1.00   -5.519743315   -1.273589526    0.000000000
   5  H       1.00   -1.241650995    1.951236522    0.000000000
   6  C       6.00    3.500196843    0.832441495    0.000000000
   7  O       8.00    3.091724803   -1.620652919    0.000000000
   8  O       8.00    1.887781107    2.480524802    0.000000000
   9  H       1.00    5.519953207    1.273167988    0.000000000
  10  H       1.00    1.242714270   -1.956811549    0.000000000

 Bond lengths in Bohr (Angstrom)

 1-2  2.486856767  1-3  2.312968715  1-4  2.067079034  2-5  1.883823728  6-7  2.486869842
     ( 1.315987923)     ( 1.223970329)     ( 1.093851114)     ( 0.996876583)     ( 1.315994842)

  6- 8  2.305658928   6- 9  2.067282179   7-10  1.879319710
       ( 1.220102156)       ( 1.093958614)       ( 0.994493159)

 Bond angles

  1-2-5  109.33233658   2-1-3  126.25883139   2-1-4  111.76814406   3-1-4  121.97302455

  6- 7-10  109.75784739   7- 6- 8  126.17299669   7- 6- 9  111.76318802   8- 6- 9  122.06381529

 NUCLEAR CHARGE:                   48
 NUMBER OF PRIMITIVE AOS:         510
 NUMBER OF SYMMETRY AOS:          448
 NUMBER OF CONTRACTIONS:          368   ( 244A'  + 124A"  )
 NUMBER OF CORE ORBITALS:           6   (   6A'  +   0A"  )
 NUMBER OF VALENCE ORBITALS:       28   (  22A'  +   6A"  )


 NUCLEAR REPULSION ENERGY  235.53081573


 Eigenvalues of metric

         1 0.342E-04 0.373E-04 0.557E-04 0.628E-04 0.145E-03 0.169E-03 0.226E-03 0.231E-03
         2 0.246E-02 0.273E-02 0.344E-02 0.346E-02 0.466E-02 0.570E-02 0.652E-02 0.742E-02


 Contracted 2-electron integrals neglected if value below      1.0D-16
 AO integral compression algorithm  1   Integral accuracy      1.0D-16

     8717.599 MB (compressed) written to integral file ( 85.0%)

     Node minimum: 8717.599 MB, node maximum: 8717.599 MB


 NUMBER OF SORTED TWO-ELECTRON INTEGRALS: 1171698620.     BUFFER LENGTH:  32768
 NUMBER OF SEGMENTS:  37  SEGMENT LENGTH:   31999270      RECORD LENGTH: 524288

 Memory used in sort:      32.56 MW

 SORT1 READ  1282336114. AND WROTE  1129863312. INTEGRALS IN   3251 RECORDS. CPU TIME:    18.28 SEC, REAL TIME:    54.32 SEC
 SORT2 READ  1129863312. AND WROTE  1171698620. INTEGRALS IN  33255 RECORDS. CPU TIME:    10.59 SEC, REAL TIME:    47.04 SEC

 FILE SIZES:   FILE 1:  8327.9 MBYTE,  FILE 4: 13635.7 MBYTE,   TOTAL:  21963.6 MBYTE

 OPERATOR DM      FOR CENTER  0  COORDINATES:    0.000000    0.000000    0.000000


 **********************************************************************************************************************************
 DATASETS  * FILE   NREC   LENGTH (MB)   RECORD NAMES
              1      19     8328.77       500      610      700      900      950      970     1000      129      960     1100   
                                          VAR    BASINP    GEOM    SYMINP    ZMAT    AOBASIS   BASIS     P2S    ABASIS      S 
                                         1400     1410     1200     1210     1080     1600     1650     1300     1700   
                                           T        V       H0       H01     AOSYM     SMH    MOLCAS    ERIS     OPER   

 PROGRAMS   *        TOTAL       INT
 CPU TIMES  *        97.94     97.88
 REAL TIME  *       182.70 SEC
 DISK USED  *        30.68 GB      
 GA USED    *         0.01 MB       (max)       0.00 MB       (current)
 **********************************************************************************************************************************

1PROGRAM * RHF-SCF (CLOSED SHELL)       Authors: W. Meyer, H.-J. Werner


 NUMBER OF ELECTRONS:      24+   24-
 CONVERGENCE THRESHOLDS:    1.00E-10 (Density)    1.00E-13 (Energy)
 MAX. NUMBER OF ITERATIONS:      200
 INTERPOLATION TYPE:            DIIS
 INTERPOLATION STEPS:              2 (START)      1 (STEP)
 LEVEL SHIFTS:                  0.00 (CLOSED)  0.00 (OPEN) 



 Orbital guess generated from atomic densities. Full valence occupancy:   28   6

 Molecular orbital dump at record        2100.2

 Initial alpha occupancy:  20   4
 Initial beta  occupancy:  20   4
 Wave function symmetry:    1

 ITERATION    DDIFF          GRAD             ENERGY        2-EL.EN.            DIPOLE MOMENTS         DIIS
    1      0.000D+00      0.000D+00      -377.56684466    747.032340   -0.00652    0.01063    0.00000    0
    2      0.000D+00      0.432D-02      -377.65472789    743.935568   -0.00163    0.00180    0.00000    1
    3      0.706D-02      0.283D-02      -377.70442782    746.291216   -0.00510    0.00660    0.00000    2
    4      0.276D-02      0.380D-03      -377.70600996    745.935683   -0.00396    0.00497    0.00000    3
    5      0.573D-03      0.167D-03      -377.70629491    745.976139   -0.00456    0.00575    0.00000    4
    6      0.222D-03      0.482D-04      -377.70634232    746.021911   -0.00440    0.00546    0.00000    5
    7      0.833D-04      0.207D-04      -377.70635329    746.002953   -0.00447    0.00556    0.00000    6
    8      0.452D-04      0.677D-05      -377.70635466    746.009219   -0.00444    0.00549    0.00000    7
    9      0.175D-04      0.221D-05      -377.70635479    746.007845   -0.00448    0.00557    0.00000    8
   10      0.543D-05      0.665D-06      -377.70635480    746.008011   -0.00445    0.00550    0.00000    8
   11      0.176D-05      0.251D-06      -377.70635480    746.008018   -0.00448    0.00555    0.00000    8
   12      0.513D-06      0.119D-06      -377.70635480    746.007984   -0.00446    0.00553    0.00000    9
   13      0.205D-06      0.216D-07      -377.70635480    746.007985   -0.00446    0.00553    0.00000    8
   14      0.468D-07      0.665D-08      -377.70635480    746.007986   -0.00446    0.00553    0.00000    8
   15      0.137D-07      0.297D-08      -377.70635480    746.007987   -0.00446    0.00553    0.00000    8
   16      0.457D-08      0.882D-09      -377.70635480    746.007986   -0.00446    0.00553    0.00000    8
   17      0.134D-08      0.357D-09      -377.70635480    746.007986   -0.00446    0.00553    0.00000    8
   18      0.553D-09      0.107D-09      -377.70635480    746.007986   -0.00446    0.00553    0.00000    8
   19      0.213D-09      0.431D-10      -377.70635480    746.007986   -0.00446    0.00553    0.00000    8
   20      0.110D-09      0.201D-10      -377.70635480    746.007986   -0.00446    0.00553    0.00000    8
   21      0.507D-10      0.856D-11      -377.70635480    746.007986   -0.00446    0.00553    0.00000    9
   22      0.366D-10      0.434D-11      -377.70635480    746.007986   -0.00446    0.00553    0.00000    0

 Final occupancy:  20   4

 !RHF STATE 1.1 Energy               -377.706354802184
 Nuclear energy                       235.53081573
 One-electron energy                 -986.24116363
 Two-electron energy                  373.00399310
 Virial quotient                       -1.00182862
 !RHF STATE 1.1 Dipole moment          -0.00446415     0.00553128     0.00000000
 Dipole moment /Debye                  -0.01134600     0.01405819     0.00000000

 Orbital energies:

         1.1          2.1          3.1          4.1          5.1          6.1          7.1          8.1          9.1         10.1
    -20.618306   -20.617002   -20.577276   -20.577257   -11.409560   -11.408688    -1.485568    -1.472788    -1.387589    -1.373528

        11.1         12.1         13.1         14.1         15.1         16.1         17.1         18.1         19.1         20.1
     -0.919620    -0.883964    -0.769489    -0.733725    -0.724955    -0.695867    -0.621902    -0.581379    -0.498465    -0.475827

        21.1         22.1
      0.029625     0.033632

         1.2          2.2          3.2          4.2          5.2          6.2
     -0.645512    -0.635129    -0.507399    -0.495793     0.066548     0.082392


 **********************************************************************************************************************************
 DATASETS  * FILE   NREC   LENGTH (MB)   RECORD NAMES
              1      19     8328.77       500      610      700      900      950      970     1000      129      960     1100   
                                          VAR    BASINP    GEOM    SYMINP    ZMAT    AOBASIS   BASIS     P2S    ABASIS      S 
                                         1400     1410     1200     1210     1080     1600     1650     1300     1700   
                                           T        V       H0       H01     AOSYM     SMH    MOLCAS    ERIS     OPER   

              2       3        1.97       700     1000     2100   
                                         GEOM     BASIS     RHF  

 PROGRAMS   *        TOTAL       RHF       INT
 CPU TIMES  *       263.25    165.31     97.88
 REAL TIME  *       367.02 SEC
 DISK USED  *        30.68 GB      
 GA USED    *         0.01 MB       (max)       0.00 MB       (current)
 **********************************************************************************************************************************


1PROGRAM * MP2 (Closed-shell)     Authors: C. Hampel, H.-J. Werner, 1991, M. Deegan, P.J. Knowles, 1992


 Convergence thresholds:  THRVAR = 1.00D-08  THRDEN = 1.00D-12

 Number of core orbitals:           6 (   6   0 )
 Number of closed-shell orbitals:  18 (  14   4 )
 Number of external orbitals:     344 ( 224 120 )

 Molecular orbitals read from record     2100.2  Type=RHF/CANONICAL (state 1.1)

 Number of N-1 electron functions:              18
 Number of N-2 electron functions:             171
 Number of singly external CSFs:              3616
 Number of doubly external CSFs:           9858712
 Total number of CSFs:                     9862329

 Length of J-op  integral file:               0.00 MB
 Length of K-op  integral file:               5.20 MB

 Integral transformation finished. Total CPU:  17.95 sec, npass=  1  Memory used:  13.03 MW

 Memory needed for MP2:                      0.37 MW

 SCS-MP2 correlation energy:           -1.263900599180   (PS=  1.200000  PT=  0.333333)
 SCS-MP2 total energy:               -378.970255401364


  Reference energy                   -377.706354802184
  MP2 singlet pair energy              -0.794155616111
  MP2 triplet pair energy              -0.499682989040
  MP2 correlation energy               -1.293838605151

 !MP2 total energy                   -379.000193407335


 **********************************************************************************************************************************
 DATASETS  * FILE   NREC   LENGTH (MB)   RECORD NAMES
              1      20     8474.91       500      610      700      900      950      970     1000      129      960     1100   
                                          VAR    BASINP    GEOM    SYMINP    ZMAT    AOBASIS   BASIS     P2S    ABASIS      S 
                                         1400     1410     1200     1210     1080     1600     1650     1300     1700     1380   
                                           T        V       H0       H01     AOSYM     SMH    MOLCAS    ERIS     OPER     JKOP   

              2       3        1.97       700     1000     2100   
                                         GEOM     BASIS     RHF  

 PROGRAMS   *        TOTAL       MP2       RHF       INT
 CPU TIMES  *       282.15     18.90    165.31     97.88
 REAL TIME  *       387.06 SEC
 DISK USED  *        30.68 GB      
 GA USED    *         0.01 MB       (max)       0.00 MB       (current)
 **********************************************************************************************************************************

        MP2             RHF-SCF 
   -379.00019341   -377.70635480
 **********************************************************************************************************************************
 Variable memory released
