
 Primary working directories    : /tmp/1047041.744.gen6.q
 Secondary working directories  : /tmp/1047041.744.gen6.q
 Wavefunction directory         : /home/vulcan/mel64643/wfu/
 Main file repository           : /tmp/1047041.744.gen6.q/

 ARCHNAME  : Linux/x86_64
 FC        : /opt/intel/compilers_and_libraries_2016.1.150/linux/bin/intel64/ifort
 FCVERSION : 16.0.1
 BLASLIB   : -mkl
 id        : ccgc

 Nodes     nprocs
 n080         1
 ga_uses_ma=false, calling ma_init with nominal heap.
 GA-space will be limited to   8.0 MW (determined by -G option)

 Using customized tuning parameters: mindgm=10; mindgv=16; mindgc=4; mindgr=1; noblas=0; mincuda=1000; minvec=7
 default implementation of scratch files=df  

 ***,Optimization of ben_hcn
 memory,1000,m
 gthresh,energy=1.0d-12,orbital=1.0d-10,oneint=1.0d-16,twoint=1.0d-16,optgrad=1.0d-6,compress=1.0d-13
 geomtyp=xyz
 
 
 
 bohr
 geometry = {
  C   -1.8845666223    1.3694722040    2.2860980036
  C   -1.8574746606    2.6901912629   -0.0037696076
  C   -1.8748924522    1.3676084170   -2.2926401900
  C   -1.9193649354   -1.2754832739   -2.2915595268
  C   -1.9464430941   -2.5960196283   -0.0018224233
  C   -1.9290182455   -1.2736389535    2.2869562972
  H   -1.8651958270    2.3968004567    4.0643225392
  H   -1.8276427068    4.7350707769   -0.0045503775
  H   -1.8377313120    2.3889538328   -4.0640286524
  H   -1.9264344995   -2.3030134758   -4.0697275345
  H   -1.9844316212   -4.6407139177   -0.0010626276
  H   -1.9333594185   -2.2955680779    4.0583719089
  N    6.6241463175   -0.1990538068    0.0073707356
  C    4.4344426018   -0.0759555211    0.0101973024
  H    2.4147677227    0.0378732527    0.0129446667
 }
 
 basis=aug-cc-pvdz, H=cc-pvdz
 {rhf;maxit,200}
 {ccsd(t)}

 Variables initialized (661), CPU time= 0.00 sec
 Commands  initialized (458), CPU time= 0.01 sec, 486 directives.
 Default parameters read. Elapsed time= 0.05 sec

 Checking input...
 Passed
1


                                         ***  PROGRAM SYSTEM MOLPRO  ***
                         Copyright, University College Cardiff Consultants Limited, 2008

                                    Version 2010.1 linked May 16 2016 07:17:05


 **********************************************************************************************************************************
 LABEL *   Optimization of ben_hcn                                                       
 Linux-4.4.3/n080(x86_64) 64 bit mpp version                                             DATE: 08-Mar-24          TIME: 06:15:07  
 **********************************************************************************************************************************

 SHA1:             9e8077add272b0f3cad6f7df79ec5211205f459d
 **********************************************************************************************************************************

 THRESHOLDS:

 ZERO    =  1.00D-12  ONEINT  =  1.00D-16  TWOINT  =  1.00D-16  PREFAC  =  1.00D-14  LOCALI  =  1.00D-09  EORDER  =  1.00D-04
 ENERGY  =  1.00D-12  ETEST   =  0.00D+00  EDENS   =  0.00D+00  THRDEDEF=  1.00D-06  GRADIENT=  1.00D-02  STEP    =  1.00D-03
 ORBITAL =  1.00D-10  CIVEC   =  1.00D-05  COEFF   =  1.00D-04  PRINTCI =  5.00D-02  PUNCHCI =  9.90D+01  OPTGRAD =  1.00D-06
 OPTENERG=  1.00D-06  OPTSTEP =  3.00D-04  THRGRAD =  1.00D-10  COMPRESS=  1.00D-13  VARMIN  =  1.00D-07  VARMAX  =  1.00D-03
 THRDOUB =  0.00D+00  THRDIV  =  1.00D-05  THRRED  =  1.00D-07  THRPSP  =  1.00D+00  THRDC   =  1.00D-10  THRCS   =  1.00D-10
 THRNRM  =  1.00D-08  THREQ   =  0.00D+00  THRDE   =  1.00D+00  THRREF  =  1.00D-05  SPARFAC =  1.00D+00  THRDLP  =  1.00D-07
 THRDIA  =  1.00D-10  THRDLS  =  1.00D-07  THRGPS  =  0.00D+00  THRKEX  =  0.00D+00  THRDIS  =  2.00D-01  THRVAR  =  1.00D-10
 THRLOC  =  1.00D-06  THRGAP  =  1.00D-06  THRLOCT = -1.00D+00  THRGAPT = -1.00D+00  THRORB  =  1.00D-06  THRMLTP =  0.00D+00
 THRCPQCI=  1.00D-10  KEXTA   =  0.00D+00  THRCOARS=  0.00D+00  SYMTOL  =  1.00D-06  GRADTOL =  1.00D-06  THROVL  =  1.00D-08
 THRORTH =  1.00D-08  GRID    =  1.00D-06  GRIDMAX =  1.00D-03  DTMAX   =  0.00D+00

 SETTING GEOMTYP        =    XYZ
 ZUNIT=BOHR
 

 Variable memory set to 1000000000 words,  buffer space   230000 words

 SETTING BASIS          =    AUG-CC-PVDZ,H=CC-PVDZ


 Recomputing integrals since basis changed


 Using spherical harmonics

 Library entry C      S aug-cc-pVDZ          selected for orbital group  1
 Library entry C      P aug-cc-pVDZ          selected for orbital group  1
 Library entry C      D aug-cc-pVDZ          selected for orbital group  1
 Library entry H      S cc-pVDZ              selected for orbital group  2
 Library entry H      P cc-pVDZ              selected for orbital group  2
 Library entry N      S aug-cc-pVDZ          selected for orbital group  3
 Library entry N      P aug-cc-pVDZ          selected for orbital group  3
 Library entry N      D aug-cc-pVDZ          selected for orbital group  3

1PROGRAM * SEWARD (Integral evaluation for generally contracted gaussian basis sets)     Author: Roland Lindh, 1990

 Geometry written to block  1 of record 700


 Point group  C1  



 ATOMIC COORDINATES

 NR  ATOM    CHARGE       X              Y              Z

   1  C       6.00   -1.884566622    1.369472204    2.286098004
   2  C       6.00   -1.857474661    2.690191263   -0.003769608
   3  C       6.00   -1.874892452    1.367608417   -2.292640190
   4  C       6.00   -1.919364935   -1.275483274   -2.291559527
   5  C       6.00   -1.946443094   -2.596019628   -0.001822423
   6  C       6.00   -1.929018246   -1.273638953    2.286956297
   7  H       1.00   -1.865195827    2.396800457    4.064322539
   8  H       1.00   -1.827642707    4.735070777   -0.004550378
   9  H       1.00   -1.837731312    2.388953833   -4.064028652
  10  H       1.00   -1.926434500   -2.303013476   -4.069727535
  11  H       1.00   -1.984431621   -4.640713918   -0.001062628
  12  H       1.00   -1.933359419   -2.295568078    4.058371909
  13  N       7.00    6.624146318   -0.199053807    0.007370736
  14  C       6.00    4.434442602   -0.075955521    0.010197302
  15  H       1.00    2.414767723    0.037873253    0.012944667

 Bond lengths in Bohr (Angstrom)

 1-2  2.643582131  1-6  2.643485062  1-7  2.053743184  2-3  2.643569047  2-8  2.045097255
     ( 1.398923414)     ( 1.398872047)     ( 1.086794086)     ( 1.398916490)     ( 1.082218857)

  3- 4  2.643466031   3- 9  2.045078114   4- 5  2.643377668   4-10  2.053716085   5- 6  2.643388414
       ( 1.398861976)       ( 1.082208729)       ( 1.398815216)       ( 1.086779746)       ( 1.398820903)

  5-11  2.045047296   6-12  2.045060207  13-14  2.193162908  14-15  2.022881893
       ( 1.082192420)       ( 1.082199253)       ( 1.160571826)       ( 1.070462995)

 Bond angles

  1- 2- 3  119.99746680   1- 2- 8  120.00142117   1- 6- 5  120.00123407   1- 6-12  119.99684980

  2-1-6  119.99850423   2-1-7  119.99930032   2-3-4  119.99920812   2-3-9  119.99834978

  3- 2- 8  120.00094463   3- 4- 5  120.00130468   3- 4-10  119.99737976   4- 3- 9  120.00035786

  4- 5- 6  120.00228208   4- 5-11  119.99933128   5- 4-10  120.00098993   5- 6-12  119.99974495

  6- 1- 7  120.00192395   6- 5-11  119.99828651  13-14-15  179.99091354

 NUCLEAR CHARGE:                   56
 NUMBER OF PRIMITIVE AOS:         345
 NUMBER OF SYMMETRY AOS:          329
 NUMBER OF CONTRACTIONS:          219   ( 219A   )
 NUMBER OF CORE ORBITALS:           8   (   8A   )
 NUMBER OF VALENCE ORBITALS:       39   (  39A   )


 NUCLEAR REPULSION ENERGY  303.39349164


 Eigenvalues of metric

         1 0.864E-05 0.186E-04 0.229E-04 0.534E-04 0.630E-04 0.631E-04 0.926E-04 0.932E-04


 Contracted 2-electron integrals neglected if value below      1.0D-16
 AO integral compression algorithm  1   Integral accuracy      1.0D-16

     2340.159 MB (compressed) written to integral file ( 91.2%)

     Node minimum: 2340.159 MB, node maximum: 2340.159 MB


 NUMBER OF SORTED TWO-ELECTRON INTEGRALS:  290176095.     BUFFER LENGTH:  32768
 NUMBER OF SEGMENTS:  19  SEGMENT LENGTH:   15999762      RECORD LENGTH: 524288

 Memory used in sort:      16.56 MW

 SORT1 READ   320642736. AND WROTE   287605222. INTEGRALS IN    832 RECORDS. CPU TIME:     2.93 SEC, REAL TIME:     4.59 SEC
 SORT2 READ   287605222. AND WROTE   290176095. INTEGRALS IN   8927 RECORDS. CPU TIME:     2.00 SEC, REAL TIME:     3.04 SEC

 FILE SIZES:   FILE 1:  2151.1 MBYTE,  FILE 4:  3489.7 MBYTE,   TOTAL:   5640.8 MBYTE

 OPERATOR DM      FOR CENTER  0  COORDINATES:    0.000000    0.000000    0.000000


 **********************************************************************************************************************************
 DATASETS  * FILE   NREC   LENGTH (MB)   RECORD NAMES
              1      19     2151.66       500      610      700      900      950      970     1000      129      960     1100   
                                          VAR    BASINP    GEOM    SYMINP    ZMAT    AOBASIS   BASIS     P2S    ABASIS      S 
                                         1400     1410     1200     1210     1080     1600     1650     1300     1700   
                                           T        V       H0       H01     AOSYM     SMH    MOLCAS    ERIS     OPER   

 PROGRAMS   *        TOTAL       INT
 CPU TIMES  *        15.79     15.75
 REAL TIME  *        20.06 SEC
 DISK USED  *         7.98 GB      
 GA USED    *         0.01 MB       (max)       0.00 MB       (current)
 **********************************************************************************************************************************

1PROGRAM * RHF-SCF (CLOSED SHELL)       Authors: W. Meyer, H.-J. Werner


 NUMBER OF ELECTRONS:      28+   28-    SPACE SYMMETRY=1    SPIN SYMMETRY: Singlet 
 CONVERGENCE THRESHOLDS:    1.00E-10 (Density)    1.00E-13 (Energy)
 MAX. NUMBER OF ITERATIONS:      200
 INTERPOLATION TYPE:            DIIS
 INTERPOLATION STEPS:              2 (START)      1 (STEP)
 LEVEL SHIFTS:                  0.00 (CLOSED)  0.00 (OPEN) 



 Orbital guess generated from atomic densities. Full valence occupancy:   47

 Molecular orbital dump at record        2100.2

 ITERATION    DDIFF          GRAD             ENERGY        2-EL.EN.            DIPOLE MOMENTS         DIIS
    1      0.000D+00      0.000D+00      -323.54135845    822.123798   -1.89880    0.10257    0.00209    0
    2      0.000D+00      0.292D-02      -323.59779873    819.103400   -1.36876    0.04984   -0.00069    1
    3      0.781D-02      0.179D-02      -323.61439468    820.248558   -1.72960    0.07897    0.00059    2
    4      0.260D-02      0.576D-03      -323.61673108    820.450241   -1.63886    0.07175    0.00027    3
    5      0.963D-03      0.133D-03      -323.61686042    820.190261   -1.66281    0.07246    0.00025    4
    6      0.223D-03      0.229D-04      -323.61686655    820.217122   -1.66416    0.07242    0.00024    5
    7      0.845D-04      0.434D-05      -323.61686675    820.212239   -1.66451    0.07235    0.00023    6
    8      0.108D-04      0.123D-05      -323.61686677    820.213231   -1.66482    0.07241    0.00023    7
    9      0.345D-05      0.268D-06      -323.61686677    820.213264   -1.66479    0.07236    0.00023    6
   10      0.814D-06      0.714D-07      -323.61686677    820.213243   -1.66479    0.07239    0.00023    6
   11      0.185D-06      0.362D-07      -323.61686677    820.213258   -1.66479    0.07238    0.00023    7
   12      0.837D-07      0.711D-08      -323.61686677    820.213253   -1.66479    0.07238    0.00023    7
   13      0.237D-07      0.268D-08      -323.61686677    820.213256   -1.66479    0.07238    0.00023    7
   14      0.661D-08      0.892D-09      -323.61686677    820.213254   -1.66479    0.07238    0.00023    7
   15      0.236D-08      0.433D-09      -323.61686677    820.213255   -1.66479    0.07238    0.00023    8
   16      0.105D-08      0.223D-09      -323.61686677    820.213255   -1.66479    0.07238    0.00023    8
   17      0.739D-09      0.123D-09      -323.61686677    820.213255   -1.66479    0.07238    0.00023    9
   18      0.478D-09      0.381D-10      -323.61686677    820.213255   -1.66479    0.07238    0.00023    9
   19      0.230D-09      0.104D-10      -323.61686677    820.213255   -1.66479    0.07238    0.00023    9
   20      0.223D-09      0.310D-11      -323.61686677    820.213255   -1.66479    0.07238    0.00023    9
   21      0.134D-09      0.135D-11      -323.61686677    820.213255   -1.66479    0.07238    0.00023    9
   22      0.119D-09      0.816D-12      -323.61686677    820.213255   -1.66479    0.07238    0.00023    9
   23      0.119D-09      0.524D-12      -323.61686677    820.213255   -1.66479    0.07238    0.00023    9
   24      0.537D-10      0.622D-12      -323.61686677    820.213255   -1.66479    0.07238    0.00023    9
   25      0.561D-10      0.612D-12      -323.61686677    820.213255   -1.66479    0.07238    0.00023    9
   26      0.261D-10      0.504D-12      -323.61686677    820.213255   -1.66479    0.07238    0.00023    9
   27      0.244D-10      0.433D-12      -323.61686677    820.213255   -1.66479    0.07238    0.00023    9
   28      0.147D-10      0.458D-12      -323.61686677    820.213255   -1.66479    0.07238    0.00023    0

 Final occupancy:  28

 !RHF STATE 1.1 Energy               -323.616866768141
 Nuclear energy                       303.39349164
 One-electron energy                -1037.11698573
 Two-electron energy                  410.10662732
 Virial quotient                       -1.00170980
 !RHF STATE 1.1 Dipole moment          -1.66478669     0.07237980     0.00023054
 Dipole moment /Debye                  -4.23118854     0.18395906     0.00058593

 Orbital energies:

         1.1          2.1          3.1          4.1          5.1          6.1          7.1          8.1          9.1         10.1
    -15.591649   -11.283865   -11.266279   -11.265865   -11.265553   -11.264631   -11.264375   -11.263899    -1.218336    -1.173918

        11.1         12.1         13.1         14.1         15.1         16.1         17.1         18.1         19.1         20.1
     -1.037969    -1.037607    -0.846037    -0.845404    -0.789910    -0.729358    -0.664886    -0.639192    -0.608928    -0.608184

        21.1         22.1         23.1         24.1         25.1         26.1         27.1         28.1         29.1         30.1
     -0.565229    -0.520433    -0.515085    -0.514563    -0.475691    -0.475686    -0.359677    -0.359657     0.055868     0.060071


 **********************************************************************************************************************************
 DATASETS  * FILE   NREC   LENGTH (MB)   RECORD NAMES
              1      19     2151.66       500      610      700      900      950      970     1000      129      960     1100   
                                          VAR    BASINP    GEOM    SYMINP    ZMAT    AOBASIS   BASIS     P2S    ABASIS      S 
                                         1400     1410     1200     1210     1080     1600     1650     1300     1700   
                                           T        V       H0       H01     AOSYM     SMH    MOLCAS    ERIS     OPER   

              2       3        1.49       700     1000     2100   
                                         GEOM     BASIS     RHF  

 PROGRAMS   *        TOTAL       RHF       INT
 CPU TIMES  *        70.05     54.26     15.75
 REAL TIME  *        79.74 SEC
 DISK USED  *         7.98 GB      
 GA USED    *         0.01 MB       (max)       0.00 MB       (current)
 **********************************************************************************************************************************


1PROGRAM * CCSD (Closed-shell coupled cluster)     Authors: C. Hampel, H.-J. Werner, 1991, M. Deegan, P.J. Knowles, 1992


 Convergence thresholds:  THRVAR = 1.00D-08  THRDEN = 1.00D-12

 CCSD(T)     terms to be evaluated (factor= 1.000)


 Number of core orbitals:           8 (   8 )
 Number of closed-shell orbitals:  20 (  20 )
 Number of external orbitals:     191 ( 191 )

 Molecular orbitals read from record     2100.2  Type=RHF/CANONICAL (state 1.1)

 Number of N-1 electron functions:              20
 Number of N-2 electron functions:             210
 Number of singly external CSFs:              3820
 Number of doubly external CSFs:           7298110
 Total number of CSFs:                     7301931

 Length of J-op  integral file:               0.00 MB
 Length of K-op  integral file:               3.32 MB
 Length of 3-ext integral record:             0.00 MB

 Memory could be reduced to 174.82 Mwords without degradation in triples

 Integral transformation finished. Total CPU:  14.24 sec, npass=  1  Memory used: 128.13 MW

 Reference energy:                   -323.61686677

 MP2 singlet pair energy:              -0.67334367
 MP2 triplet pair energy:              -0.43519848
 MP2 correlation energy:               -1.10854215
 MP2 total energy:                   -324.72540892

 SCS-MP2 correlation energy:           -1.07880257   (PS=  1.200000  PT=  0.333333)
 SCS-MP2 total energy:               -324.69566934

 ITER.      SQ.NORM     CORR.ENERGY   TOTAL ENERGY   ENERGY CHANGE        DEN1      VAR(S)    VAR(P)  DIIS     TIME
   1      1.42873407    -1.14462415  -324.76149092    -0.03608200    -0.00288951  0.51D-02  0.99D-02  1  1    60.67
   2      1.46305769    -1.15049773  -324.76736450    -0.00587358    -0.03103241  0.83D-04  0.13D-02  2  2   107.37
   3      1.47634869    -1.15094536  -324.76781213    -0.00044763    -0.00655878  0.40D-04  0.12D-03  3  3   154.13
   4      1.48204047    -1.15119508  -324.76806184    -0.00024972    -0.00178563  0.22D-05  0.15D-04  4  4   200.92
   5      1.48357012    -1.15123076  -324.76809753    -0.00003569    -0.00036600  0.25D-06  0.14D-05  5  5   247.69
   6      1.48387648    -1.15122224  -324.76808901     0.00000852    -0.00005031  0.24D-07  0.91D-07  6  6   294.49
   7      1.48391127    -1.15122565  -324.76809242    -0.00000341    -0.00000226  0.34D-08  0.80D-08  6  2   341.33
   8      1.48391597    -1.15122601  -324.76809278    -0.00000036    -0.00000042  0.41D-09  0.83D-09  6  1   388.13
   9      1.48391619    -1.15122618  -324.76809294    -0.00000017     0.00000079  0.63D-10  0.78D-10  6  3   434.96
  10      1.48391657    -1.15122623  -324.76809300    -0.00000006     0.00000002  0.10D-10  0.99D-11  6  4   481.76
  11      1.48391630    -1.15122627  -324.76809304    -0.00000004     0.00000022  0.16D-11  0.14D-11  6  5   528.56
  12      1.48391613    -1.15122628  -324.76809305    -0.00000001     0.00000008  0.25D-12  0.27D-12  6  6   575.36
  13      1.48391600    -1.15122629  -324.76809305    -0.00000000     0.00000005  0.14D-13  0.52D-13  6  2   622.18
  14      1.48391594    -1.15122629  -324.76809305    -0.00000000     0.00000002  0.22D-14  0.94D-14  6  1   669.00
  15      1.48391591    -1.15122629  -324.76809305     0.00000000     0.00000001  0.46D-15  0.13D-14  6  3   715.79
  16      1.48391590    -1.15122629  -324.76809305    -0.00000000     0.00000000  0.98D-16  0.19D-15  6  4   762.58
  17      1.48391590    -1.15122629  -324.76809305    -0.00000000     0.00000000  0.19D-16  0.28D-16  6  5   809.39
  18      1.48391590    -1.15122629  -324.76809305    -0.00000000     0.00000000  0.37D-17  0.36D-17  6  6   856.19
  19      1.48391589    -1.15122629  -324.76809305    -0.00000000     0.00000000  0.83D-18  0.60D-18  6  2   903.00
  20      1.48391589    -1.15122629  -324.76809305    -0.00000000     0.00000000  0.18D-18  0.13D-18  6  1   949.78
  21      1.48391589    -1.15122629  -324.76809305    -0.00000000     0.00000000  0.64D-19  0.39D-19  6  3   996.57
  22      1.48391589    -1.15122629  -324.76809305     0.00000000     0.00000000  0.29D-19  0.17D-19  6  4  1043.35

 Norm of t1 vector:      0.09773693      S-energy:     0.00000000      T1 diagnostic:  0.01092732
                                                                       D1 diagnostic:  0.02771932

 Doubles amplitudes (print threshold =  0.500E-01):

         I         J         SYM. A    SYM. B    A         B      T(IJ, AB)

        19        19         1         1         7         7     -0.05797059
        20        20         1         1         8         8     -0.05791447


 Total CPU time for triples:   1005.12 sec


 RESULTS
 =======

  Reference energy                   -323.616866768140
  CCSD singlet pair energy             -0.770020824860
  CCSD triplet pair energy             -0.381205461415
  CCSD correlation energy              -1.151226286275

  Triples (T) contribution             -0.054015784075
  Total correlation energy             -1.205242070349

  CCSD total energy                  -324.768093054415
  CCSD[T] energy                     -324.823441160514
  CCSD-T energy                      -324.821503358152
 !CCSD(T) total energy               -324.822108838489

 Timing summary (sec):

 STEP                 CPU(USER)    SYS     CPU(TOT)    WALL
 Transformation         14.70      0.99     15.69     15.69
 CCSD iterations      1028.67     13.51   1042.18   1042.36
 Triples              1005.12     14.53   1019.65   1019.79

 Program statistics:

 Available memory in ccsd:               999998300
 Min. memory needed in ccsd:              17709720
 Max. memory used in ccsd:                24415330
 Max. memory used in cckext:              20754978 (22 integral passes)



 **********************************************************************************************************************************
 DATASETS  * FILE   NREC   LENGTH (MB)   RECORD NAMES
              1      20     2833.82       500      610      700      900      950      970     1000      129      960     1100   
                                          VAR    BASINP    GEOM    SYMINP    ZMAT    AOBASIS   BASIS     P2S    ABASIS      S 
                                         1400     1410     1200     1210     1080     1600     1650     1300     1700     1380   
                                           T        V       H0       H01     AOSYM     SMH    MOLCAS    ERIS     OPER     JKOP   

              2       3        1.49       700     1000     2100   
                                         GEOM     BASIS     RHF  

 PROGRAMS   *        TOTAL   CCSD(T)       RHF       INT
 CPU TIMES  *      2118.55   2048.50     54.26     15.75
 REAL TIME  *      2157.71 SEC
 DISK USED  *         7.98 GB      
 GA USED    *         0.01 MB       (max)       0.00 MB       (current)
 **********************************************************************************************************************************

        CCSD(T)         RHF-SCF 
   -324.82210884   -323.61686677
 **********************************************************************************************************************************
 Variable memory released
