
 Primary working directories    : /tmp/856074.2.gen4.q
 Secondary working directories  : /tmp/856074.2.gen4.q
 Wavefunction directory         : /home/vulcan/lo21740/wfu/
 Main file repository           : /tmp/856074.2.gen4.q/

 ARCHNAME  : Linux/x86_64
 FC        : /opt/intel/compilers_and_libraries_2016.1.150/linux/bin/intel64/ifort
 FCVERSION : 16.0.1
 BLASLIB   : -mkl
 id        : ccgc

 Nodes     nprocs
 n066         1
 ga_uses_ma=false, calling ma_init with nominal heap.
 GA-space will be limited to   8.0 MW (determined by -G option)

 Using customized tuning parameters: mindgm=10; mindgv=16; mindgc=4; mindgr=1; noblas=0; mincuda=1000; minvec=7
 default implementation of scratch files=df  

 ***,Optimization of h2o_2
 memory,1000,m
 gthresh,energy=1.0d-12,orbital=1.0d-10,oneint=1.0d-16,twoint=1.0d-16,optgrad=1.0d-6,compress=1.0d-13
 geomtyp=xyz
 
 bohr
 geometry = {
  C    0.0004518401   -3.4204392580    0.0000000000
  H   -0.9704131468   -2.7329845281   -1.6810492401
  H   -0.9704131468   -2.7329845281    1.6810492401
  H    1.9412456611   -2.7316603266   -0.0000000000
  H    0.0013874950   -5.4816320674    0.0000000000
  C   -0.0004518401    3.4204392580    0.0000000000
  H   -0.0013874950    5.4816320674    0.0000000000
  H    0.9704131468    2.7329845281   -1.6810492401
  H    0.9704131468    2.7329845281    1.6810492401
  H   -1.9412456611    2.7316603266    0.0000000000
 }
 
 basis=VDZ
 {rhf;maxit,200}
 {ccsd(t);maxit,200}

 Variables initialized (661), CPU time= 0.01 sec
 Commands  initialized (458), CPU time= 0.00 sec, 486 directives.
 Default parameters read. Elapsed time= 0.05 sec

 Checking input...
 Passed
1


                                         ***  PROGRAM SYSTEM MOLPRO  ***
                         Copyright, University College Cardiff Consultants Limited, 2008

                                    Version 2010.1 linked May 16 2016 07:17:05


 **********************************************************************************************************************************
 LABEL *   Optimization of h2o_2                                                         
 Linux-4.4.3/n066(x86_64) 64 bit mpp version                                             DATE: 12-Apr-23          TIME: 13:40:51  
 **********************************************************************************************************************************

 SHA1:             9e8077add272b0f3cad6f7df79ec5211205f459d
 **********************************************************************************************************************************

 THRESHOLDS:

 ZERO    =  1.00D-12  ONEINT  =  1.00D-16  TWOINT  =  1.00D-16  PREFAC  =  1.00D-14  LOCALI  =  1.00D-09  EORDER  =  1.00D-04
 ENERGY  =  1.00D-12  ETEST   =  0.00D+00  EDENS   =  0.00D+00  THRDEDEF=  1.00D-06  GRADIENT=  1.00D-02  STEP    =  1.00D-03
 ORBITAL =  1.00D-10  CIVEC   =  1.00D-05  COEFF   =  1.00D-04  PRINTCI =  5.00D-02  PUNCHCI =  9.90D+01  OPTGRAD =  1.00D-06
 OPTENERG=  1.00D-06  OPTSTEP =  3.00D-04  THRGRAD =  1.00D-10  COMPRESS=  1.00D-13  VARMIN  =  1.00D-07  VARMAX  =  1.00D-03
 THRDOUB =  0.00D+00  THRDIV  =  1.00D-05  THRRED  =  1.00D-07  THRPSP  =  1.00D+00  THRDC   =  1.00D-10  THRCS   =  1.00D-10
 THRNRM  =  1.00D-08  THREQ   =  0.00D+00  THRDE   =  1.00D+00  THRREF  =  1.00D-05  SPARFAC =  1.00D+00  THRDLP  =  1.00D-07
 THRDIA  =  1.00D-10  THRDLS  =  1.00D-07  THRGPS  =  0.00D+00  THRKEX  =  0.00D+00  THRDIS  =  2.00D-01  THRVAR  =  1.00D-10
 THRLOC  =  1.00D-06  THRGAP  =  1.00D-06  THRLOCT = -1.00D+00  THRGAPT = -1.00D+00  THRORB  =  1.00D-06  THRMLTP =  0.00D+00
 THRCPQCI=  1.00D-10  KEXTA   =  0.00D+00  THRCOARS=  0.00D+00  SYMTOL  =  1.00D-06  GRADTOL =  1.00D-06  THROVL  =  1.00D-08
 THRORTH =  1.00D-08  GRID    =  1.00D-06  GRIDMAX =  1.00D-03  DTMAX   =  0.00D+00

 SETTING GEOMTYP        =    XYZ
 ZUNIT=BOHR
 

 Variable memory set to 1000000000 words,  buffer space   230000 words

 SETTING BASIS          =    VDZ


 Recomputing integrals since basis changed


 Using spherical harmonics

 Library entry C      S cc-pVDZ              selected for orbital group  1
 Library entry C      P cc-pVDZ              selected for orbital group  1
 Library entry C      D cc-pVDZ              selected for orbital group  1
 Library entry H      S cc-pVDZ              selected for orbital group  2
 Library entry H      P cc-pVDZ              selected for orbital group  2

1PROGRAM * SEWARD (Integral evaluation for generally contracted gaussian basis sets)     Author: Roland Lindh, 1990

 Geometry written to block  1 of record 700


 Point group  C2h 



 ATOMIC COORDINATES

 NR  ATOM    CHARGE       X              Y              Z

   1  C       6.00    0.000451840   -3.420439258    0.000000000
   2  C       6.00   -0.000451840    3.420439258    0.000000000
   3  H       1.00   -0.970413147   -2.732984528   -1.681049240
   4  H       1.00   -0.970413147   -2.732984528    1.681049240
   5  H       1.00    0.970413147    2.732984528   -1.681049240
   6  H       1.00    0.970413147    2.732984528    1.681049240
   7  H       1.00    1.941245661   -2.731660327    0.000000000
   8  H       1.00   -1.941245661    2.731660327    0.000000000
   9  H       1.00    0.001387495   -5.481632067    0.000000000
  10  H       1.00   -0.001387495    5.481632067    0.000000000

 Bond lengths in Bohr (Angstrom)

 1-3  2.059392963  1-4  2.059392963  1-7  2.059392404  1-9  2.061193022  2-5  2.059392963
     ( 1.089783820)     ( 1.089783820)     ( 1.089783524)     ( 1.090736370)     ( 1.089783820)

  2- 6  2.059392963   2- 8  2.059392404   2-10  2.061193022
       ( 1.089783820)       ( 1.089783524)       ( 1.090736370)

 Bond angles

  3-1-4  109.42901141   3-1-7  109.42888387   3-1-9  109.51345553   4-1-7  109.42888387

  4- 1- 9  109.51345553   5- 2- 6  109.42901141   5- 2- 8  109.42888387   5- 2-10  109.51345553

  6- 2- 8  109.42888387   6- 2-10  109.51345553   7- 1- 9  109.51353446   8- 2-10  109.51353446

 NUCLEAR CHARGE:                   20
 NUMBER OF PRIMITIVE AOS:         110
 NUMBER OF SYMMETRY AOS:          108
 NUMBER OF CONTRACTIONS:           68   (  23Ag  +  11Au  +  23Bu  +  11Bg  )
 NUMBER OF CORE ORBITALS:           2   (   1Ag  +   0Au  +   1Bu  +   0Bg  )
 NUMBER OF VALENCE ORBITALS:       16   (   6Ag  +   2Au  +   6Bu  +   2Bg  )


 NUCLEAR REPULSION ENERGY   41.34462911


 Eigenvalues of metric

         1 0.127E-01 0.348E-01 0.375E-01 0.511E-01 0.558E-01 0.667E-01 0.127E+00 0.131E+00
         2 0.383E-01 0.578E-01 0.144E+00 0.291E+00 0.415E+00 0.916E+00 0.916E+00 0.112E+01
         3 0.113E-01 0.356E-01 0.383E-01 0.415E-01 0.510E-01 0.579E-01 0.964E-01 0.132E+00
         4 0.348E-01 0.559E-01 0.127E+00 0.291E+00 0.412E+00 0.916E+00 0.916E+00 0.110E+01


 Contracted 2-electron integrals neglected if value below      1.0D-16
 AO integral compression algorithm  1   Integral accuracy      1.0D-16

     8.126 MB (compressed) written to integral file (100.0%)

     Node minimum: 8.126 MB, node maximum: 8.126 MB


 NUMBER OF SORTED TWO-ELECTRON INTEGRALS:     733089.     BUFFER LENGTH:  32768
 NUMBER OF SEGMENTS:   1  SEGMENT LENGTH:     733089      RECORD LENGTH: 524288

 Memory used in sort:       1.29 MW

 SORT1 READ      983360. AND WROTE      733089. INTEGRALS IN      3 RECORDS. CPU TIME:     0.02 SEC, REAL TIME:     0.03 SEC
 SORT2 READ      733089. AND WROTE      733089. INTEGRALS IN     31 RECORDS. CPU TIME:     0.03 SEC, REAL TIME:     0.03 SEC

 FILE SIZES:   FILE 1:     8.7 MBYTE,  FILE 4:    12.6 MBYTE,   TOTAL:     21.4 MBYTE

 OPERATOR DM      FOR CENTER  0  COORDINATES:    0.000000    0.000000    0.000000


 **********************************************************************************************************************************
 DATASETS  * FILE   NREC   LENGTH (MB)   RECORD NAMES
              1      19        8.76       500      610      700      900      950      970     1000      129      960     1100   
                                          VAR    BASINP    GEOM    SYMINP    ZMAT    AOBASIS   BASIS     P2S    ABASIS      S 
                                         1400     1410     1200     1210     1080     1600     1650     1300     1700   
                                           T        V       H0       H01     AOSYM     SMH    MOLCAS    ERIS     OPER   

 PROGRAMS   *        TOTAL       INT
 CPU TIMES  *         0.33      0.29
 REAL TIME  *         0.53 SEC
 DISK USED  *        30.26 MB      
 GA USED    *         0.00 MB       (max)       0.00 MB       (current)
 **********************************************************************************************************************************

1PROGRAM * RHF-SCF (CLOSED SHELL)       Authors: W. Meyer, H.-J. Werner


 NUMBER OF ELECTRONS:      10+   10-
 CONVERGENCE THRESHOLDS:    1.00E-10 (Density)    1.00E-13 (Energy)
 MAX. NUMBER OF ITERATIONS:      200
 INTERPOLATION TYPE:            DIIS
 INTERPOLATION STEPS:              2 (START)      1 (STEP)
 LEVEL SHIFTS:                  0.00 (CLOSED)  0.00 (OPEN) 



 Orbital guess generated from atomic densities. Full valence occupancy:    7   2   7   2

 Molecular orbital dump at record        2100.2

 Initial alpha occupancy:   4   1   4   1
 Initial beta  occupancy:   4   1   4   1
 Wave function symmetry:    1

 ITERATION    DDIFF          GRAD             ENERGY        2-EL.EN.            DIPOLE MOMENTS         DIIS
    1      0.000D+00      0.000D+00       -80.35962597    134.835861    0.00000    0.00000    0.00000    0
    2      0.000D+00      0.118D-01       -80.39229799    132.555207    0.00000    0.00000    0.00000    1
    3      0.245D-01      0.433D-02       -80.39616018    133.356799    0.00000    0.00000    0.00000    2
    4      0.853D-02      0.117D-02       -80.39668886    133.219908    0.00000    0.00000    0.00000    3
    5      0.307D-02      0.123D-03       -80.39669338    133.225923    0.00000    0.00000    0.00000    4
    6      0.433D-03      0.727D-05       -80.39669340    133.225786    0.00000    0.00000    0.00000    5
    7      0.380D-04      0.433D-06       -80.39669340    133.225783    0.00000    0.00000    0.00000    5
    8      0.140D-05      0.731D-07       -80.39669340    133.225785    0.00000    0.00000    0.00000    4
    9      0.192D-06      0.196D-07       -80.39669340    133.225785    0.00000    0.00000    0.00000    4
   10      0.659D-07      0.435D-08       -80.39669340    133.225786    0.00000    0.00000    0.00000    5
   11      0.150D-07      0.564D-09       -80.39669340    133.225786    0.00000    0.00000    0.00000    5
   12      0.139D-08      0.173D-09       -80.39669340    133.225786    0.00000    0.00000    0.00000    6
   13      0.452D-09      0.521D-10       -80.39669340    133.225786    0.00000    0.00000    0.00000    6
   14      0.157D-09      0.760D-11       -80.39669340    133.225786    0.00000    0.00000    0.00000    6
   15      0.334D-10      0.722D-12       -80.39669340    133.225786    0.00000    0.00000    0.00000    6
   16      0.214D-11      0.181D-12       -80.39669340    133.225786    0.00000    0.00000    0.00000    6
   17      0.442D-12      0.414D-13       -80.39669340    133.225786    0.00000    0.00000    0.00000    0

 Final occupancy:   4   1   4   1

 !RHF STATE 1.1 Energy                -80.396693399870
 Nuclear energy                        41.34462911
 One-electron energy                 -188.35421538
 Two-electron energy                   66.61289287
 Virial quotient                       -1.00229810
 !RHF STATE 1.1 Dipole moment           0.00000000     0.00000000     0.00000000
 Dipole moment /Debye                   0.00000000     0.00000000     0.00000000

 Orbital energies:

         1.1          2.1          3.1          4.1          5.1          6.1
    -11.215293    -0.944262    -0.549347    -0.538209     0.172465     0.263771

         1.2          2.2          3.2
     -0.545527     0.257207     0.584971

         1.3          2.3          3.3          4.3          5.3          6.3
    -11.215296    -0.938385    -0.545530    -0.534152     0.229252     0.257185

         1.4          2.4          3.4
     -0.538213     0.296930     0.601851


 **********************************************************************************************************************************
 DATASETS  * FILE   NREC   LENGTH (MB)   RECORD NAMES
              1      19        8.76       500      610      700      900      950      970     1000      129      960     1100   
                                          VAR    BASINP    GEOM    SYMINP    ZMAT    AOBASIS   BASIS     P2S    ABASIS      S 
                                         1400     1410     1200     1210     1080     1600     1650     1300     1700   
                                           T        V       H0       H01     AOSYM     SMH    MOLCAS    ERIS     OPER   

              2       3        0.44       700     1000     2100   
                                         GEOM     BASIS     RHF  

 PROGRAMS   *        TOTAL       RHF       INT
 CPU TIMES  *         0.37      0.04      0.29
 REAL TIME  *         0.60 SEC
 DISK USED  *        30.26 MB      
 GA USED    *         0.00 MB       (max)       0.00 MB       (current)
 **********************************************************************************************************************************


1PROGRAM * CCSD (Closed-shell coupled cluster)     Authors: C. Hampel, H.-J. Werner, 1991, M. Deegan, P.J. Knowles, 1992


 Convergence thresholds:  THRVAR = 1.00D-08  THRDEN = 1.00D-12

 CCSD(T)     terms to be evaluated (factor= 1.000)


 Number of core orbitals:           2 (   1   0   1   0 )
 Number of closed-shell orbitals:   8 (   3   1   3   1 )
 Number of external orbitals:      58 (  19  10  19  10 )

 Molecular orbitals read from record     2100.2  Type=RHF/CANONICAL (state 1.1)

 Number of N-1 electron functions:               8
 Number of N-2 electron functions:              36
 Number of singly external CSFs:               134
 Number of doubly external CSFs:             27792
 Total number of CSFs:                       27927

 Length of J-op  integral file:               0.00 MB
 Length of K-op  integral file:               0.12 MB
 Length of 3-ext integral record:             0.00 MB

 Memory could be reduced to 0.90 Mwords without degradation in triples

 Integral transformation finished. Total CPU:   0.01 sec, npass=  1  Memory used:   0.22 MW

 Reference energy:                    -80.39669340

 MP2 singlet pair energy:              -0.23207744
 MP2 triplet pair energy:              -0.09154908
 MP2 correlation energy:               -0.32362652
 MP2 total energy:                    -80.72031992

 SCS-MP2 correlation energy:           -0.33545680   (PS=  1.200000  PT=  0.333333)
 SCS-MP2 total energy:                -80.73215020

 ITER.      SQ.NORM     CORR.ENERGY   TOTAL ENERGY   ENERGY CHANGE        DEN1      VAR(S)    VAR(P)  DIIS     TIME
   1      1.13420917    -0.36752790   -80.76422130    -0.04390138    -0.03297760  0.50D-03  0.24D-02  1  1     0.03
   2      1.14681730    -0.37032524   -80.76701864    -0.00279733    -0.01276490  0.15D-04  0.96D-04  2  2     0.05
   3      1.14860940    -0.37049622   -80.76718962    -0.00017099    -0.00095545  0.17D-05  0.56D-05  3  3     0.08
   4      1.14897705    -0.37051653   -80.76720993    -0.00002031    -0.00016574  0.25D-07  0.35D-06  4  4     0.10
   5      1.14902295    -0.37051406   -80.76720746     0.00000248    -0.00002390  0.18D-08  0.18D-07  5  5     0.12
   6      1.14902427    -0.37051399   -80.76720739     0.00000006    -0.00000012  0.19D-09  0.12D-08  6  6     0.15
   7      1.14902436    -0.37051426   -80.76720766    -0.00000026     0.00000013  0.13D-10  0.71D-10  6  1     0.17
   8      1.14902454    -0.37051425   -80.76720765     0.00000001    -0.00000013  0.15D-11  0.41D-11  6  2     0.19
   9      1.14902457    -0.37051424   -80.76720764     0.00000001    -0.00000003  0.15D-12  0.26D-12  6  3     0.21
  10      1.14902456    -0.37051424   -80.76720764     0.00000000     0.00000001  0.11D-13  0.23D-13  6  4     0.23
  11      1.14902455    -0.37051424   -80.76720764    -0.00000000     0.00000001  0.80D-15  0.19D-14  6  5     0.26
  12      1.14902455    -0.37051424   -80.76720764    -0.00000000     0.00000000  0.43D-16  0.23D-15  6  6     0.28
  13      1.14902454    -0.37051424   -80.76720764    -0.00000000     0.00000000  0.33D-17  0.28D-16  6  1     0.30
  14      1.14902454    -0.37051424   -80.76720764     0.00000000     0.00000000  0.59D-18  0.37D-17  6  2     0.33
  15      1.14902454    -0.37051424   -80.76720764     0.00000000     0.00000000  0.71D-19  0.37D-18  6  3     0.35
  16      1.14902454    -0.37051424   -80.76720764    -0.00000000     0.00000000  0.15D-20  0.20D-19  6  5     0.38
  17      1.14902454    -0.37051424   -80.76720764    -0.00000000     0.00000000  0.18D-21  0.56D-21  6  4     0.40
  18      1.14902454    -0.37051424   -80.76720764     0.00000000    -0.00000000  0.45D-22  0.51D-22  6  6     0.42

 Norm of t1 vector:      0.03062613      S-energy:     0.00000000      T1 diagnostic:  0.00541399
                                                                       D1 diagnostic:  0.00879940


 Total CPU time for triples:      0.18 sec


 RESULTS
 =======

  Reference energy                    -80.396693399870
  CCSD singlet pair energy             -0.281840603653
  CCSD triplet pair energy             -0.088673633655
  CCSD correlation energy              -0.370514237308

  Triples (T) contribution             -0.007535603079
  Total correlation energy             -0.378049840387

  CCSD total energy                   -80.767207637178
  CCSD[T] energy                      -80.774919430715
  CCSD-T energy                       -80.774648800187
 !CCSD(T) total energy                -80.774743240257

 Timing summary (sec):

 STEP                 CPU(USER)    SYS     CPU(TOT)    WALL
 Transformation          0.01      0.01      0.02      0.02
 CCSD iterations         0.41      0.04      0.45      0.49
 Triples                 0.18      0.01      0.19      0.18

 Program statistics:

 Available memory in ccsd:               999999644
 Min. memory needed in ccsd:                 94603
 Max. memory used in ccsd:                  117097
 Max. memory used in cckext:                139739 (18 integral passes)



 **********************************************************************************************************************************
 DATASETS  * FILE   NREC   LENGTH (MB)   RECORD NAMES
              1      20       10.98       500      610      700      900      950      970     1000      129      960     1100   
                                          VAR    BASINP    GEOM    SYMINP    ZMAT    AOBASIS   BASIS     P2S    ABASIS      S 
                                         1400     1410     1200     1210     1080     1600     1650     1300     1700     1380   
                                           T        V       H0       H01     AOSYM     SMH    MOLCAS    ERIS     OPER     JKOP   

              2       3        0.44       700     1000     2100   
                                         GEOM     BASIS     RHF  

 PROGRAMS   *        TOTAL   CCSD(T)       RHF       INT
 CPU TIMES  *         0.99      0.62      0.04      0.29
 REAL TIME  *         1.32 SEC
 DISK USED  *        30.26 MB      
 GA USED    *         0.00 MB       (max)       0.00 MB       (current)
 **********************************************************************************************************************************

        CCSD(T)         RHF-SCF 
    -80.77474324    -80.39669340
 **********************************************************************************************************************************
 Variable memory released
