
 Primary working directories    : /tmp/1011203.253.gen4.q
 Secondary working directories  : /tmp/1011203.253.gen4.q
 Wavefunction directory         : /home/vulcan/mel64643/wfu/
 Main file repository           : /tmp/1011203.253.gen4.q/

 ARCHNAME  : Linux/x86_64
 FC        : /opt/intel/compilers_and_libraries_2016.1.150/linux/bin/intel64/ifort
 FCVERSION : 16.0.1
 BLASLIB   : -mkl
 id        : ccgc

 Nodes     nprocs
 n049         1
 ga_uses_ma=false, calling ma_init with nominal heap.
 GA-space will be limited to   8.0 MW (determined by -G option)

 Using customized tuning parameters: mindgm=10; mindgv=16; mindgc=4; mindgr=1; noblas=0; mincuda=1000; minvec=7
 default implementation of scratch files=df  

 ***,Optimization of c2h4_2
 memory,1000,m
 gthresh,energy=1.0d-12,orbital=1.0d-10,oneint=1.0d-16,twoint=1.0d-16,optgrad=1.0d-6,compress=1.0d-13
 geomtyp=xyz
 
 
 
 bohr
 geometry = {
  C   -1.2646578390    0.0000000000   -3.4914877986
  C    1.2646578390    0.0000000000   -3.4914877986
  H   -2.3382519998    0.0000000000   -1.7503340815
  H    2.3382519998    0.0000000000   -1.7503340815
  H   -2.3363252671    0.0000000000   -5.2413420954
  H    2.3363252671    0.0000000000   -5.2413420954
  C   -0.0000000000    1.2646577480    3.4914707444
  C   -0.0000000000   -1.2646577480    3.4914707444
  H    0.0000000000    2.3311364695    1.7459500650
  H    0.0000000000   -2.3311364695    1.7459500650
  H   -0.0000000000    2.3291712675    5.2456862040
  H   -0.0000000000   -2.3291712675    5.2456862040
 }
 
 basis=aug-cc-pvdz, H=cc-pvdz
 {rhf;maxit,200}
 {mp2}

 Variables initialized (661), CPU time= 0.00 sec
 Commands  initialized (458), CPU time= 0.00 sec, 486 directives.
 Default parameters read. Elapsed time= 0.05 sec

 Checking input...
 Passed
1


                                         ***  PROGRAM SYSTEM MOLPRO  ***
                         Copyright, University College Cardiff Consultants Limited, 2008

                                    Version 2010.1 linked May 16 2016 07:17:05


 **********************************************************************************************************************************
 LABEL *   Optimization of c2h4_2                                                        
 Linux-4.4.3/n049(x86_64) 64 bit mpp version                                             DATE: 25-Feb-24          TIME: 14:30:22  
 **********************************************************************************************************************************

 SHA1:             9e8077add272b0f3cad6f7df79ec5211205f459d
 **********************************************************************************************************************************

 THRESHOLDS:

 ZERO    =  1.00D-12  ONEINT  =  1.00D-16  TWOINT  =  1.00D-16  PREFAC  =  1.00D-14  LOCALI  =  1.00D-09  EORDER  =  1.00D-04
 ENERGY  =  1.00D-12  ETEST   =  0.00D+00  EDENS   =  0.00D+00  THRDEDEF=  1.00D-06  GRADIENT=  1.00D-02  STEP    =  1.00D-03
 ORBITAL =  1.00D-10  CIVEC   =  1.00D-05  COEFF   =  1.00D-04  PRINTCI =  5.00D-02  PUNCHCI =  9.90D+01  OPTGRAD =  1.00D-06
 OPTENERG=  1.00D-06  OPTSTEP =  3.00D-04  THRGRAD =  1.00D-10  COMPRESS=  1.00D-13  VARMIN  =  1.00D-07  VARMAX  =  1.00D-03
 THRDOUB =  0.00D+00  THRDIV  =  1.00D-05  THRRED  =  1.00D-07  THRPSP  =  1.00D+00  THRDC   =  1.00D-10  THRCS   =  1.00D-10
 THRNRM  =  1.00D-08  THREQ   =  0.00D+00  THRDE   =  1.00D+00  THRREF  =  1.00D-05  SPARFAC =  1.00D+00  THRDLP  =  1.00D-07
 THRDIA  =  1.00D-10  THRDLS  =  1.00D-07  THRGPS  =  0.00D+00  THRKEX  =  0.00D+00  THRDIS  =  2.00D-01  THRVAR  =  1.00D-10
 THRLOC  =  1.00D-06  THRGAP  =  1.00D-06  THRLOCT = -1.00D+00  THRGAPT = -1.00D+00  THRORB  =  1.00D-06  THRMLTP =  0.00D+00
 THRCPQCI=  1.00D-10  KEXTA   =  0.00D+00  THRCOARS=  0.00D+00  SYMTOL  =  1.00D-06  GRADTOL =  1.00D-06  THROVL  =  1.00D-08
 THRORTH =  1.00D-08  GRID    =  1.00D-06  GRIDMAX =  1.00D-03  DTMAX   =  0.00D+00

 SETTING GEOMTYP        =    XYZ
 ZUNIT=BOHR
 

 Variable memory set to 1000000000 words,  buffer space   230000 words

 SETTING BASIS          =    AUG-CC-PVDZ,H=CC-PVDZ


 Recomputing integrals since basis changed


 Using spherical harmonics

 Library entry C      S aug-cc-pVDZ          selected for orbital group  1
 Library entry C      P aug-cc-pVDZ          selected for orbital group  1
 Library entry C      D aug-cc-pVDZ          selected for orbital group  1
 Library entry H      S cc-pVDZ              selected for orbital group  2
 Library entry H      P cc-pVDZ              selected for orbital group  2

1PROGRAM * SEWARD (Integral evaluation for generally contracted gaussian basis sets)     Author: Roland Lindh, 1990

 Geometry written to block  1 of record 700


 Point group  C2v 



 ATOMIC COORDINATES

 NR  ATOM    CHARGE       X              Y              Z

   1  C       6.00   -1.264657839    0.000000000   -3.491487799
   2  C       6.00    1.264657839    0.000000000   -3.491487799
   3  H       1.00   -2.338252000    0.000000000   -1.750334081
   4  H       1.00    2.338252000    0.000000000   -1.750334081
   5  H       1.00   -2.336325267    0.000000000   -5.241342095
   6  H       1.00    2.336325267    0.000000000   -5.241342095
   7  C       6.00    0.000000000    1.264657748    3.491470744
   8  C       6.00    0.000000000   -1.264657748    3.491470744
   9  H       1.00    0.000000000    2.331136470    1.745950065
  10  H       1.00    0.000000000   -2.331136470    1.745950065
  11  H       1.00    0.000000000    2.329171268    5.245686204
  12  H       1.00    0.000000000   -2.329171268    5.245686204

 Bond lengths in Bohr (Angstrom)

 1-2  2.529315678  1-3  2.045536773  1-5  2.051940822  2-4  2.045536773  2-6  2.051940822
     ( 1.338456211)     ( 1.082451440)     ( 1.085840317)     ( 1.082451440)     ( 1.085840317)

  7- 8  2.529315496   7- 9  2.045536435   7-11  2.051940767   8-10  2.045536435   8-12  2.051940767
       ( 1.338456115)       ( 1.082451261)       ( 1.085840288)       ( 1.082451261)       ( 1.085840288)

 Bond angles

  1-2-4  121.65795454   1-2-6  121.48465181   2-1-3  121.65795454   2-1-5  121.48465181

  3- 1- 5  116.85739364   4- 2- 6  116.85739364   7- 8-10  121.42410768   7- 8-12  121.25070295

  8- 7- 9  121.42410768   8- 7-11  121.25070295   9- 7-11  117.32518937  10- 8-12  117.32518937

 NUCLEAR CHARGE:                   32
 NUMBER OF PRIMITIVE AOS:         204
 NUMBER OF SYMMETRY AOS:          196
 NUMBER OF CONTRACTIONS:          132   (  48A1  +  33B1  +  33B2  +  18A2  )
 NUMBER OF CORE ORBITALS:           4   (   2A1  +   1B1  +   1B2  +   0A2  )
 NUMBER OF VALENCE ORBITALS:       24   (  10A1  +   6B1  +   6B2  +   2A2  )


 NUCLEAR REPULSION ENERGY  102.21829228


 Eigenvalues of metric

         1 0.584E-02 0.668E-02 0.746E-02 0.884E-02 0.194E-01 0.199E-01 0.199E-01 0.269E-01
         2 0.173E-03 0.332E-03 0.549E-02 0.791E-02 0.884E-02 0.269E-01 0.327E-01 0.414E-01
         3 0.173E-03 0.331E-03 0.556E-02 0.787E-02 0.883E-02 0.270E-01 0.325E-01 0.413E-01
         4 0.117E-01 0.119E-01 0.440E-01 0.902E-01 0.176E+00 0.243E+00 0.270E+00 0.277E+00


 Contracted 2-electron integrals neglected if value below      1.0D-16
 AO integral compression algorithm  1   Integral accuracy      1.0D-16

     93.848 MB (compressed) written to integral file ( 91.1%)

     Node minimum: 93.848 MB, node maximum: 93.848 MB


 NUMBER OF SORTED TWO-ELECTRON INTEGRALS:    9926205.     BUFFER LENGTH:  32768
 NUMBER OF SEGMENTS:   1  SEGMENT LENGTH:    9926205      RECORD LENGTH: 524288

 Memory used in sort:      10.48 MW

 SORT1 READ    12914144. AND WROTE     9665088. INTEGRALS IN     28 RECORDS. CPU TIME:     0.19 SEC, REAL TIME:     0.26 SEC
 SORT2 READ     9665088. AND WROTE     9926205. INTEGRALS IN    358 RECORDS. CPU TIME:     0.15 SEC, REAL TIME:     0.19 SEC

 FILE SIZES:   FILE 1:    77.4 MBYTE,  FILE 4:   117.5 MBYTE,   TOTAL:    194.8 MBYTE

 OPERATOR DM      FOR CENTER  0  COORDINATES:    0.000000    0.000000    0.000000


 **********************************************************************************************************************************
 DATASETS  * FILE   NREC   LENGTH (MB)   RECORD NAMES
              1      19       77.41       500      610      700      900      950      970     1000      129      960     1100   
                                          VAR    BASINP    GEOM    SYMINP    ZMAT    AOBASIS   BASIS     P2S    ABASIS      S 
                                         1400     1410     1200     1210     1080     1600     1650     1300     1700   
                                           T        V       H0       H01     AOSYM     SMH    MOLCAS    ERIS     OPER   

 PROGRAMS   *        TOTAL       INT
 CPU TIMES  *         1.29      1.25
 REAL TIME  *         1.64 SEC
 DISK USED  *       289.54 MB      
 GA USED    *         0.00 MB       (max)       0.00 MB       (current)
 **********************************************************************************************************************************

1PROGRAM * RHF-SCF (CLOSED SHELL)       Authors: W. Meyer, H.-J. Werner


 NUMBER OF ELECTRONS:      16+   16-
 CONVERGENCE THRESHOLDS:    1.00E-10 (Density)    1.00E-13 (Energy)
 MAX. NUMBER OF ITERATIONS:      200
 INTERPOLATION TYPE:            DIIS
 INTERPOLATION STEPS:              2 (START)      1 (STEP)
 LEVEL SHIFTS:                  0.00 (CLOSED)  0.00 (OPEN) 



 Orbital guess generated from atomic densities. Full valence occupancy:   12   7   7   2

 Molecular orbital dump at record        2100.2

 Initial alpha occupancy:   8   4   4   0
 Initial beta  occupancy:   8   4   4   0
 Wave function symmetry:    1

 ITERATION    DDIFF          GRAD             ENERGY        2-EL.EN.            DIPOLE MOMENTS         DIIS
    1      0.000D+00      0.000D+00      -156.03860296    307.062318    0.00000    0.00000   -0.00037    0
    2      0.000D+00      0.655D-02      -156.07904070    304.325723    0.00000    0.00000   -0.00080    1
    3      0.140D-01      0.220D-02      -156.08310145    305.450567    0.00000    0.00000   -0.00070    2
    4      0.430D-02      0.668D-03      -156.08367189    305.163427    0.00000    0.00000   -0.00072    3
    5      0.158D-02      0.832D-04      -156.08368271    305.177969    0.00000    0.00000   -0.00072    4
    6      0.217D-03      0.134D-04      -156.08368312    305.176414    0.00000    0.00000   -0.00072    5
    7      0.374D-04      0.321D-05      -156.08368314    305.176396    0.00000    0.00000   -0.00072    6
    8      0.102D-04      0.483D-06      -156.08368315    305.176405    0.00000    0.00000   -0.00072    6
    9      0.159D-05      0.908D-07      -156.08368315    305.176408    0.00000    0.00000   -0.00072    5
   10      0.267D-06      0.231D-07      -156.08368315    305.176411    0.00000    0.00000   -0.00072    6
   11      0.554D-07      0.456D-08      -156.08368315    305.176410    0.00000    0.00000   -0.00072    6
   12      0.140D-07      0.107D-08      -156.08368315    305.176410    0.00000    0.00000   -0.00072    6
   13      0.306D-08      0.255D-09      -156.08368315    305.176410    0.00000    0.00000   -0.00072    6
   14      0.646D-09      0.565D-10      -156.08368315    305.176410    0.00000    0.00000   -0.00072    6
   15      0.160D-09      0.166D-10      -156.08368315    305.176410    0.00000    0.00000   -0.00072    6
   16      0.520D-10      0.533D-11      -156.08368315    305.176410    0.00000    0.00000   -0.00072    0

 Final occupancy:   8   4   4   0

 !RHF STATE 1.1 Energy               -156.083683145478
 Nuclear energy                       102.21829228
 One-electron energy                 -410.89018058
 Two-electron energy                  152.58820515
 Virial quotient                       -1.00199415
 !RHF STATE 1.1 Dipole moment           0.00000000     0.00000000    -0.00071722
 Dipole moment /Debye                   0.00000000     0.00000000    -0.00182287

 Orbital energies:

         1.1          2.1          3.1          4.1          5.1          6.1          7.1          8.1          9.1         10.1
    -11.241939   -11.241677    -1.038690    -1.032851    -0.656838    -0.631266    -0.588345    -0.584995     0.075110     0.081634

         1.2          2.2          3.2          4.2          5.2          6.2
    -11.240322    -0.795176    -0.508551    -0.376293     0.068975     0.127302

         1.3          2.3          3.3          4.3          5.3          6.3
    -11.240059    -0.794442    -0.509011    -0.376431     0.069049     0.127287

         1.4          2.4
      0.090210     0.118645


 **********************************************************************************************************************************
 DATASETS  * FILE   NREC   LENGTH (MB)   RECORD NAMES
              1      19       77.41       500      610      700      900      950      970     1000      129      960     1100   
                                          VAR    BASINP    GEOM    SYMINP    ZMAT    AOBASIS   BASIS     P2S    ABASIS      S 
                                         1400     1410     1200     1210     1080     1600     1650     1300     1700   
                                           T        V       H0       H01     AOSYM     SMH    MOLCAS    ERIS     OPER   

              2       3        0.56       700     1000     2100   
                                         GEOM     BASIS     RHF  

 PROGRAMS   *        TOTAL       RHF       INT
 CPU TIMES  *         1.81      0.52      1.25
 REAL TIME  *         2.28 SEC
 DISK USED  *       289.54 MB      
 GA USED    *         0.00 MB       (max)       0.00 MB       (current)
 **********************************************************************************************************************************


1PROGRAM * MP2 (Closed-shell)     Authors: C. Hampel, H.-J. Werner, 1991, M. Deegan, P.J. Knowles, 1992


 Convergence thresholds:  THRVAR = 1.00D-08  THRDEN = 1.00D-12

 Number of core orbitals:           4 (   2   1   1   0 )
 Number of closed-shell orbitals:  12 (   6   3   3   0 )
 Number of external orbitals:     116 (  40  29  29  18 )

 Molecular orbitals read from record     2100.2  Type=RHF/CANONICAL (state 1.1)

 Number of N-1 electron functions:              12
 Number of N-2 electron functions:              78
 Number of singly external CSFs:               414
 Number of doubly external CSFs:            247260
 Total number of CSFs:                      247675

 Length of J-op  integral file:               0.00 MB
 Length of K-op  integral file:               0.37 MB

 Integral transformation finished. Total CPU:   0.10 sec, npass=  1  Memory used:   0.43 MW

 Memory needed for MP2:                      0.02 MW

 SCS-MP2 correlation energy:           -0.573937324900   (PS=  1.200000  PT=  0.333333)
 SCS-MP2 total energy:               -156.657620470378


  Reference energy                   -156.083683145479
  MP2 singlet pair energy              -0.379788953453
  MP2 triplet pair energy              -0.189949147643
  MP2 correlation energy               -0.569738101097

 !MP2 total energy                   -156.653421246575


 **********************************************************************************************************************************
 DATASETS  * FILE   NREC   LENGTH (MB)   RECORD NAMES
              1      20       81.80       500      610      700      900      950      970     1000      129      960     1100   
                                          VAR    BASINP    GEOM    SYMINP    ZMAT    AOBASIS   BASIS     P2S    ABASIS      S 
                                         1400     1410     1200     1210     1080     1600     1650     1300     1700     1380   
                                           T        V       H0       H01     AOSYM     SMH    MOLCAS    ERIS     OPER     JKOP   

              2       3        0.56       700     1000     2100   
                                         GEOM     BASIS     RHF  

 PROGRAMS   *        TOTAL       MP2       RHF       INT
 CPU TIMES  *         1.93      0.12      0.52      1.25
 REAL TIME  *         2.44 SEC
 DISK USED  *       289.54 MB      
 GA USED    *         0.00 MB       (max)       0.00 MB       (current)
 **********************************************************************************************************************************

        MP2             RHF-SCF 
   -156.65342125   -156.08368315
 **********************************************************************************************************************************
 Variable memory released
