
 Primary working directories    : /tmp/1011203.81.gen4.q
 Secondary working directories  : /tmp/1011203.81.gen4.q
 Wavefunction directory         : /home/vulcan/mel64643/wfu/
 Main file repository           : /tmp/1011203.81.gen4.q/

 ARCHNAME  : Linux/x86_64
 FC        : /opt/intel/compilers_and_libraries_2016.1.150/linux/bin/intel64/ifort
 FCVERSION : 16.0.1
 BLASLIB   : -mkl
 id        : ccgc

 Nodes     nprocs
 n067         1
 ga_uses_ma=false, calling ma_init with nominal heap.
 GA-space will be limited to   8.0 MW (determined by -G option)

 Using customized tuning parameters: mindgm=10; mindgv=16; mindgc=4; mindgr=1; noblas=0; mincuda=1000; minvec=7
 default implementation of scratch files=df  

 ***,Optimization of c2h4_2
 memory,1000,m
 gthresh,energy=1.0d-12,orbital=1.0d-10,oneint=1.0d-16,twoint=1.0d-16,optgrad=1.0d-6,compress=1.0d-13
 geomtyp=xyz
 
 
 
 bohr
 geometry = {
  C   -1.2611223051   -0.0000000000   -3.4864891367
  C    1.2611223051   -0.0000000000   -3.4864891367
  H   -2.3330095864   -0.0000000000   -1.7401343716
  H    2.3330095864   -0.0000000000   -1.7401343716
  H   -2.3273752799   -0.0000000000   -5.2355085267
  H    2.3273752799   -0.0000000000   -5.2355085267
  C   -0.0000000000    1.2681932819    3.4864694063
  C   -0.0000000000   -1.2681932819    3.4864694063
  H   -0.0000000000    2.3400823146    1.7401161344
  H   -0.0000000000   -2.3400823146    1.7401161344
  H    0.0000000000    2.3344449791    5.2354895323
  H    0.0000000000   -2.3344449791    5.2354895323
 }
 
 basis=aug-cc-pvdz, H=cc-pvdz
 {rhf;maxit,200}
 {mp2}

 Variables initialized (661), CPU time= 0.00 sec
 Commands  initialized (458), CPU time= 0.00 sec, 486 directives.
 Default parameters read. Elapsed time= 0.04 sec

 Checking input...
 Passed
1


                                         ***  PROGRAM SYSTEM MOLPRO  ***
                         Copyright, University College Cardiff Consultants Limited, 2008

                                    Version 2010.1 linked May 16 2016 07:17:05


 **********************************************************************************************************************************
 LABEL *   Optimization of c2h4_2                                                        
 Linux-4.4.3/n067(x86_64) 64 bit mpp version                                             DATE: 25-Feb-24          TIME: 14:17:36  
 **********************************************************************************************************************************

 SHA1:             9e8077add272b0f3cad6f7df79ec5211205f459d
 **********************************************************************************************************************************

 THRESHOLDS:

 ZERO    =  1.00D-12  ONEINT  =  1.00D-16  TWOINT  =  1.00D-16  PREFAC  =  1.00D-14  LOCALI  =  1.00D-09  EORDER  =  1.00D-04
 ENERGY  =  1.00D-12  ETEST   =  0.00D+00  EDENS   =  0.00D+00  THRDEDEF=  1.00D-06  GRADIENT=  1.00D-02  STEP    =  1.00D-03
 ORBITAL =  1.00D-10  CIVEC   =  1.00D-05  COEFF   =  1.00D-04  PRINTCI =  5.00D-02  PUNCHCI =  9.90D+01  OPTGRAD =  1.00D-06
 OPTENERG=  1.00D-06  OPTSTEP =  3.00D-04  THRGRAD =  1.00D-10  COMPRESS=  1.00D-13  VARMIN  =  1.00D-07  VARMAX  =  1.00D-03
 THRDOUB =  0.00D+00  THRDIV  =  1.00D-05  THRRED  =  1.00D-07  THRPSP  =  1.00D+00  THRDC   =  1.00D-10  THRCS   =  1.00D-10
 THRNRM  =  1.00D-08  THREQ   =  0.00D+00  THRDE   =  1.00D+00  THRREF  =  1.00D-05  SPARFAC =  1.00D+00  THRDLP  =  1.00D-07
 THRDIA  =  1.00D-10  THRDLS  =  1.00D-07  THRGPS  =  0.00D+00  THRKEX  =  0.00D+00  THRDIS  =  2.00D-01  THRVAR  =  1.00D-10
 THRLOC  =  1.00D-06  THRGAP  =  1.00D-06  THRLOCT = -1.00D+00  THRGAPT = -1.00D+00  THRORB  =  1.00D-06  THRMLTP =  0.00D+00
 THRCPQCI=  1.00D-10  KEXTA   =  0.00D+00  THRCOARS=  0.00D+00  SYMTOL  =  1.00D-06  GRADTOL =  1.00D-06  THROVL  =  1.00D-08
 THRORTH =  1.00D-08  GRID    =  1.00D-06  GRIDMAX =  1.00D-03  DTMAX   =  0.00D+00

 SETTING GEOMTYP        =    XYZ
 ZUNIT=BOHR
 

 Variable memory set to 1000000000 words,  buffer space   230000 words

 SETTING BASIS          =    AUG-CC-PVDZ,H=CC-PVDZ


 Recomputing integrals since basis changed


 Using spherical harmonics

 Library entry C      S aug-cc-pVDZ          selected for orbital group  1
 Library entry C      P aug-cc-pVDZ          selected for orbital group  1
 Library entry C      D aug-cc-pVDZ          selected for orbital group  1
 Library entry H      S cc-pVDZ              selected for orbital group  2
 Library entry H      P cc-pVDZ              selected for orbital group  2

1PROGRAM * SEWARD (Integral evaluation for generally contracted gaussian basis sets)     Author: Roland Lindh, 1990

 Geometry written to block  1 of record 700


 Point group  C2v 



 ATOMIC COORDINATES

 NR  ATOM    CHARGE       X              Y              Z

   1  C       6.00   -1.261122305    0.000000000   -3.486489137
   2  C       6.00    1.261122305    0.000000000   -3.486489137
   3  H       1.00   -2.333009586    0.000000000   -1.740134372
   4  H       1.00    2.333009586    0.000000000   -1.740134372
   5  H       1.00   -2.327375280    0.000000000   -5.235508527
   6  H       1.00    2.327375280    0.000000000   -5.235508527
   7  C       6.00    0.000000000    1.268193282    3.486469406
   8  C       6.00    0.000000000   -1.268193282    3.486469406
   9  H       1.00    0.000000000    2.340082315    1.740116134
  10  H       1.00    0.000000000   -2.340082315    1.740116134
  11  H       1.00    0.000000000    2.334444979    5.235489532
  12  H       1.00    0.000000000   -2.334444979    5.235489532

 Bond lengths in Bohr (Angstrom)

 1-2  2.522244610  1-3  2.049072305  1-5  2.048405290  2-4  2.049072305  2-6  2.048405290
     ( 1.334714363)     ( 1.084322363)     ( 1.083969394)     ( 1.084322363)     ( 1.083969394)

  7- 8  2.536386564   7- 9  2.049071948   7-11  2.048405254   8-10  2.049071948   8-12  2.048405254
       ( 1.342197963)       ( 1.084322175)       ( 1.083969375)       ( 1.084322175)       ( 1.083969375)

 Bond angles

  1-2-4  121.54100012   1-2-6  121.36769717   2-1-3  121.54100012   2-1-5  121.36769717

  3- 1- 5  117.09130271   4- 2- 6  117.09130271   7- 8-10  121.54106370   7- 8-12  121.36765595

  8- 7- 9  121.54106370   8- 7-11  121.36765595   9- 7-11  117.09128036  10- 8-12  117.09128036

 NUCLEAR CHARGE:                   32
 NUMBER OF PRIMITIVE AOS:         204
 NUMBER OF SYMMETRY AOS:          196
 NUMBER OF CONTRACTIONS:          132   (  48A1  +  33B1  +  33B2  +  18A2  )
 NUMBER OF CORE ORBITALS:           4   (   2A1  +   1B1  +   1B2  +   0A2  )
 NUMBER OF VALENCE ORBITALS:       24   (  10A1  +   6B1  +   6B2  +   2A2  )


 NUCLEAR REPULSION ENERGY  102.27212420


 Eigenvalues of metric

         1 0.588E-02 0.670E-02 0.741E-02 0.879E-02 0.193E-01 0.197E-01 0.200E-01 0.269E-01
         2 0.171E-03 0.328E-03 0.547E-02 0.783E-02 0.882E-02 0.269E-01 0.326E-01 0.411E-01
         3 0.176E-03 0.335E-03 0.556E-02 0.796E-02 0.883E-02 0.270E-01 0.327E-01 0.414E-01
         4 0.116E-01 0.120E-01 0.439E-01 0.902E-01 0.176E+00 0.243E+00 0.270E+00 0.277E+00


 Contracted 2-electron integrals neglected if value below      1.0D-16
 AO integral compression algorithm  1   Integral accuracy      1.0D-16

     94.110 MB (compressed) written to integral file ( 90.9%)

     Node minimum: 94.110 MB, node maximum: 94.110 MB


 NUMBER OF SORTED TWO-ELECTRON INTEGRALS:    9926205.     BUFFER LENGTH:  32768
 NUMBER OF SEGMENTS:   1  SEGMENT LENGTH:    9926205      RECORD LENGTH: 524288

 Memory used in sort:      10.48 MW

 SORT1 READ    12914144. AND WROTE     9666089. INTEGRALS IN     28 RECORDS. CPU TIME:     0.19 SEC, REAL TIME:     0.25 SEC
 SORT2 READ     9666089. AND WROTE     9926205. INTEGRALS IN    359 RECORDS. CPU TIME:     0.14 SEC, REAL TIME:     0.19 SEC

 FILE SIZES:   FILE 1:    77.4 MBYTE,  FILE 4:   117.5 MBYTE,   TOTAL:    194.9 MBYTE

 OPERATOR DM      FOR CENTER  0  COORDINATES:    0.000000    0.000000    0.000000


 **********************************************************************************************************************************
 DATASETS  * FILE   NREC   LENGTH (MB)   RECORD NAMES
              1      19       77.45       500      610      700      900      950      970     1000      129      960     1100   
                                          VAR    BASINP    GEOM    SYMINP    ZMAT    AOBASIS   BASIS     P2S    ABASIS      S 
                                         1400     1410     1200     1210     1080     1600     1650     1300     1700   
                                           T        V       H0       H01     AOSYM     SMH    MOLCAS    ERIS     OPER   

 PROGRAMS   *        TOTAL       INT
 CPU TIMES  *         1.31      1.27
 REAL TIME  *         1.63 SEC
 DISK USED  *       289.84 MB      
 GA USED    *         0.00 MB       (max)       0.00 MB       (current)
 **********************************************************************************************************************************

1PROGRAM * RHF-SCF (CLOSED SHELL)       Authors: W. Meyer, H.-J. Werner


 NUMBER OF ELECTRONS:      16+   16-
 CONVERGENCE THRESHOLDS:    1.00E-10 (Density)    1.00E-13 (Energy)
 MAX. NUMBER OF ITERATIONS:      200
 INTERPOLATION TYPE:            DIIS
 INTERPOLATION STEPS:              2 (START)      1 (STEP)
 LEVEL SHIFTS:                  0.00 (CLOSED)  0.00 (OPEN) 



 Orbital guess generated from atomic densities. Full valence occupancy:   12   7   7   2

 Molecular orbital dump at record        2100.2

 Initial alpha occupancy:   8   4   4   0
 Initial beta  occupancy:   8   4   4   0
 Wave function symmetry:    1

 ITERATION    DDIFF          GRAD             ENERGY        2-EL.EN.            DIPOLE MOMENTS         DIIS
    1      0.000D+00      0.000D+00      -156.03854336    307.168049    0.00000    0.00000    0.00039    0
    2      0.000D+00      0.655D-02      -156.07898859    304.435792    0.00000    0.00000    0.00024    1
    3      0.140D-01      0.220D-02      -156.08304830    305.559804    0.00000    0.00000    0.00031    2
    4      0.430D-02      0.668D-03      -156.08361844    305.272933    0.00000    0.00000    0.00024    3
    5      0.158D-02      0.832D-04      -156.08362926    305.287491    0.00000    0.00000    0.00023    4
    6      0.217D-03      0.134D-04      -156.08362967    305.285934    0.00000    0.00000    0.00022    5
    7      0.375D-04      0.322D-05      -156.08362969    305.285914    0.00000    0.00000    0.00022    6
    8      0.102D-04      0.508D-06      -156.08362969    305.285925    0.00000    0.00000    0.00022    6
    9      0.160D-05      0.121D-06      -156.08362969    305.285927    0.00000    0.00000    0.00022    6
   10      0.314D-06      0.322D-07      -156.08362969    305.285929    0.00000    0.00000    0.00022    6
   11      0.792D-07      0.506D-08      -156.08362969    305.285929    0.00000    0.00000    0.00022    6
   12      0.157D-07      0.115D-08      -156.08362969    305.285929    0.00000    0.00000    0.00022    6
   13      0.358D-08      0.263D-09      -156.08362969    305.285929    0.00000    0.00000    0.00022    6
   14      0.681D-09      0.688D-10      -156.08362969    305.285929    0.00000    0.00000    0.00022    6
   15      0.181D-09      0.207D-10      -156.08362969    305.285929    0.00000    0.00000    0.00022    7
   16      0.512D-10      0.822D-11      -156.08362969    305.285929    0.00000    0.00000    0.00022    7
   17      0.239D-10      0.123D-11      -156.08362969    305.285929    0.00000    0.00000    0.00022    0

 Final occupancy:   8   4   4   0

 !RHF STATE 1.1 Energy               -156.083629692748
 Nuclear energy                       102.27212420
 One-electron energy                 -410.99871822
 Two-electron energy                  152.64296433
 Virial quotient                       -1.00199062
 !RHF STATE 1.1 Dipole moment           0.00000000     0.00000000     0.00021910
 Dipole moment /Debye                   0.00000000     0.00000000     0.00055687

 Orbital energies:

         1.1          2.1          3.1          4.1          5.1          6.1          7.1          8.1          9.1         10.1
    -11.242467   -11.241064    -1.038891    -1.032604    -0.656925    -0.631178    -0.588342    -0.584877     0.075087     0.081584

         1.2          2.2          3.2          4.2          5.2          6.2
    -11.239414    -0.794262    -0.508118    -0.375482     0.069054     0.127428

         1.3          2.3          3.3          4.3          5.3          6.3
    -11.240880    -0.795290    -0.509424    -0.377178     0.068993     0.127226

         1.4          2.4
      0.090192     0.118713


 **********************************************************************************************************************************
 DATASETS  * FILE   NREC   LENGTH (MB)   RECORD NAMES
              1      19       77.45       500      610      700      900      950      970     1000      129      960     1100   
                                          VAR    BASINP    GEOM    SYMINP    ZMAT    AOBASIS   BASIS     P2S    ABASIS      S 
                                         1400     1410     1200     1210     1080     1600     1650     1300     1700   
                                           T        V       H0       H01     AOSYM     SMH    MOLCAS    ERIS     OPER   

              2       3        0.56       700     1000     2100   
                                         GEOM     BASIS     RHF  

 PROGRAMS   *        TOTAL       RHF       INT
 CPU TIMES  *         1.86      0.55      1.27
 REAL TIME  *         2.31 SEC
 DISK USED  *       289.84 MB      
 GA USED    *         0.00 MB       (max)       0.00 MB       (current)
 **********************************************************************************************************************************


1PROGRAM * MP2 (Closed-shell)     Authors: C. Hampel, H.-J. Werner, 1991, M. Deegan, P.J. Knowles, 1992


 Convergence thresholds:  THRVAR = 1.00D-08  THRDEN = 1.00D-12

 Number of core orbitals:           4 (   2   1   1   0 )
 Number of closed-shell orbitals:  12 (   6   3   3   0 )
 Number of external orbitals:     116 (  40  29  29  18 )

 Molecular orbitals read from record     2100.2  Type=RHF/CANONICAL (state 1.1)

 Number of N-1 electron functions:              12
 Number of N-2 electron functions:              78
 Number of singly external CSFs:               414
 Number of doubly external CSFs:            247260
 Total number of CSFs:                      247675

 Length of J-op  integral file:               0.00 MB
 Length of K-op  integral file:               0.37 MB

 Integral transformation finished. Total CPU:   0.10 sec, npass=  1  Memory used:   0.43 MW

 Memory needed for MP2:                      0.02 MW

 SCS-MP2 correlation energy:           -0.573968333367   (PS=  1.200000  PT=  0.333333)
 SCS-MP2 total energy:               -156.657598026115


  Reference energy                   -156.083629692748
  MP2 singlet pair energy              -0.379799321740
  MP2 triplet pair energy              -0.189978986699
  MP2 correlation energy               -0.569778308439

 !MP2 total energy                   -156.653408001187


 **********************************************************************************************************************************
 DATASETS  * FILE   NREC   LENGTH (MB)   RECORD NAMES
              1      20       81.83       500      610      700      900      950      970     1000      129      960     1100   
                                          VAR    BASINP    GEOM    SYMINP    ZMAT    AOBASIS   BASIS     P2S    ABASIS      S 
                                         1400     1410     1200     1210     1080     1600     1650     1300     1700     1380   
                                           T        V       H0       H01     AOSYM     SMH    MOLCAS    ERIS     OPER     JKOP   

              2       3        0.56       700     1000     2100   
                                         GEOM     BASIS     RHF  

 PROGRAMS   *        TOTAL       MP2       RHF       INT
 CPU TIMES  *         1.98      0.12      0.55      1.27
 REAL TIME  *         2.47 SEC
 DISK USED  *       289.84 MB      
 GA USED    *         0.00 MB       (max)       0.00 MB       (current)
 **********************************************************************************************************************************

        MP2             RHF-SCF 
   -156.65340800   -156.08362969
 **********************************************************************************************************************************
 Variable memory released
