
 Primary working directories    : /tmp/1059987.639.gen6.q
 Secondary working directories  : /tmp/1059987.639.gen6.q
 Wavefunction directory         : /home/vulcan/jj04645/wfu/
 Main file repository           : /tmp/1059987.639.gen6.q/

 ARCHNAME  : Linux/x86_64
 FC        : /opt/intel/compilers_and_libraries_2016.1.150/linux/bin/intel64/ifort
 FCVERSION : 16.0.1
 BLASLIB   : -mkl
 id        : ccgc

 Nodes     nprocs
 n090         1
 ga_uses_ma=false, calling ma_init with nominal heap.
 GA-space will be limited to   8.0 MW (determined by -G option)

 Using customized tuning parameters: mindgm=10; mindgv=16; mindgc=4; mindgr=1; noblas=0; mincuda=1000; minvec=7
 default implementation of scratch files=df  

 ***,Optimization of 1_4_cyclohexadiene
 memory,1000,m
 gthresh,energy=1.0d-12,orbital=1.0d-10,oneint=1.0d-16,twoint=1.0d-16,optgrad=1.0d-6,compress=1.0d-13
 geomtyp=xyz
 
 bohr
 geometry = {
  H    4.1020597625   -0.0000222291   -1.6462992924
  C    2.8410815035   -0.0000153958   -0.0000000000
  C   -1.2650985661    2.3673631462   -0.0000000000
  C   -1.2651242235   -2.3673494350    0.0000000000
  C   -2.8410815035    0.0000153958   -0.0000000000
  C    1.2650985661   -2.3673631462   -0.0000000000
  C    1.2651242235    2.3673494350    0.0000000000
  H   -2.2684025005    4.1561275482   -0.0000000000
  H    2.2635555411    4.1473812486    0.0000000000
  H   -4.1020597625    0.0000222291   -1.6462992924
  H    2.2684025005   -4.1561275482   -0.0000000000
  H   -2.2635555411   -4.1473812486    0.0000000000
  H    4.1020597625   -0.0000222291    1.6462992924
  H   -4.1020597625    0.0000222291    1.6462992924
 }
 
 basis=VDZ
 {rhf;maxit,200}
 {ccsd(t);maxit,200}

 Variables initialized (661), CPU time= 0.01 sec
 Commands  initialized (458), CPU time= 0.00 sec, 486 directives.
 Default parameters read. Elapsed time= 0.04 sec

 Checking input...
 Passed
1


                                         ***  PROGRAM SYSTEM MOLPRO  ***
                         Copyright, University College Cardiff Consultants Limited, 2008

                                    Version 2010.1 linked May 16 2016 07:17:05


 **********************************************************************************************************************************
 LABEL *   Optimization of 1_4_cyclohexadiene                                            
 Linux-4.4.3/n090(x86_64) 64 bit mpp version                                             DATE: 06-May-24          TIME: 15:38:06  
 **********************************************************************************************************************************

 SHA1:             9e8077add272b0f3cad6f7df79ec5211205f459d
 **********************************************************************************************************************************

 THRESHOLDS:

 ZERO    =  1.00D-12  ONEINT  =  1.00D-16  TWOINT  =  1.00D-16  PREFAC  =  1.00D-14  LOCALI  =  1.00D-09  EORDER  =  1.00D-04
 ENERGY  =  1.00D-12  ETEST   =  0.00D+00  EDENS   =  0.00D+00  THRDEDEF=  1.00D-06  GRADIENT=  1.00D-02  STEP    =  1.00D-03
 ORBITAL =  1.00D-10  CIVEC   =  1.00D-05  COEFF   =  1.00D-04  PRINTCI =  5.00D-02  PUNCHCI =  9.90D+01  OPTGRAD =  1.00D-06
 OPTENERG=  1.00D-06  OPTSTEP =  3.00D-04  THRGRAD =  1.00D-10  COMPRESS=  1.00D-13  VARMIN  =  1.00D-07  VARMAX  =  1.00D-03
 THRDOUB =  0.00D+00  THRDIV  =  1.00D-05  THRRED  =  1.00D-07  THRPSP  =  1.00D+00  THRDC   =  1.00D-10  THRCS   =  1.00D-10
 THRNRM  =  1.00D-08  THREQ   =  0.00D+00  THRDE   =  1.00D+00  THRREF  =  1.00D-05  SPARFAC =  1.00D+00  THRDLP  =  1.00D-07
 THRDIA  =  1.00D-10  THRDLS  =  1.00D-07  THRGPS  =  0.00D+00  THRKEX  =  0.00D+00  THRDIS  =  2.00D-01  THRVAR  =  1.00D-10
 THRLOC  =  1.00D-06  THRGAP  =  1.00D-06  THRLOCT = -1.00D+00  THRGAPT = -1.00D+00  THRORB  =  1.00D-06  THRMLTP =  0.00D+00
 THRCPQCI=  1.00D-10  KEXTA   =  0.00D+00  THRCOARS=  0.00D+00  SYMTOL  =  1.00D-06  GRADTOL =  1.00D-06  THROVL  =  1.00D-08
 THRORTH =  1.00D-08  GRID    =  1.00D-06  GRIDMAX =  1.00D-03  DTMAX   =  0.00D+00

 SETTING GEOMTYP        =    XYZ
 ZUNIT=BOHR
 

 Variable memory set to 1000000000 words,  buffer space   230000 words

 SETTING BASIS          =    VDZ


 Recomputing integrals since basis changed


 Using spherical harmonics

 Library entry H      S cc-pVDZ              selected for orbital group  1
 Library entry H      P cc-pVDZ              selected for orbital group  1
 Library entry C      S cc-pVDZ              selected for orbital group  2
 Library entry C      P cc-pVDZ              selected for orbital group  2
 Library entry C      D cc-pVDZ              selected for orbital group  2

1PROGRAM * SEWARD (Integral evaluation for generally contracted gaussian basis sets)     Author: Roland Lindh, 1990

 Geometry written to block  1 of record 700


 Point group  C2h 



 ATOMIC COORDINATES

 NR  ATOM    CHARGE       X              Y              Z

   1  H       1.00    4.102059762   -0.000022229   -1.646299292
   2  H       1.00   -4.102059762    0.000022229   -1.646299292
   3  H       1.00    4.102059762   -0.000022229    1.646299292
   4  H       1.00   -4.102059762    0.000022229    1.646299292
   5  C       6.00    2.841081503   -0.000015396    0.000000000
   6  C       6.00   -2.841081503    0.000015396    0.000000000
   7  C       6.00   -1.265098566    2.367363146    0.000000000
   8  C       6.00    1.265098566   -2.367363146    0.000000000
   9  C       6.00   -1.265124223   -2.367349435    0.000000000
  10  C       6.00    1.265124223    2.367349435    0.000000000
  11  H       1.00   -2.268402501    4.156127548    0.000000000
  12  H       1.00    2.268402501   -4.156127548    0.000000000
  13  H       1.00    2.263555541    4.147381249    0.000000000
  14  H       1.00   -2.263555541   -4.147381249    0.000000000

 Bond lengths in Bohr (Angstrom)

 1-5  2.073732753  2-6  2.073732753  3-5  2.073732753  4-6  2.073732753  5-8  2.843951053
     ( 1.097372110)     ( 1.097372110)     ( 1.097372110)     ( 1.097372110)     ( 1.504954081)

  5-10  2.843951053   6- 7  2.843951053   6- 9  2.843951053   7-10  2.530222790   7-11  2.050925857
       ( 1.504954081)       ( 1.504954081)       ( 1.504954081)       ( 1.338936234)       ( 1.085303221)

  8- 9  2.530222790   8-12  2.050925857   9-14  2.040925857  10-13  2.040925857
       ( 1.338936234)       ( 1.085303221)       ( 1.080011449)       ( 1.080011449)

 Bond angles

  1- 5- 3  105.09958683   1- 5- 8  109.69187827   1- 5-10  109.69187827   2- 6- 4  105.09958683

  2- 6- 7  109.69187827   2- 6- 9  109.69187827   3- 5- 8  109.69187827   3- 5-10  109.69187827

  4- 6- 7  109.69187827   4- 6- 9  109.69187827   5- 8- 9  123.65205894   5- 8-12  117.05990524

  5-10- 7  123.65205893   5-10-13  117.05990372   6- 7-10  123.65205894   6- 7-11  117.05990524

  6- 9- 8  123.65205893   6- 9-14  117.05990372   7- 6- 9  112.69588213   7-10-13  119.28803735

  8- 5-10  112.69588213   8- 9-14  119.28803735   9- 8-12  119.28803582  10- 7-11  119.28803582

 NUCLEAR CHARGE:                   44
 NUMBER OF PRIMITIVE AOS:         218
 NUMBER OF SYMMETRY AOS:          212
 NUMBER OF CONTRACTIONS:          124   (  43Ag  +  19Au  +  43Bu  +  19Bg  )
 NUMBER OF CORE ORBITALS:           6   (   3Ag  +   0Au  +   3Bu  +   0Bg  )
 NUMBER OF VALENCE ORBITALS:       32   (  12Ag  +   4Au  +  12Bu  +   4Bg  )


 NUCLEAR REPULSION ENERGY  217.80821199


 Eigenvalues of metric

         1 0.169E-02 0.345E-02 0.432E-02 0.142E-01 0.182E-01 0.272E-01 0.309E-01 0.390E-01
         2 0.356E-01 0.382E-01 0.991E-01 0.112E+00 0.200E+00 0.243E+00 0.349E+00 0.423E+00
         3 0.670E-03 0.315E-02 0.562E-02 0.163E-01 0.256E-01 0.258E-01 0.318E-01 0.358E-01
         4 0.227E-01 0.366E-01 0.768E-01 0.147E+00 0.170E+00 0.307E+00 0.349E+00 0.358E+00


 Contracted 2-electron integrals neglected if value below      1.0D-16
 AO integral compression algorithm  1   Integral accuracy      1.0D-16

     77.595 MB (compressed) written to integral file (100.0%)

     Node minimum: 77.595 MB, node maximum: 77.595 MB


 NUMBER OF SORTED TWO-ELECTRON INTEGRALS:    7884547.     BUFFER LENGTH:  32768
 NUMBER OF SEGMENTS:   1  SEGMENT LENGTH:    7884547      RECORD LENGTH: 524288

 Memory used in sort:       8.44 MW

 SORT1 READ     9486160. AND WROTE     7884547. INTEGRALS IN     23 RECORDS. CPU TIME:     0.14 SEC, REAL TIME:     0.19 SEC
 SORT2 READ     7884547. AND WROTE     7884547. INTEGRALS IN    296 RECORDS. CPU TIME:     0.12 SEC, REAL TIME:     0.15 SEC

 FILE SIZES:   FILE 1:    67.3 MBYTE,  FILE 4:    96.5 MBYTE,   TOTAL:    163.8 MBYTE

 OPERATOR DM      FOR CENTER  0  COORDINATES:    0.000000    0.000000    0.000000


 **********************************************************************************************************************************
 DATASETS  * FILE   NREC   LENGTH (MB)   RECORD NAMES
              1      19       67.36       500      610      700      900      950      970     1000      129      960     1100   
                                          VAR    BASINP    GEOM    SYMINP    ZMAT    AOBASIS   BASIS     P2S    ABASIS      S 
                                         1400     1410     1200     1210     1080     1600     1650     1300     1700   
                                           T        V       H0       H01     AOSYM     SMH    MOLCAS    ERIS     OPER   

 PROGRAMS   *        TOTAL       INT
 CPU TIMES  *         1.67      1.63
 REAL TIME  *         1.97 SEC
 DISK USED  *       242.34 MB      
 GA USED    *         0.00 MB       (max)       0.00 MB       (current)
 **********************************************************************************************************************************

1PROGRAM * RHF-SCF (CLOSED SHELL)       Authors: W. Meyer, H.-J. Werner


 NUMBER OF ELECTRONS:      22+   22-
 CONVERGENCE THRESHOLDS:    1.00E-10 (Density)    1.00E-13 (Energy)
 MAX. NUMBER OF ITERATIONS:      200
 INTERPOLATION TYPE:            DIIS
 INTERPOLATION STEPS:              2 (START)      1 (STEP)
 LEVEL SHIFTS:                  0.00 (CLOSED)  0.00 (OPEN) 



 Orbital guess generated from atomic densities. Full valence occupancy:   15   4  15   4

 Molecular orbital dump at record        2100.2

 Initial alpha occupancy:   9   2   9   2
 Initial beta  occupancy:   9   2   9   2
 Wave function symmetry:    1

 ITERATION    DDIFF          GRAD             ENERGY        2-EL.EN.            DIPOLE MOMENTS         DIIS
    1      0.000D+00      0.000D+00      -231.78146353    590.574294    0.00000    0.00000    0.00000    0
    2      0.000D+00      0.837D-02      -231.84385648    585.726313    0.00000    0.00000    0.00000    1
    3      0.167D-01      0.328D-02      -231.85140306    588.045124    0.00000    0.00000    0.00000    2
    4      0.623D-02      0.112D-02      -231.85264347    587.436350    0.00000    0.00000    0.00000    3
    5      0.229D-02      0.114D-03      -231.85266178    587.441414    0.00000    0.00000    0.00000    4
    6      0.425D-03      0.245D-04      -231.85266238    587.438290    0.00000    0.00000    0.00000    5
    7      0.594D-04      0.816D-05      -231.85266244    587.439333    0.00000    0.00000    0.00000    6
    8      0.232D-04      0.160D-05      -231.85266244    587.439224    0.00000    0.00000    0.00000    7
    9      0.545D-05      0.405D-06      -231.85266244    587.439255    0.00000    0.00000    0.00000    6
   10      0.123D-05      0.150D-06      -231.85266244    587.439252    0.00000    0.00000    0.00000    6
   11      0.364D-06      0.538D-07      -231.85266244    587.439255    0.00000    0.00000    0.00000    7
   12      0.120D-06      0.159D-07      -231.85266244    587.439252    0.00000    0.00000    0.00000    7
   13      0.434D-07      0.730D-08      -231.85266244    587.439254    0.00000    0.00000    0.00000    7
   14      0.238D-07      0.248D-08      -231.85266244    587.439254    0.00000    0.00000    0.00000    7
   15      0.826D-08      0.509D-09      -231.85266244    587.439254    0.00000    0.00000    0.00000    8
   16      0.192D-08      0.951D-10      -231.85266244    587.439254    0.00000    0.00000    0.00000    8
   17      0.278D-09      0.329D-10      -231.85266244    587.439254    0.00000    0.00000    0.00000    8
   18      0.635D-10      0.628D-11      -231.85266244    587.439254    0.00000    0.00000    0.00000    7
   19      0.211D-10      0.188D-11      -231.85266244    587.439254    0.00000    0.00000    0.00000    7
   20      0.642D-11      0.602D-12      -231.85266244    587.439254    0.00000    0.00000    0.00000    0

 Final occupancy:   9   2   9   2

 !RHF STATE 1.1 Energy               -231.852662443523
 Nuclear energy                       217.80821199
 One-electron energy                 -743.38050130
 Two-electron energy                  293.71962686
 Virial quotient                       -1.00108760
 !RHF STATE 1.1 Dipole moment           0.00000000     0.00000000     0.00000000
 Dipole moment /Debye                   0.00000000     0.00000000     0.00000000

 Orbital energies:

         1.1          2.1          3.1          4.1          5.1          6.1          7.1          8.1          9.1         10.1
    -11.233667   -11.228924   -11.227264    -1.122183    -0.862010    -0.785193    -0.678885    -0.490850    -0.446113     0.180962

        11.1
      0.245809

         1.2          2.2          3.2          4.2
     -0.595189    -0.329699     0.174514     0.257012

         1.3          2.3          3.3          4.3          5.3          6.3          7.3          8.3          9.3         10.3
    -11.233669   -11.228980   -11.227233    -1.008645    -1.004908    -0.655312    -0.597809    -0.561777    -0.531941     0.217580

        11.3
      0.223818

         1.4          2.4          3.4          4.4
     -0.561659    -0.358715     0.193487     0.279202


 **********************************************************************************************************************************
 DATASETS  * FILE   NREC   LENGTH (MB)   RECORD NAMES
              1      19       67.36       500      610      700      900      950      970     1000      129      960     1100   
                                          VAR    BASINP    GEOM    SYMINP    ZMAT    AOBASIS   BASIS     P2S    ABASIS      S 
                                         1400     1410     1200     1210     1080     1600     1650     1300     1700   
                                           T        V       H0       H01     AOSYM     SMH    MOLCAS    ERIS     OPER   

              2       3        0.59       700     1000     2100   
                                         GEOM     BASIS     RHF  

 PROGRAMS   *        TOTAL       RHF       INT
 CPU TIMES  *         2.08      0.41      1.63
 REAL TIME  *         2.48 SEC
 DISK USED  *       242.34 MB      
 GA USED    *         0.00 MB       (max)       0.00 MB       (current)
 **********************************************************************************************************************************


1PROGRAM * CCSD (Closed-shell coupled cluster)     Authors: C. Hampel, H.-J. Werner, 1991, M. Deegan, P.J. Knowles, 1992


 Convergence thresholds:  THRVAR = 1.00D-08  THRDEN = 1.00D-12

 CCSD(T)     terms to be evaluated (factor= 1.000)


 Number of core orbitals:           6 (   3   0   3   0 )
 Number of closed-shell orbitals:  16 (   6   2   6   2 )
 Number of external orbitals:     102 (  34  17  34  17 )

 Molecular orbitals read from record     2100.2  Type=RHF/CANONICAL (state 1.1)

 Number of N-1 electron functions:              16
 Number of N-2 electron functions:             136
 Number of singly external CSFs:               476
 Number of doubly external CSFs:            342992
 Total number of CSFs:                      343469

 Length of J-op  integral file:               0.00 MB
 Length of K-op  integral file:               0.33 MB
 Length of 3-ext integral record:             0.00 MB

 Memory could be reduced to 6.21 Mwords without degradation in triples

 Integral transformation finished. Total CPU:   0.16 sec, npass=  1  Memory used:   1.93 MW

 Reference energy:                   -231.85266244

 MP2 singlet pair energy:              -0.50624969
 MP2 triplet pair energy:              -0.29374472
 MP2 correlation energy:               -0.79999441
 MP2 total energy:                   -232.65265686

 SCS-MP2 correlation energy:           -0.79027412   (PS=  1.200000  PT=  0.333333)
 SCS-MP2 total energy:               -232.64293657

 ITER.      SQ.NORM     CORR.ENERGY   TOTAL ENERGY   ENERGY CHANGE        DEN1      VAR(S)    VAR(P)  DIIS     TIME
   1      1.31801157    -0.85444431  -232.70710675    -0.05444990    -0.03138138  0.31D-02  0.54D-02  1  1     0.51
   2      1.34617220    -0.86026189  -232.71292433    -0.00581758    -0.02418601  0.68D-04  0.70D-03  2  2     0.88
   3      1.35454130    -0.86057296  -232.71323540    -0.00031107    -0.00385712  0.20D-04  0.68D-04  3  3     1.24
   4      1.35808162    -0.86069348  -232.71335592    -0.00012052    -0.00107670  0.10D-05  0.67D-05  4  4     1.61
   5      1.35891599    -0.86070522  -232.71336766    -0.00001174    -0.00017791  0.50D-07  0.65D-06  5  5     1.97
   6      1.35907309    -0.86069757  -232.71336001     0.00000765    -0.00002572  0.49D-08  0.36D-07  6  6     2.33
   7      1.35908850    -0.86069823  -232.71336068    -0.00000067     0.00000108  0.16D-08  0.32D-08  6  2     2.70
   8      1.35909315    -0.86069810  -232.71336054     0.00000014    -0.00000093  0.56D-10  0.35D-09  6  1     3.06
   9      1.35909320    -0.86069817  -232.71336061    -0.00000007     0.00000044  0.18D-10  0.52D-10  6  3     3.42
  10      1.35909313    -0.86069821  -232.71336065    -0.00000004     0.00000017  0.79D-12  0.82D-11  6  4     3.78
  11      1.35909257    -0.86069824  -232.71336068    -0.00000003     0.00000022  0.84D-13  0.11D-11  6  6     4.14
  12      1.35909246    -0.86069825  -232.71336069    -0.00000001     0.00000005  0.19D-13  0.98D-13  6  5     4.50
  13      1.35909246    -0.86069824  -232.71336069     0.00000000    -0.00000000  0.76D-14  0.15D-13  6  2     4.86
  14      1.35909248    -0.86069824  -232.71336069     0.00000000    -0.00000001  0.55D-15  0.13D-14  6  1     5.23
  15      1.35909249    -0.86069824  -232.71336069     0.00000000    -0.00000000  0.17D-15  0.15D-15  6  3     5.60
  16      1.35909249    -0.86069824  -232.71336069     0.00000000    -0.00000000  0.18D-16  0.24D-16  6  4     5.95
  17      1.35909249    -0.86069824  -232.71336069    -0.00000000     0.00000000  0.34D-17  0.38D-17  6  6     6.32
  18      1.35909249    -0.86069824  -232.71336069    -0.00000000     0.00000000  0.23D-18  0.65D-18  6  5     6.68
  19      1.35909249    -0.86069824  -232.71336069     0.00000000     0.00000000  0.29D-19  0.15D-18  6  2     7.04
  20      1.35909249    -0.86069824  -232.71336069     0.00000000    -0.00000000  0.64D-21  0.26D-19  6  1     7.41
  21      1.35909249    -0.86069824  -232.71336069     0.00000000    -0.00000000  0.14D-21  0.18D-20  6  4     7.77
  22      1.35909249    -0.86069824  -232.71336069     0.00000000    -0.00000000  0.16D-22  0.84D-22  6  3     8.13

 Norm of t1 vector:      0.07884251      S-energy:    -0.00000000      T1 diagnostic:  0.00985531
                                                                       D1 diagnostic:  0.02885112

 Doubles amplitudes (print threshold =  0.500E-01):

         I         J         SYM. A    SYM. B    A         B      T(IJ, AB)

         8         8         4         4         1         1     -0.05814565
        16        16         2         2         1         1     -0.07473992
        16         8         2         4         1         1      0.06109211


 Total CPU time for triples:      5.82 sec


 RESULTS
 =======

  Reference energy                   -231.852662443524
  CCSD singlet pair energy             -0.593364883420
  CCSD triplet pair energy             -0.267333359163
  CCSD correlation energy              -0.860698242584

  Triples (T) contribution             -0.032200270810
  Total correlation energy             -0.892898513394

  CCSD total energy                  -232.713360686108
  CCSD[T] energy                     -232.746293118063
  CCSD-T energy                      -232.745242760262
 !CCSD(T) total energy               -232.745560956918

 Timing summary (sec):

 STEP                 CPU(USER)    SYS     CPU(TOT)    WALL
 Transformation          0.17      0.04      0.21      0.21
 CCSD iterations         7.96      0.47      8.43      8.47
 Triples                 5.82      0.20      6.02      6.03

 Program statistics:

 Available memory in ccsd:               999998876
 Min. memory needed in ccsd:                930659
 Max. memory used in ccsd:                 1237935
 Max. memory used in cckext:               1232601 (22 integral passes)



 **********************************************************************************************************************************
 DATASETS  * FILE   NREC   LENGTH (MB)   RECORD NAMES
              1      20       91.67       500      610      700      900      950      970     1000      129      960     1100   
                                          VAR    BASINP    GEOM    SYMINP    ZMAT    AOBASIS   BASIS     P2S    ABASIS      S 
                                         1400     1410     1200     1210     1080     1600     1650     1300     1700     1380   
                                           T        V       H0       H01     AOSYM     SMH    MOLCAS    ERIS     OPER     JKOP   

              2       3        0.59       700     1000     2100   
                                         GEOM     BASIS     RHF  

 PROGRAMS   *        TOTAL   CCSD(T)       RHF       INT
 CPU TIMES  *        16.04     13.96      0.41      1.63
 REAL TIME  *        17.22 SEC
 DISK USED  *       242.34 MB      
 GA USED    *         0.00 MB       (max)       0.00 MB       (current)
 **********************************************************************************************************************************

        CCSD(T)         RHF-SCF 
   -232.74556096   -231.85266244
 **********************************************************************************************************************************
 Variable memory released
