
 Primary working directories    : /tmp/943183.269.gen5.q
 Secondary working directories  : /tmp/943183.269.gen5.q
 Wavefunction directory         : /home/vulcan/mel64643/wfu/
 Main file repository           : /tmp/943183.269.gen5.q/

 ARCHNAME  : Linux/x86_64
 FC        : /opt/intel/compilers_and_libraries_2016.1.150/linux/bin/intel64/ifort
 FCVERSION : 16.0.1
 BLASLIB   : -mkl
 id        : ccgc

 Nodes     nprocs
 n073         1
 ga_uses_ma=false, calling ma_init with nominal heap.
 GA-space will be limited to   8.0 MW (determined by -G option)

 Using customized tuning parameters: mindgm=10; mindgv=16; mindgc=4; mindgr=1; noblas=0; mincuda=1000; minvec=7
 default implementation of scratch files=df  

 ***,Optimization of h2o_2
 memory,1000,m
 gthresh,energy=1.0d-12,orbital=1.0d-10,oneint=1.0d-16,twoint=1.0d-16,optgrad=1.0d-6,compress=1.0d-13
 geomtyp=xyz
 
 bohr
 geometry = {
  C    0.0000886135   -3.4220514673    0.0019110963
  H   -0.9706641972   -2.7449406281   -1.6839760809
  H   -0.9755025992   -2.7273651405    1.6778252886
  H    1.9348255037   -2.7150718964    0.0069578720
  H    0.0081486169   -5.4818472551    0.0007988256
  C    0.0015723040    3.4214463859    0.0009418253
  H    0.0049601788    5.4762314181    0.0108797235
  H    0.9691612487    2.7366322966   -1.6897623655
  H    0.9726458990    2.7237155391    1.6720701093
  H   -1.9452355683    2.7332507479    0.0023537056
 }
 
 basis=AVDZ, H=VDZ
 {rhf;maxit,200}
 {ccsd(t);maxit,200}

 Variables initialized (661), CPU time= 0.01 sec
 Commands  initialized (458), CPU time= 0.00 sec, 486 directives.
 Default parameters read. Elapsed time= 0.04 sec

 Checking input...
 Passed
1


                                         ***  PROGRAM SYSTEM MOLPRO  ***
                         Copyright, University College Cardiff Consultants Limited, 2008

                                    Version 2010.1 linked May 16 2016 07:17:05


 **********************************************************************************************************************************
 LABEL *   Optimization of h2o_2                                                         
 Linux-4.4.3/n073(x86_64) 64 bit mpp version                                             DATE: 23-Oct-23          TIME: 11:48:34  
 **********************************************************************************************************************************

 SHA1:             9e8077add272b0f3cad6f7df79ec5211205f459d
 **********************************************************************************************************************************

 THRESHOLDS:

 ZERO    =  1.00D-12  ONEINT  =  1.00D-16  TWOINT  =  1.00D-16  PREFAC  =  1.00D-14  LOCALI  =  1.00D-09  EORDER  =  1.00D-04
 ENERGY  =  1.00D-12  ETEST   =  0.00D+00  EDENS   =  0.00D+00  THRDEDEF=  1.00D-06  GRADIENT=  1.00D-02  STEP    =  1.00D-03
 ORBITAL =  1.00D-10  CIVEC   =  1.00D-05  COEFF   =  1.00D-04  PRINTCI =  5.00D-02  PUNCHCI =  9.90D+01  OPTGRAD =  1.00D-06
 OPTENERG=  1.00D-06  OPTSTEP =  3.00D-04  THRGRAD =  1.00D-10  COMPRESS=  1.00D-13  VARMIN  =  1.00D-07  VARMAX  =  1.00D-03
 THRDOUB =  0.00D+00  THRDIV  =  1.00D-05  THRRED  =  1.00D-07  THRPSP  =  1.00D+00  THRDC   =  1.00D-10  THRCS   =  1.00D-10
 THRNRM  =  1.00D-08  THREQ   =  0.00D+00  THRDE   =  1.00D+00  THRREF  =  1.00D-05  SPARFAC =  1.00D+00  THRDLP  =  1.00D-07
 THRDIA  =  1.00D-10  THRDLS  =  1.00D-07  THRGPS  =  0.00D+00  THRKEX  =  0.00D+00  THRDIS  =  2.00D-01  THRVAR  =  1.00D-10
 THRLOC  =  1.00D-06  THRGAP  =  1.00D-06  THRLOCT = -1.00D+00  THRGAPT = -1.00D+00  THRORB  =  1.00D-06  THRMLTP =  0.00D+00
 THRCPQCI=  1.00D-10  KEXTA   =  0.00D+00  THRCOARS=  0.00D+00  SYMTOL  =  1.00D-06  GRADTOL =  1.00D-06  THROVL  =  1.00D-08
 THRORTH =  1.00D-08  GRID    =  1.00D-06  GRIDMAX =  1.00D-03  DTMAX   =  0.00D+00

 SETTING GEOMTYP        =    XYZ
 ZUNIT=BOHR
 

 Variable memory set to 1000000000 words,  buffer space   230000 words

 SETTING BASIS          =    AVDZ,H=VDZ


 Recomputing integrals since basis changed


 Using spherical harmonics

 Library entry C      S aug-cc-pVDZ          selected for orbital group  1
 Library entry C      P aug-cc-pVDZ          selected for orbital group  1
 Library entry C      D aug-cc-pVDZ          selected for orbital group  1
 Library entry H      S cc-pVDZ              selected for orbital group  2
 Library entry H      P cc-pVDZ              selected for orbital group  2

1PROGRAM * SEWARD (Integral evaluation for generally contracted gaussian basis sets)     Author: Roland Lindh, 1990

 Geometry written to block  1 of record 700


 Point group  C1  



 ATOMIC COORDINATES

 NR  ATOM    CHARGE       X              Y              Z

   1  C       6.00    0.000088613   -3.422051467    0.001911096
   2  H       1.00   -0.970664197   -2.744940628   -1.683976081
   3  H       1.00   -0.975502599   -2.727365140    1.677825289
   4  H       1.00    1.934825504   -2.715071896    0.006957872
   5  H       1.00    0.008148617   -5.481847255    0.000798826
   6  C       6.00    0.001572304    3.421446386    0.000941825
   7  H       1.00    0.004960179    5.476231418    0.010879724
   8  H       1.00    0.969161249    2.736632297   -1.689762366
   9  H       1.00    0.972645899    2.723715539    1.672070109
  10  H       1.00   -1.945235568    2.733250748    0.002353706

 Bond lengths in Bohr (Angstrom)

 1-2  2.059867880  1-3  2.059867881  1-4  2.059867087  1-5  2.059811857  6-7  2.054811857
     ( 1.090035136)     ( 1.090035136)     ( 1.090034716)     ( 1.090005490)     ( 1.087359604)

  6- 8  2.064867880   6- 9  2.054867880   6-10  2.064867095
       ( 1.092681022)       ( 1.087389249)       ( 1.092680606)

 Bond angles

  2-1-3  109.37976543   2-1-4  109.37964929   2-1-5  109.27576898   3-1-4  109.09317050

  3-1-5  109.84872688   4-1-5  109.84881900   7-6-8  109.56240826   7-6-9  109.56240830

  7- 6-10  109.56250041   8- 6- 9  109.37992584   8- 6-10  109.37980970   9- 6-10  109.37980979

 NUCLEAR CHARGE:                   20
 NUMBER OF PRIMITIVE AOS:         130
 NUMBER OF SYMMETRY AOS:          126
 NUMBER OF CONTRACTIONS:           86   (  86A   )
 NUMBER OF CORE ORBITALS:           2   (   2A   )
 NUMBER OF VALENCE ORBITALS:       16   (  16A   )


 NUCLEAR REPULSION ENERGY   41.34514516


 Eigenvalues of metric

         1 0.535E-02 0.665E-02 0.904E-02 0.114E-01 0.117E-01 0.118E-01 0.140E-01 0.141E-01


 Contracted 2-electron integrals neglected if value below      1.0D-16
 AO integral compression algorithm  1   Integral accuracy      1.0D-16

     57.410 MB (compressed) written to integral file ( 87.4%)

     Node minimum: 57.410 MB, node maximum: 57.410 MB


 NUMBER OF SORTED TWO-ELECTRON INTEGRALS:    6999411.     BUFFER LENGTH:  32768
 NUMBER OF SEGMENTS:   1  SEGMENT LENGTH:    6999411      RECORD LENGTH: 524288

 Memory used in sort:       7.56 MW

 SORT1 READ     8242194. AND WROTE     6851604. INTEGRALS IN     20 RECORDS. CPU TIME:     0.07 SEC, REAL TIME:     0.12 SEC
 SORT2 READ     6851604. AND WROTE     6999411. INTEGRALS IN    219 RECORDS. CPU TIME:     0.09 SEC, REAL TIME:     0.13 SEC

 FILE SIZES:   FILE 1:    52.0 MBYTE,  FILE 4:    83.9 MBYTE,   TOTAL:    135.9 MBYTE

 OPERATOR DM      FOR CENTER  0  COORDINATES:    0.000000    0.000000    0.000000


 **********************************************************************************************************************************
 DATASETS  * FILE   NREC   LENGTH (MB)   RECORD NAMES
              1      19       52.09       500      610      700      900      950      970     1000      129      960     1100   
                                          VAR    BASINP    GEOM    SYMINP    ZMAT    AOBASIS   BASIS     P2S    ABASIS      S 
                                         1400     1410     1200     1210     1080     1600     1650     1300     1700   
                                           T        V       H0       H01     AOSYM     SMH    MOLCAS    ERIS     OPER   

 PROGRAMS   *        TOTAL       INT
 CPU TIMES  *         0.76      0.71
 REAL TIME  *         1.11 SEC
 DISK USED  *       194.11 MB      
 GA USED    *         0.00 MB       (max)       0.00 MB       (current)
 **********************************************************************************************************************************

1PROGRAM * RHF-SCF (CLOSED SHELL)       Authors: W. Meyer, H.-J. Werner


 NUMBER OF ELECTRONS:      10+   10-    SPACE SYMMETRY=1    SPIN SYMMETRY: Singlet 
 CONVERGENCE THRESHOLDS:    1.00E-10 (Density)    1.00E-13 (Energy)
 MAX. NUMBER OF ITERATIONS:      200
 INTERPOLATION TYPE:            DIIS
 INTERPOLATION STEPS:              2 (START)      1 (STEP)
 LEVEL SHIFTS:                  0.00 (CLOSED)  0.00 (OPEN) 



 Orbital guess generated from atomic densities. Full valence occupancy:   18

 Molecular orbital dump at record        2100.2

 ITERATION    DDIFF          GRAD             ENERGY        2-EL.EN.            DIPOLE MOMENTS         DIIS
    1      0.000D+00      0.000D+00       -80.36117453    134.785424   -0.00177   -0.00012   -0.00303    0
    2      0.000D+00      0.502D-02       -80.39311445    132.498055    0.00031    0.00147    0.00059    1
    3      0.106D-01      0.186D-02       -80.39706806    133.318626    0.00021    0.00167    0.00040    2
    4      0.347D-02      0.507D-03       -80.39765166    133.186395    0.00043    0.00190    0.00076    3
    5      0.114D-02      0.611D-04       -80.39765948    133.193795    0.00046    0.00194    0.00081    4
    6      0.162D-03      0.345D-05       -80.39765952    133.193625    0.00046    0.00194    0.00081    5
    7      0.156D-04      0.267D-06       -80.39765952    133.193616    0.00046    0.00194    0.00081    5
    8      0.863D-06      0.481D-07       -80.39765952    133.193616    0.00046    0.00194    0.00081    4
    9      0.113D-06      0.819D-08       -80.39765952    133.193618    0.00047    0.00194    0.00081    4
   10      0.236D-07      0.123D-08       -80.39765952    133.193617    0.00047    0.00194    0.00081    5
   11      0.277D-08      0.348D-09       -80.39765952    133.193618    0.00047    0.00194    0.00081    5
   12      0.789D-09      0.101D-09       -80.39765952    133.193618    0.00047    0.00194    0.00081    6
   13      0.241D-09      0.164D-10       -80.39765952    133.193618    0.00047    0.00194    0.00081    6
   14      0.425D-10      0.366D-11       -80.39765952    133.193618    0.00047    0.00194    0.00081    0

 Final occupancy:  10

 !RHF STATE 1.1 Energy                -80.397659515796
 Nuclear energy                        41.34514516
 One-electron energy                 -188.33961347
 Two-electron energy                   66.59680880
 Virial quotient                       -1.00212413
 !RHF STATE 1.1 Dipole moment           0.00046506     0.00194300     0.00081332
 Dipole moment /Debye                   0.00118199     0.00493830     0.00206712

 Orbital energies:

         1.1          2.1          3.1          4.1          5.1          6.1          7.1          8.1          9.1         10.1
    -11.215503   -11.215450    -0.945485    -0.939593    -0.551363    -0.546494    -0.545688    -0.539321    -0.538242    -0.535859

        11.1         12.1
      0.080158     0.084200


 **********************************************************************************************************************************
 DATASETS  * FILE   NREC   LENGTH (MB)   RECORD NAMES
              1      19       52.09       500      610      700      900      950      970     1000      129      960     1100   
                                          VAR    BASINP    GEOM    SYMINP    ZMAT    AOBASIS   BASIS     P2S    ABASIS      S 
                                         1400     1410     1200     1210     1080     1600     1650     1300     1700   
                                           T        V       H0       H01     AOSYM     SMH    MOLCAS    ERIS     OPER   

              2       3        0.57       700     1000     2100   
                                         GEOM     BASIS     RHF  

 PROGRAMS   *        TOTAL       RHF       INT
 CPU TIMES  *         1.57      0.81      0.71
 REAL TIME  *         2.02 SEC
 DISK USED  *       194.11 MB      
 GA USED    *         0.00 MB       (max)       0.00 MB       (current)
 **********************************************************************************************************************************


1PROGRAM * CCSD (Closed-shell coupled cluster)     Authors: C. Hampel, H.-J. Werner, 1991, M. Deegan, P.J. Knowles, 1992


 Convergence thresholds:  THRVAR = 1.00D-08  THRDEN = 1.00D-12

 CCSD(T)     terms to be evaluated (factor= 1.000)


 Number of core orbitals:           2 (   2 )
 Number of closed-shell orbitals:   8 (   8 )
 Number of external orbitals:      76 (  76 )

 Molecular orbitals read from record     2100.2  Type=RHF/CANONICAL (state 1.1)

 Number of N-1 electron functions:               8
 Number of N-2 electron functions:              36
 Number of singly external CSFs:               608
 Number of doubly external CSFs:            185136
 Total number of CSFs:                      185745

 Length of J-op  integral file:               0.00 MB
 Length of K-op  integral file:               0.54 MB
 Length of 3-ext integral record:             0.00 MB

 Memory could be reduced to 5.45 Mwords without degradation in triples

 Integral transformation finished. Total CPU:   0.21 sec, npass=  1  Memory used:   3.53 MW

 Reference energy:                    -80.39765952

 MP2 singlet pair energy:              -0.23821391
 MP2 triplet pair energy:              -0.09578978
 MP2 correlation energy:               -0.33400369
 MP2 total energy:                    -80.73166320

 SCS-MP2 correlation energy:           -0.34545922   (PS=  1.200000  PT=  0.333333)
 SCS-MP2 total energy:                -80.74311873

 ITER.      SQ.NORM     CORR.ENERGY   TOTAL ENERGY   ENERGY CHANGE        DEN1      VAR(S)    VAR(P)  DIIS     TIME
   1      1.13988519    -0.37812152   -80.77578103    -0.04411783    -0.03297253  0.68D-03  0.24D-02  1  1     0.51
   2      1.15302846    -0.38091491   -80.77857443    -0.00279340    -0.01280953  0.15D-04  0.11D-03  2  2     0.83
   3      1.15509870    -0.38105312   -80.77871263    -0.00013820    -0.00107826  0.24D-05  0.62D-05  3  3     1.16
   4      1.15552736    -0.38107074   -80.77873026    -0.00001762    -0.00017377  0.60D-07  0.37D-06  4  4     1.48
   5      1.15558790    -0.38106679   -80.77872630     0.00000395    -0.00002809  0.29D-08  0.21D-07  5  5     1.81
   6      1.15559008    -0.38106615   -80.77872566     0.00000064    -0.00000057  0.19D-09  0.15D-08  6  6     2.13
   7      1.15559022    -0.38106643   -80.77872594    -0.00000028     0.00000006  0.15D-10  0.95D-10  6  1     2.44
   8      1.15559028    -0.38106644   -80.77872595    -0.00000001    -0.00000009  0.18D-11  0.64D-11  6  2     2.77
   9      1.15559019    -0.38106643   -80.77872595     0.00000000     0.00000002  0.37D-12  0.44D-12  6  4     3.10
  10      1.15559019    -0.38106644   -80.77872595    -0.00000000    -0.00000000  0.29D-13  0.33D-13  6  3     3.42
  11      1.15559018    -0.38106644   -80.77872595    -0.00000000     0.00000000  0.24D-14  0.30D-14  6  5     3.75
  12      1.15559017    -0.38106644   -80.77872595    -0.00000000     0.00000000  0.20D-15  0.31D-15  6  6     4.08
  13      1.15559017    -0.38106644   -80.77872595    -0.00000000     0.00000000  0.12D-16  0.39D-16  6  1     4.41
  14      1.15559017    -0.38106644   -80.77872595    -0.00000000     0.00000000  0.16D-17  0.49D-17  6  2     4.73
  15      1.15559017    -0.38106644   -80.77872595    -0.00000000     0.00000000  0.11D-18  0.51D-18  6  4     5.06
  16      1.15559017    -0.38106644   -80.77872595    -0.00000000     0.00000000  0.11D-19  0.44D-19  6  3     5.39
  17      1.15559017    -0.38106644   -80.77872595     0.00000000    -0.00000000  0.21D-21  0.38D-20  6  6     5.71
  18      1.15559017    -0.38106644   -80.77872595     0.00000000    -0.00000000  0.35D-22  0.80D-22  6  5     6.03

 Norm of t1 vector:      0.03875683      S-energy:    -0.00000000      T1 diagnostic:  0.00685130
                                                                       D1 diagnostic:  0.01213846


 Total CPU time for triples:      2.82 sec


 RESULTS
 =======

  Reference energy                    -80.397659515796
  CCSD singlet pair energy             -0.287790644767
  CCSD triplet pair energy             -0.093275792180
  CCSD correlation energy              -0.381066436947

  Triples (T) contribution             -0.008788532164
  Total correlation energy             -0.389854969111

  CCSD total energy                   -80.778725952743
  CCSD[T] energy                      -80.787729095413
  CCSD-T energy                       -80.787402431746
 !CCSD(T) total energy                -80.787514484907

 Timing summary (sec):

 STEP                 CPU(USER)    SYS     CPU(TOT)    WALL
 Transformation          0.21      0.04      0.25      0.25
 CCSD iterations         5.82      0.29      6.11      6.15
 Triples                 2.82      0.06      2.88      2.87

 Program statistics:

 Available memory in ccsd:               999999644
 Min. memory needed in ccsd:                591289
 Max. memory used in ccsd:                  742713
 Max. memory used in cckext:                619606 (18 integral passes)



 **********************************************************************************************************************************
 DATASETS  * FILE   NREC   LENGTH (MB)   RECORD NAMES
              1      20       69.68       500      610      700      900      950      970     1000      129      960     1100   
                                          VAR    BASINP    GEOM    SYMINP    ZMAT    AOBASIS   BASIS     P2S    ABASIS      S 
                                         1400     1410     1200     1210     1080     1600     1650     1300     1700     1380   
                                           T        V       H0       H01     AOSYM     SMH    MOLCAS    ERIS     OPER     JKOP   

              2       3        0.57       700     1000     2100   
                                         GEOM     BASIS     RHF  

 PROGRAMS   *        TOTAL   CCSD(T)       RHF       INT
 CPU TIMES  *        10.43      8.86      0.81      0.71
 REAL TIME  *        11.32 SEC
 DISK USED  *       194.11 MB      
 GA USED    *         0.00 MB       (max)       0.00 MB       (current)
 **********************************************************************************************************************************

        CCSD(T)         RHF-SCF 
    -80.78751448    -80.39765952
 **********************************************************************************************************************************
 Variable memory released
