
 Primary working directories    : /tmp/943417.317.gen6.q
 Secondary working directories  : /tmp/943417.317.gen6.q
 Wavefunction directory         : /home/vulcan/mel64643/wfu/
 Main file repository           : /tmp/943417.317.gen6.q/

 ARCHNAME  : Linux/x86_64
 FC        : /opt/intel/compilers_and_libraries_2016.1.150/linux/bin/intel64/ifort
 FCVERSION : 16.0.1
 BLASLIB   : -mkl
 id        : ccgc

 Nodes     nprocs
 n085         1
 ga_uses_ma=false, calling ma_init with nominal heap.
 GA-space will be limited to   8.0 MW (determined by -G option)

 Using customized tuning parameters: mindgm=10; mindgv=16; mindgc=4; mindgr=1; noblas=0; mincuda=1000; minvec=7
 default implementation of scratch files=df  

 ***,Optimization of nh3_nitrosmethane
 memory,1000,m
 gthresh,energy=1.0d-12,orbital=1.0d-10,oneint=1.0d-16,twoint=1.0d-16,optgrad=1.0d-6,compress=1.0d-13
 geomtyp=xyz
 
 bohr
 geometry = {
  N   -5.2167148497   -0.1837169144    0.0008905495
  H   -6.2956183589    0.2188136850   -1.5335384995
  H   -3.7636286097    1.0725026050   -0.0023199754
  H   -6.2938562913    0.2246178346    1.5350239269
  H   -0.9275907607   -2.3963215494   -0.0039506530
  H    1.8766438067   -3.4301005494   -1.6637228842
  H    1.8793866542   -3.4392048430    1.6696541857
  C    1.1328265369   -2.4693844764   -0.0025464187
  N    2.2669869994    0.0968066637    0.0001767650
  O    0.7056833631    1.7830445534    0.0003330038
 }
 
 basis=cc-pvdz
 {rhf;maxit,200}
 {ccsd(t);maxit,200}

 Variables initialized (661), CPU time= 0.00 sec
 Commands  initialized (458), CPU time= 0.01 sec, 486 directives.
 Default parameters read. Elapsed time= 0.05 sec

 Checking input...
 Passed
1


                                         ***  PROGRAM SYSTEM MOLPRO  ***
                         Copyright, University College Cardiff Consultants Limited, 2008

                                    Version 2010.1 linked May 16 2016 07:17:05


 **********************************************************************************************************************************
 LABEL *   Optimization of nh3_nitrosmethane                                             
 Linux-4.4.3/n085(x86_64) 64 bit mpp version                                             DATE: 25-Oct-23          TIME: 17:05:04  
 **********************************************************************************************************************************

 SHA1:             9e8077add272b0f3cad6f7df79ec5211205f459d
 **********************************************************************************************************************************

 THRESHOLDS:

 ZERO    =  1.00D-12  ONEINT  =  1.00D-16  TWOINT  =  1.00D-16  PREFAC  =  1.00D-14  LOCALI  =  1.00D-09  EORDER  =  1.00D-04
 ENERGY  =  1.00D-12  ETEST   =  0.00D+00  EDENS   =  0.00D+00  THRDEDEF=  1.00D-06  GRADIENT=  1.00D-02  STEP    =  1.00D-03
 ORBITAL =  1.00D-10  CIVEC   =  1.00D-05  COEFF   =  1.00D-04  PRINTCI =  5.00D-02  PUNCHCI =  9.90D+01  OPTGRAD =  1.00D-06
 OPTENERG=  1.00D-06  OPTSTEP =  3.00D-04  THRGRAD =  1.00D-10  COMPRESS=  1.00D-13  VARMIN  =  1.00D-07  VARMAX  =  1.00D-03
 THRDOUB =  0.00D+00  THRDIV  =  1.00D-05  THRRED  =  1.00D-07  THRPSP  =  1.00D+00  THRDC   =  1.00D-10  THRCS   =  1.00D-10
 THRNRM  =  1.00D-08  THREQ   =  0.00D+00  THRDE   =  1.00D+00  THRREF  =  1.00D-05  SPARFAC =  1.00D+00  THRDLP  =  1.00D-07
 THRDIA  =  1.00D-10  THRDLS  =  1.00D-07  THRGPS  =  0.00D+00  THRKEX  =  0.00D+00  THRDIS  =  2.00D-01  THRVAR  =  1.00D-10
 THRLOC  =  1.00D-06  THRGAP  =  1.00D-06  THRLOCT = -1.00D+00  THRGAPT = -1.00D+00  THRORB  =  1.00D-06  THRMLTP =  0.00D+00
 THRCPQCI=  1.00D-10  KEXTA   =  0.00D+00  THRCOARS=  0.00D+00  SYMTOL  =  1.00D-06  GRADTOL =  1.00D-06  THROVL  =  1.00D-08
 THRORTH =  1.00D-08  GRID    =  1.00D-06  GRIDMAX =  1.00D-03  DTMAX   =  0.00D+00

 SETTING GEOMTYP        =    XYZ
 ZUNIT=BOHR
 

 Variable memory set to 1000000000 words,  buffer space   230000 words

 SETTING BASIS          =    CC-PVDZ


 Recomputing integrals since basis changed


 Using spherical harmonics

 Library entry N      S cc-pVDZ              selected for orbital group  1
 Library entry N      P cc-pVDZ              selected for orbital group  1
 Library entry N      D cc-pVDZ              selected for orbital group  1
 Library entry H      S cc-pVDZ              selected for orbital group  2
 Library entry H      P cc-pVDZ              selected for orbital group  2
 Library entry C      S cc-pVDZ              selected for orbital group  3
 Library entry C      P cc-pVDZ              selected for orbital group  3
 Library entry C      D cc-pVDZ              selected for orbital group  3
 Library entry O      S cc-pVDZ              selected for orbital group  5
 Library entry O      P cc-pVDZ              selected for orbital group  5
 Library entry O      D cc-pVDZ              selected for orbital group  5

1PROGRAM * SEWARD (Integral evaluation for generally contracted gaussian basis sets)     Author: Roland Lindh, 1990

 Geometry written to block  1 of record 700


 Point group  C1  



 ATOMIC COORDINATES

 NR  ATOM    CHARGE       X              Y              Z

   1  N       7.00   -5.216714850   -0.183716914    0.000890549
   2  H       1.00   -6.295618359    0.218813685   -1.533538500
   3  H       1.00   -3.763628610    1.072502605   -0.002319975
   4  H       1.00   -6.293856291    0.224617835    1.535023927
   5  H       1.00   -0.927590761   -2.396321549   -0.003950653
   6  H       1.00    1.876643807   -3.430100549   -1.663722884
   7  H       1.00    1.879386654   -3.439204843    1.669654186
   8  C       6.00    1.132826537   -2.469384476   -0.002546419
   9  N       7.00    2.266986999    0.096806664    0.000176765
  10  O       8.00    0.705683363    1.783044553    0.000333004

 Bond lengths in Bohr (Angstrom)

 1-2  1.918472354  1-3  1.920822066  1-4  1.918472354  5-8  2.061712784  6-8  2.058092989
     ( 1.015211846)     ( 1.016455260)     ( 1.015211846)     ( 1.091011417)     ( 1.089095904)

  7- 8  2.072235125   8- 9  2.805648648   9-10  2.298057286
       ( 1.096579600)       ( 1.484685321)       ( 1.216079541)

 Bond angles

  2-1-3  106.67095443   2-1-4  106.21107316   3-1-4  106.67095401   5-8-6  112.15889733

  5-8-7  112.15889872   5-8-9  111.81278769   6-8-7  107.61735013   6-8-9  106.35838626

  7- 8- 9  106.35838700   8- 9-10  113.35946297

 NUCLEAR CHARGE:                   34
 NUMBER OF PRIMITIVE AOS:         150
 NUMBER OF SYMMETRY AOS:          146
 NUMBER OF CONTRACTIONS:           86   (  86A   )
 NUMBER OF CORE ORBITALS:           4   (   4A   )
 NUMBER OF VALENCE ORBITALS:       22   (  22A   )


 NUCLEAR REPULSION ENERGY  117.41024945


 Eigenvalues of metric

         1 0.629E-02 0.972E-02 0.152E-01 0.180E-01 0.298E-01 0.370E-01 0.392E-01 0.407E-01


 Contracted 2-electron integrals neglected if value below      1.0D-16
 AO integral compression algorithm  1   Integral accuracy      1.0D-16

     52.429 MB (compressed) written to integral file ( 81.8%)

     Node minimum: 52.429 MB, node maximum: 52.429 MB


 NUMBER OF SORTED TWO-ELECTRON INTEGRALS:    6999411.     BUFFER LENGTH:  32768
 NUMBER OF SEGMENTS:   1  SEGMENT LENGTH:    6999411      RECORD LENGTH: 524288

 Memory used in sort:       7.56 MW

 SORT1 READ     8004583. AND WROTE     6870071. INTEGRALS IN     20 RECORDS. CPU TIME:     0.08 SEC, REAL TIME:     0.11 SEC
 SORT2 READ     6870071. AND WROTE     6999411. INTEGRALS IN    200 RECORDS. CPU TIME:     0.08 SEC, REAL TIME:     0.11 SEC

 FILE SIZES:   FILE 1:    48.2 MBYTE,  FILE 4:    83.9 MBYTE,   TOTAL:    132.2 MBYTE

 OPERATOR DM      FOR CENTER  0  COORDINATES:    0.000000    0.000000    0.000000


 **********************************************************************************************************************************
 DATASETS  * FILE   NREC   LENGTH (MB)   RECORD NAMES
              1      19       48.32       500      610      700      900      950      970     1000      129      960     1100   
                                          VAR    BASINP    GEOM    SYMINP    ZMAT    AOBASIS   BASIS     P2S    ABASIS      S 
                                         1400     1410     1200     1210     1080     1600     1650     1300     1700   
                                           T        V       H0       H01     AOSYM     SMH    MOLCAS    ERIS     OPER   

 PROGRAMS   *        TOTAL       INT
 CPU TIMES  *         0.76      0.72
 REAL TIME  *         1.05 SEC
 DISK USED  *       185.36 MB      
 GA USED    *         0.00 MB       (max)       0.00 MB       (current)
 **********************************************************************************************************************************

1PROGRAM * RHF-SCF (CLOSED SHELL)       Authors: W. Meyer, H.-J. Werner


 NUMBER OF ELECTRONS:      17+   17-    SPACE SYMMETRY=1    SPIN SYMMETRY: Singlet 
 CONVERGENCE THRESHOLDS:    1.00E-10 (Density)    1.00E-13 (Energy)
 MAX. NUMBER OF ITERATIONS:      200
 INTERPOLATION TYPE:            DIIS
 INTERPOLATION STEPS:              2 (START)      1 (STEP)
 LEVEL SHIFTS:                  0.00 (CLOSED)  0.00 (OPEN) 



 Orbital guess generated from atomic densities. Full valence occupancy:   26

 Molecular orbital dump at record        2100.2

 ITERATION    DDIFF          GRAD             ENERGY        2-EL.EN.            DIPOLE MOMENTS         DIIS
    1      0.000D+00      0.000D+00      -224.94600091    393.849189    0.09134   -0.57374    0.00148    0
    2      0.000D+00      0.101D-01      -225.00726146    393.295640   -0.60186   -0.30311   -0.00173    1
    3      0.189D-01      0.693D-02      -225.03994006    393.812776   -0.25969   -0.51560   -0.00203    2
    4      0.825D-02      0.139D-02      -225.04210239    393.704351   -0.33851   -0.42389   -0.00236    3
    5      0.216D-02      0.531D-03      -225.04247893    393.700146   -0.33980   -0.45047   -0.00258    4
    6      0.908D-03      0.129D-03      -225.04251547    393.722443   -0.34468   -0.44867   -0.00264    5
    7      0.304D-03      0.512D-04      -225.04252127    393.710239   -0.34627   -0.44889   -0.00265    6
    8      0.124D-03      0.198D-04      -225.04252212    393.715806   -0.34704   -0.44886   -0.00265    7
    9      0.433D-04      0.826D-05      -225.04252230    393.714467   -0.34723   -0.44856   -0.00265    8
   10      0.225D-04      0.230D-05      -225.04252231    393.714287   -0.34728   -0.44840   -0.00264    8
   11      0.659D-05      0.695D-06      -225.04252231    393.714339   -0.34730   -0.44833   -0.00264    8
   12      0.187D-05      0.222D-06      -225.04252231    393.714302   -0.34730   -0.44831   -0.00264    8
   13      0.757D-06      0.719D-07      -225.04252231    393.714296   -0.34730   -0.44830   -0.00264    8
   14      0.184D-06      0.377D-07      -225.04252231    393.714297   -0.34730   -0.44830   -0.00264    8
   15      0.988D-07      0.142D-07      -225.04252231    393.714297   -0.34730   -0.44830   -0.00264    8
   16      0.327D-07      0.104D-07      -225.04252231    393.714296   -0.34730   -0.44830   -0.00264    8
   17      0.490D-07      0.670D-08      -225.04252231    393.714297   -0.34730   -0.44830   -0.00264    8
   18      0.625D-07      0.179D-08      -225.04252231    393.714297   -0.34730   -0.44830   -0.00264    9
   19      0.145D-07      0.537D-09      -225.04252231    393.714297   -0.34730   -0.44830   -0.00264    9
   20      0.215D-08      0.158D-09      -225.04252231    393.714297   -0.34730   -0.44830   -0.00264    9
   21      0.435D-09      0.382D-10      -225.04252231    393.714297   -0.34730   -0.44830   -0.00264    9
   22      0.111D-09      0.120D-10      -225.04252231    393.714297   -0.34730   -0.44830   -0.00264    9
   23      0.281D-10      0.522D-11      -225.04252231    393.714297   -0.34730   -0.44830   -0.00264    9
   24      0.129D-10      0.224D-11      -225.04252231    393.714297   -0.34730   -0.44830   -0.00264    8
   25      0.528D-11      0.982D-12      -225.04252231    393.714297   -0.34730   -0.44830   -0.00264    0

 Final occupancy:  17

 !RHF STATE 1.1 Energy               -225.042522312624
 Nuclear energy                       117.41024945
 One-electron energy                 -539.30992022
 Two-electron energy                  196.85714846
 Virial quotient                       -1.00156495
 !RHF STATE 1.1 Dipole moment          -0.34730405    -0.44830388    -0.00264204
 Dipole moment /Debye                  -0.88270103    -1.13940017    -0.00671495

 Orbital energies:

         1.1          2.1          3.1          4.1          5.1          6.1          7.1          8.1          9.1         10.1
    -20.625815   -15.698871   -15.537439   -11.265518    -1.506526    -1.130793    -1.069848    -0.855165    -0.684442    -0.667416

        11.1         12.1         13.1         14.1         15.1         16.1         17.1         18.1         19.1
     -0.630668    -0.615133    -0.613909    -0.550443    -0.527561    -0.420285    -0.397980     0.109713     0.187037


 **********************************************************************************************************************************
 DATASETS  * FILE   NREC   LENGTH (MB)   RECORD NAMES
              1      19       48.32       500      610      700      900      950      970     1000      129      960     1100   
                                          VAR    BASINP    GEOM    SYMINP    ZMAT    AOBASIS   BASIS     P2S    ABASIS      S 
                                         1400     1410     1200     1210     1080     1600     1650     1300     1700   
                                           T        V       H0       H01     AOSYM     SMH    MOLCAS    ERIS     OPER   

              2       3        0.57       700     1000     2100   
                                         GEOM     BASIS     RHF  

 PROGRAMS   *        TOTAL       RHF       INT
 CPU TIMES  *         1.94      1.18      0.72
 REAL TIME  *         2.37 SEC
 DISK USED  *       185.36 MB      
 GA USED    *         0.00 MB       (max)       0.00 MB       (current)
 **********************************************************************************************************************************


1PROGRAM * CCSD (Closed-shell coupled cluster)     Authors: C. Hampel, H.-J. Werner, 1991, M. Deegan, P.J. Knowles, 1992


 Convergence thresholds:  THRVAR = 1.00D-08  THRDEN = 1.00D-12

 CCSD(T)     terms to be evaluated (factor= 1.000)


 Number of core orbitals:           4 (   4 )
 Number of closed-shell orbitals:  13 (  13 )
 Number of external orbitals:      69 (  69 )

 Molecular orbitals read from record     2100.2  Type=RHF/CANONICAL (state 1.1)

 Number of N-1 electron functions:              13
 Number of N-2 electron functions:              91
 Number of singly external CSFs:               897
 Number of doubly external CSFs:            402753
 Total number of CSFs:                      403651

 Length of J-op  integral file:               0.00 MB
 Length of K-op  integral file:               0.54 MB
 Length of 3-ext integral record:             0.00 MB

 Memory could be reduced to 6.46 Mwords without degradation in triples

 Integral transformation finished. Total CPU:   0.26 sec, npass=  1  Memory used:   5.81 MW

 Reference energy:                   -225.04252231

 MP2 singlet pair energy:              -0.42989982
 MP2 triplet pair energy:              -0.25005719
 MP2 correlation energy:               -0.67995702
 MP2 total energy:                   -225.72247933

 SCS-MP2 correlation energy:           -0.67147093   (PS=  1.200000  PT=  0.333333)
 SCS-MP2 total energy:               -225.71399324

 ITER.      SQ.NORM     CORR.ENERGY   TOTAL ENERGY   ENERGY CHANGE        DEN1      VAR(S)    VAR(P)  DIIS     TIME
   1      1.22681109    -0.71574921  -225.75827152    -0.03579219    -0.01324115  0.44D-02  0.46D-02  1  1     0.92
   2      1.24749329    -0.71906005  -225.76158236    -0.00331083    -0.02058264  0.13D-03  0.82D-03  2  2     1.61
   3      1.25646226    -0.71974787  -225.76227018    -0.00068783    -0.00431078  0.10D-03  0.59D-04  3  3     2.30
   4      1.26018847    -0.71973885  -225.76226116     0.00000902    -0.00126886  0.77D-05  0.10D-04  4  4     2.98
   5      1.26162199    -0.71975852  -225.76228083    -0.00001967    -0.00032493  0.14D-05  0.17D-05  5  5     3.67
   6      1.26202154    -0.71973085  -225.76225317     0.00002766    -0.00004702  0.78D-07  0.36D-06  6  6     4.36
   7      1.26211205    -0.71972902  -225.76225133     0.00000183    -0.00000210  0.20D-07  0.96D-07  6  2     5.06
   8      1.26213453    -0.71972910  -225.76225141    -0.00000007     0.00000225  0.87D-08  0.24D-07  6  5     5.74
   9      1.26212979    -0.71972996  -225.76225228    -0.00000087     0.00000161  0.17D-08  0.27D-08  6  1     6.42
  10      1.26212974    -0.71973023  -225.76225254    -0.00000027    -0.00000145  0.40D-09  0.30D-09  6  3     7.10
  11      1.26212822    -0.71973050  -225.76225281    -0.00000027     0.00000088  0.79D-10  0.49D-10  6  4     7.79
  12      1.26212749    -0.71973056  -225.76225287    -0.00000006     0.00000022  0.20D-10  0.11D-10  6  6     8.47
  13      1.26212675    -0.71973059  -225.76225291    -0.00000003     0.00000017  0.42D-11  0.18D-11  6  2     9.16
  14      1.26212638    -0.71973061  -225.76225293    -0.00000002     0.00000012  0.12D-11  0.52D-12  6  1     9.85
  15      1.26212610    -0.71973062  -225.76225293    -0.00000001     0.00000005  0.44D-12  0.10D-12  6  5    10.53
  16      1.26212604    -0.71973062  -225.76225294    -0.00000000     0.00000001  0.30D-12  0.51D-13  6  3    11.21
  17      1.26212600    -0.71973063  -225.76225294    -0.00000000     0.00000001  0.17D-12  0.24D-13  6  4    11.90
  18      1.26212599    -0.71973063  -225.76225294    -0.00000000    -0.00000000  0.82D-13  0.11D-13  6  6    12.58
  19      1.26212599    -0.71973063  -225.76225294     0.00000000    -0.00000000  0.19D-13  0.48D-14  6  2    13.27
  20      1.26212600    -0.71973063  -225.76225294     0.00000000    -0.00000000  0.46D-14  0.24D-14  6  1    13.95
  21      1.26212600    -0.71973063  -225.76225294     0.00000000     0.00000000  0.86D-15  0.99D-15  6  5    14.64
  22      1.26212601    -0.71973063  -225.76225294     0.00000000    -0.00000000  0.11D-15  0.26D-15  6  4    15.33
  23      1.26212601    -0.71973063  -225.76225294     0.00000000    -0.00000000  0.99D-17  0.53D-16  6  3    16.01
  24      1.26212601    -0.71973063  -225.76225294    -0.00000000    -0.00000000  0.41D-17  0.12D-16  6  2    16.70
  25      1.26212601    -0.71973063  -225.76225294     0.00000000    -0.00000000  0.12D-17  0.23D-17  6  6    17.38
  26      1.26212601    -0.71973063  -225.76225294     0.00000000    -0.00000000  0.79D-18  0.50D-18  6  1    18.07
  27      1.26212601    -0.71973063  -225.76225294    -0.00000000     0.00000000  0.35D-18  0.14D-18  6  5    18.76
  28      1.26212601    -0.71973063  -225.76225294    -0.00000000     0.00000000  0.13D-18  0.22D-19  6  4    19.44
  29      1.26212601    -0.71973063  -225.76225294    -0.00000000     0.00000000  0.42D-19  0.10D-19  6  2    20.12

 Norm of t1 vector:      0.10006885      S-energy:    -0.00000000      T1 diagnostic:  0.01387705
                                                                       D1 diagnostic:  0.05074931

 Doubles amplitudes (print threshold =  0.500E-01):

         I         J         SYM. A    SYM. B    A         B      T(IJ, AB)

         7         7         1         1         1         1     -0.06082444
        11         7         1         1         1         1     -0.06594487
        11        11         1         1         1         1     -0.09629293


 Total CPU time for triples:      6.18 sec


 RESULTS
 =======

  Reference energy                   -225.042522312625
  CCSD singlet pair energy             -0.499048511136
  CCSD triplet pair energy             -0.220682114323
  CCSD correlation energy              -0.719730625460

  Triples (T) contribution             -0.021672028247
  Total correlation energy             -0.741402653707

  CCSD total energy                  -225.762252938085
  CCSD[T] energy                     -225.785299429476
  CCSD-T energy                      -225.783521635789
 !CCSD(T) total energy               -225.783924966332

 Timing summary (sec):

 STEP                 CPU(USER)    SYS     CPU(TOT)    WALL
 Transformation          0.27      0.04      0.31      0.31
 CCSD iterations        19.85      0.66     20.51     20.64
 Triples                 6.18      0.14      6.32      6.32

 Program statistics:

 Available memory in ccsd:               999999224
 Min. memory needed in ccsd:               1143606
 Max. memory used in ccsd:                 1480488
 Max. memory used in cckext:               1471436 (29 integral passes)



 **********************************************************************************************************************************
 DATASETS  * FILE   NREC   LENGTH (MB)   RECORD NAMES
              1      20       73.95       500      610      700      900      950      970     1000      129      960     1100   
                                          VAR    BASINP    GEOM    SYMINP    ZMAT    AOBASIS   BASIS     P2S    ABASIS      S 
                                         1400     1410     1200     1210     1080     1600     1650     1300     1700     1380   
                                           T        V       H0       H01     AOSYM     SMH    MOLCAS    ERIS     OPER     JKOP   

              2       3        0.57       700     1000     2100   
                                         GEOM     BASIS     RHF  

 PROGRAMS   *        TOTAL   CCSD(T)       RHF       INT
 CPU TIMES  *        28.25     26.30      1.18      0.72
 REAL TIME  *        29.67 SEC
 DISK USED  *       198.00 MB      
 GA USED    *         0.00 MB       (max)       0.00 MB       (current)
 **********************************************************************************************************************************

        CCSD(T)         RHF-SCF 
   -225.78392497   -225.04252231
 **********************************************************************************************************************************
 Variable memory released
