
 Primary working directories    : /tmp/985636.1752.gen4.q
 Secondary working directories  : /tmp/985636.1752.gen4.q
 Wavefunction directory         : /home/vulcan/jj04645/wfu/
 Main file repository           : /tmp/985636.1752.gen4.q/

 ARCHNAME  : Linux/x86_64
 FC        : /opt/intel/compilers_and_libraries_2016.1.150/linux/bin/intel64/ifort
 FCVERSION : 16.0.1
 BLASLIB   : -mkl
 id        : ccgc

 Nodes     nprocs
 n067         1
 ga_uses_ma=false, calling ma_init with nominal heap.
 GA-space will be limited to   8.0 MW (determined by -G option)

 Using customized tuning parameters: mindgm=10; mindgv=16; mindgc=4; mindgr=1; noblas=0; mincuda=1000; minvec=7
 default implementation of scratch files=df  

 ***,Optimization of tetrahydrothiopyran
 memory,1000,m
 gthresh,energy=1.0d-12,orbital=1.0d-10,oneint=1.0d-16,twoint=1.0d-16,optgrad=1.0d-6,compress=1.0d-13
 geomtyp=xyz
 
 bohr
 geometry = {
  S    0.3541355921    2.6974698303    0.0000000000
  C   -0.3306584042   -3.3673752559   -0.0000000000
  C   -0.6619251152    0.6670997042   -2.5812259867
  C   -0.6619251152    0.6670997042    2.5812259867
  C    0.4718153403   -1.9839475759   -2.4139027293
  C    0.4718153403   -1.9839475759    2.4139027293
  H   -2.7282093478    0.5696982033   -2.5850519901
  H   -2.7282093478    0.5696982033    2.5850519901
  H   -0.0723973935    1.6220256293   -4.3116043929
  H   -0.0723973935    1.6220256293    4.3116043929
  H    2.5332553912   -1.8325388632   -2.4852052584
  H    2.5332553912   -1.8325388632    2.4852052584
  H   -0.1291248727   -3.0695985715   -4.0699875789
  H   -0.1291248727   -3.0695985715    4.0699875789
  H    0.4641518534   -5.2744195587   -0.0000000000
  H   -2.3931920625   -3.5809734846    0.0000000000
 }
 
 basis=VDZ
 {rhf;maxit,200}
 {ccsd(t);maxit,200}

 Variables initialized (661), CPU time= 0.00 sec
 Commands  initialized (458), CPU time= 0.01 sec, 486 directives.
 Default parameters read. Elapsed time= 0.05 sec

 Checking input...
 Passed
1


                                         ***  PROGRAM SYSTEM MOLPRO  ***
                         Copyright, University College Cardiff Consultants Limited, 2008

                                    Version 2010.1 linked May 16 2016 07:17:05


 **********************************************************************************************************************************
 LABEL *   Optimization of tetrahydrothiopyran                                           
 Linux-4.4.3/n067(x86_64) 64 bit mpp version                                             DATE: 26-Jan-24          TIME: 19:35:29  
 **********************************************************************************************************************************

 SHA1:             9e8077add272b0f3cad6f7df79ec5211205f459d
 **********************************************************************************************************************************

 THRESHOLDS:

 ZERO    =  1.00D-12  ONEINT  =  1.00D-16  TWOINT  =  1.00D-16  PREFAC  =  1.00D-14  LOCALI  =  1.00D-09  EORDER  =  1.00D-04
 ENERGY  =  1.00D-12  ETEST   =  0.00D+00  EDENS   =  0.00D+00  THRDEDEF=  1.00D-06  GRADIENT=  1.00D-02  STEP    =  1.00D-03
 ORBITAL =  1.00D-10  CIVEC   =  1.00D-05  COEFF   =  1.00D-04  PRINTCI =  5.00D-02  PUNCHCI =  9.90D+01  OPTGRAD =  1.00D-06
 OPTENERG=  1.00D-06  OPTSTEP =  3.00D-04  THRGRAD =  1.00D-10  COMPRESS=  1.00D-13  VARMIN  =  1.00D-07  VARMAX  =  1.00D-03
 THRDOUB =  0.00D+00  THRDIV  =  1.00D-05  THRRED  =  1.00D-07  THRPSP  =  1.00D+00  THRDC   =  1.00D-10  THRCS   =  1.00D-10
 THRNRM  =  1.00D-08  THREQ   =  0.00D+00  THRDE   =  1.00D+00  THRREF  =  1.00D-05  SPARFAC =  1.00D+00  THRDLP  =  1.00D-07
 THRDIA  =  1.00D-10  THRDLS  =  1.00D-07  THRGPS  =  0.00D+00  THRKEX  =  0.00D+00  THRDIS  =  2.00D-01  THRVAR  =  1.00D-10
 THRLOC  =  1.00D-06  THRGAP  =  1.00D-06  THRLOCT = -1.00D+00  THRGAPT = -1.00D+00  THRORB  =  1.00D-06  THRMLTP =  0.00D+00
 THRCPQCI=  1.00D-10  KEXTA   =  0.00D+00  THRCOARS=  0.00D+00  SYMTOL  =  1.00D-06  GRADTOL =  1.00D-06  THROVL  =  1.00D-08
 THRORTH =  1.00D-08  GRID    =  1.00D-06  GRIDMAX =  1.00D-03  DTMAX   =  0.00D+00

 SETTING GEOMTYP        =    XYZ
 ZUNIT=BOHR
 

 Variable memory set to 1000000000 words,  buffer space   230000 words

 SETTING BASIS          =    VDZ


 Recomputing integrals since basis changed


 Using spherical harmonics

 Library entry S      S cc-pVDZ              selected for orbital group  1
 Library entry S      P cc-pVDZ              selected for orbital group  1
 Library entry S      D cc-pVDZ              selected for orbital group  1
 Library entry C      S cc-pVDZ              selected for orbital group  2
 Library entry C      P cc-pVDZ              selected for orbital group  2
 Library entry C      D cc-pVDZ              selected for orbital group  2
 Library entry H      S cc-pVDZ              selected for orbital group  3
 Library entry H      P cc-pVDZ              selected for orbital group  3

1PROGRAM * SEWARD (Integral evaluation for generally contracted gaussian basis sets)     Author: Roland Lindh, 1990

 Geometry written to block  1 of record 700


 Point group  Cs  



 ATOMIC COORDINATES

 NR  ATOM    CHARGE       X              Y              Z

   1  S      16.00    0.354135592    2.697469830    0.000000000
   2  C       6.00   -0.330658404   -3.367375256    0.000000000
   3  C       6.00   -0.661925115    0.667099704   -2.581225987
   4  C       6.00   -0.661925115    0.667099704    2.581225987
   5  C       6.00    0.471815340   -1.983947576   -2.413902729
   6  C       6.00    0.471815340   -1.983947576    2.413902729
   7  H       1.00   -2.728209348    0.569698203   -2.585051990
   8  H       1.00   -2.728209348    0.569698203    2.585051990
   9  H       1.00   -0.072397394    1.622025629   -4.311604393
  10  H       1.00   -0.072397394    1.622025629    4.311604393
  11  H       1.00    2.533255391   -1.832538863   -2.485205258
  12  H       1.00    2.533255391   -1.832538863    2.485205258
  13  H       1.00   -0.129124873   -3.069598571   -4.069987579
  14  H       1.00   -0.129124873   -3.069598571    4.069987579
  15  H       1.00    0.464151853   -5.274419559    0.000000000
  16  H       1.00   -2.393192062   -3.580973485    0.000000000

 Bond lengths in Bohr (Angstrom)

  1- 3  3.437660513   1- 4  3.437660513   2- 5  2.895645462   2- 6  2.895645462   2-15  2.066044849
       ( 1.819131596)       ( 1.819131596)       ( 1.532309584)       ( 1.532309584)       ( 1.093303847)

  2-16  2.073564394   3- 5  2.888150996   3- 7  2.068582176   3- 9  2.062434456   4- 6  2.888150996
       ( 1.097283019)       ( 1.528343683)       ( 1.094646543)       ( 1.091393309)       ( 1.528343683)

  4- 8  2.068582176   4-10  2.062434456   5-11  2.068222360   5-13  2.069392242   6-12  2.068222360
       ( 1.094646543)       ( 1.091393309)       ( 1.094456136)       ( 1.095075211)       ( 1.094456136)

  6-14  2.069392242
       ( 1.095075211)

 Bond angles

  1-3-5  112.49558466   1-3-7  108.93154234   1-3-9  105.78484520   1-4-6  112.49558466

  1- 4- 8  108.93154234   1- 4-10  105.78484520   2- 5- 3  112.21281396   2- 5-11  109.87307683

  2- 5-13  109.63418461   2- 6- 4  112.21281396   2- 6-12  109.87307683   2- 6-14  109.63418461

  3- 1- 4   97.33107960   3- 5-11  108.78798005   3- 5-13  108.73529663   4- 6-12  108.78798005

  4- 6-14  108.73529663   5- 2- 6  112.94732130   5- 2-15  109.53488109   5- 2-16  108.95777472

  5- 3- 7  110.42612616   5- 3- 9  111.18611373   6- 2-15  109.53488109   6- 2-16  108.95777472

  6- 4- 8  110.42612616   6- 4-10  111.18611373   7- 3- 9  107.80465624   8- 4-10  107.80465624

 11- 5-13  107.47314170  12- 6-14  107.47314170  15- 2-16  106.71266518

 NUCLEAR CHARGE:                   56
 NUMBER OF PRIMITIVE AOS:         247
 NUMBER OF SYMMETRY AOS:          241
 NUMBER OF CONTRACTIONS:          138   (  79A'  +  59A"  )
 NUMBER OF CORE ORBITALS:          10   (   7A'  +   3A"  )
 NUMBER OF VALENCE ORBITALS:       34   (  20A'  +  14A"  )


 NUCLEAR REPULSION ENERGY  312.12941548


 Eigenvalues of metric

         1 0.305E-02 0.426E-02 0.634E-02 0.157E-01 0.197E-01 0.238E-01 0.284E-01 0.342E-01
         2 0.286E-02 0.704E-02 0.151E-01 0.195E-01 0.220E-01 0.343E-01 0.352E-01 0.358E-01


 Contracted 2-electron integrals neglected if value below      1.0D-16
 AO integral compression algorithm  1   Integral accuracy      1.0D-16

     207.094 MB (compressed) written to integral file ( 97.7%)

     Node minimum: 207.094 MB, node maximum: 207.094 MB


 NUMBER OF SORTED TWO-ELECTRON INTEGRALS:   23341315.     BUFFER LENGTH:  32768
 NUMBER OF SEGMENTS:   2  SEGMENT LENGTH:   15994315      RECORD LENGTH: 524288

 Memory used in sort:      16.55 MW

 SORT1 READ    26508670. AND WROTE    23262013. INTEGRALS IN     68 RECORDS. CPU TIME:     0.32 SEC, REAL TIME:     0.47 SEC
 SORT2 READ    23262013. AND WROTE    23341315. INTEGRALS IN    790 RECORDS. CPU TIME:     0.25 SEC, REAL TIME:     0.35 SEC

 FILE SIZES:   FILE 1:   187.9 MBYTE,  FILE 4:   285.2 MBYTE,   TOTAL:    473.2 MBYTE

 OPERATOR DM      FOR CENTER  0  COORDINATES:    0.000000    0.000000    0.000000


 **********************************************************************************************************************************
 DATASETS  * FILE   NREC   LENGTH (MB)   RECORD NAMES
              1      19      188.04       500      610      700      900      950      970     1000      129      960     1100   
                                          VAR    BASINP    GEOM    SYMINP    ZMAT    AOBASIS   BASIS     P2S    ABASIS      S 
                                         1400     1410     1200     1210     1080     1600     1650     1300     1700   
                                           T        V       H0       H01     AOSYM     SMH    MOLCAS    ERIS     OPER   

 PROGRAMS   *        TOTAL       INT
 CPU TIMES  *         3.64      3.59
 REAL TIME  *         4.14 SEC
 DISK USED  *       681.27 MB      
 GA USED    *         0.00 MB       (max)       0.00 MB       (current)
 **********************************************************************************************************************************

1PROGRAM * RHF-SCF (CLOSED SHELL)       Authors: W. Meyer, H.-J. Werner


 NUMBER OF ELECTRONS:      28+   28-
 CONVERGENCE THRESHOLDS:    1.00E-10 (Density)    1.00E-13 (Energy)
 MAX. NUMBER OF ITERATIONS:      200
 INTERPOLATION TYPE:            DIIS
 INTERPOLATION STEPS:              2 (START)      1 (STEP)
 LEVEL SHIFTS:                  0.00 (CLOSED)  0.00 (OPEN) 



 Orbital guess generated from atomic densities. Full valence occupancy:   27  17

 Molecular orbital dump at record        2100.2

 Initial alpha occupancy:  18  10
 Initial beta  occupancy:  18  10
 Wave function symmetry:    1

 ITERATION    DDIFF          GRAD             ENERGY        2-EL.EN.            DIPOLE MOMENTS         DIIS
    1      0.000D+00      0.000D+00      -592.64390545   1056.828846   -0.40871   -0.80405    0.00000    0
    2      0.000D+00      0.552D-02      -592.70492069   1054.242788   -0.20828   -0.73945    0.00000    1
    3      0.109D-01      0.184D-02      -592.71085370   1055.678672   -0.28073   -0.67694    0.00000    2
    4      0.375D-02      0.752D-03      -592.71186212   1055.059787   -0.25346   -0.71021    0.00000    3
    5      0.130D-02      0.108D-03      -592.71188786   1055.122657   -0.24952   -0.70175    0.00000    4
    6      0.252D-03      0.372D-04      -592.71189038   1055.091841   -0.25126   -0.70205    0.00000    5
    7      0.703D-04      0.864D-05      -592.71189058   1055.095005   -0.25059   -0.70193    0.00000    6
    8      0.230D-04      0.242D-05      -592.71189060   1055.094142   -0.25057   -0.70180    0.00000    7
    9      0.752D-05      0.630D-06      -592.71189061   1055.094026   -0.25056   -0.70176    0.00000    7
   10      0.177D-05      0.225D-06      -592.71189061   1055.094064   -0.25055   -0.70176    0.00000    7
   11      0.668D-06      0.479D-07      -592.71189061   1055.094050   -0.25055   -0.70175    0.00000    7
   12      0.159D-06      0.958D-08      -592.71189061   1055.094055   -0.25055   -0.70175    0.00000    7
   13      0.255D-07      0.400D-08      -592.71189061   1055.094052   -0.25055   -0.70175    0.00000    7
   14      0.882D-08      0.118D-08      -592.71189061   1055.094053   -0.25055   -0.70175    0.00000    7
   15      0.316D-08      0.381D-09      -592.71189061   1055.094053   -0.25055   -0.70175    0.00000    7
   16      0.917D-09      0.118D-09      -592.71189061   1055.094053   -0.25055   -0.70175    0.00000    8
   17      0.283D-09      0.252D-10      -592.71189061   1055.094053   -0.25055   -0.70175    0.00000    7
   18      0.669D-10      0.739D-11      -592.71189061   1055.094053   -0.25055   -0.70175    0.00000    7
   19      0.230D-10      0.243D-11      -592.71189061   1055.094053   -0.25055   -0.70175    0.00000    8
   20      0.666D-11      0.622D-12      -592.71189061   1055.094053   -0.25055   -0.70175    0.00000    0

 Final occupancy:  18  10

 !RHF STATE 1.1 Energy               -592.711890606412
 Nuclear energy                       312.12941548
 One-electron energy                -1432.38833254
 Two-electron energy                  527.54702645
 Virial quotient                       -1.00019578
 !RHF STATE 1.1 Dipole moment          -0.25054922    -0.70175226     0.00000000
 Dipole moment /Debye                  -0.63679089    -1.78355950     0.00000000

 Orbital energies:

         1.1          2.1          3.1          4.1          5.1          6.1          7.1          8.1          9.1         10.1
    -91.929663   -11.254882   -11.231108   -11.229321    -8.933557    -6.614020    -6.611819    -1.119569    -1.006402    -0.836069

        11.1         12.1         13.1         14.1         15.1         16.1         17.1         18.1         19.1         20.1
     -0.755656    -0.646669    -0.609759    -0.578345    -0.495553    -0.473168    -0.411556    -0.328595     0.176899     0.201264

         1.2          2.2          3.2          4.2          5.2          6.2          7.2          8.2          9.2         10.2
    -11.254896   -11.231018    -6.615452    -1.020071    -0.842222    -0.614568    -0.546924    -0.523679    -0.497775    -0.434823

        11.2         12.2
      0.190284     0.223058


 **********************************************************************************************************************************
 DATASETS  * FILE   NREC   LENGTH (MB)   RECORD NAMES
              1      19      188.04       500      610      700      900      950      970     1000      129      960     1100   
                                          VAR    BASINP    GEOM    SYMINP    ZMAT    AOBASIS   BASIS     P2S    ABASIS      S 
                                         1400     1410     1200     1210     1080     1600     1650     1300     1700   
                                           T        V       H0       H01     AOSYM     SMH    MOLCAS    ERIS     OPER   

              2       3        0.73       700     1000     2100   
                                         GEOM     BASIS     RHF  

 PROGRAMS   *        TOTAL       RHF       INT
 CPU TIMES  *         5.92      2.28      3.59
 REAL TIME  *         6.87 SEC
 DISK USED  *       681.27 MB      
 GA USED    *         0.00 MB       (max)       0.00 MB       (current)
 **********************************************************************************************************************************


1PROGRAM * CCSD (Closed-shell coupled cluster)     Authors: C. Hampel, H.-J. Werner, 1991, M. Deegan, P.J. Knowles, 1992


 Convergence thresholds:  THRVAR = 1.00D-08  THRDEN = 1.00D-12

 CCSD(T)     terms to be evaluated (factor= 1.000)


 Number of core orbitals:          10 (   7   3 )
 Number of closed-shell orbitals:  18 (  11   7 )
 Number of external orbitals:     110 (  61  49 )

 Molecular orbitals read from record     2100.2  Type=RHF/CANONICAL (state 1.1)

 Number of N-1 electron functions:              18
 Number of N-2 electron functions:             171
 Number of singly external CSFs:              1014
 Number of doubly external CSFs:            981666
 Total number of CSFs:                      982681

 Length of J-op  integral file:               0.00 MB
 Length of K-op  integral file:               0.70 MB
 Length of 3-ext integral record:             0.00 MB

 Memory could be reduced to 16.31 Mwords without degradation in triples

 Integral transformation finished. Total CPU:   0.92 sec, npass=  1  Memory used:  10.63 MW

 Reference energy:                   -592.71189061

 MP2 singlet pair energy:              -0.53945834
 MP2 triplet pair energy:              -0.30436357
 MP2 correlation energy:               -0.84382192
 MP2 total energy:                   -593.55571252

 SCS-MP2 correlation energy:           -0.83673179   (PS=  1.200000  PT=  0.333333)
 SCS-MP2 total energy:               -593.54862240

 ITER.      SQ.NORM     CORR.ENERGY   TOTAL ENERGY   ENERGY CHANGE        DEN1      VAR(S)    VAR(P)  DIIS     TIME
   1      1.33970410    -0.91079823  -593.62268883    -0.06697631    -0.04301739  0.26D-02  0.55D-02  1  1     2.76
   2      1.36670045    -0.91614599  -593.62803660    -0.00534776    -0.02577720  0.69D-04  0.46D-03  2  2     4.69
   3      1.37203459    -0.91627386  -593.62816447    -0.00012787    -0.00303815  0.16D-04  0.28D-04  3  3     6.60
   4      1.37352790    -0.91633192  -593.62822253    -0.00005806    -0.00059398  0.76D-06  0.20D-05  4  4     8.53
   5      1.37376862    -0.91633853  -593.62822913    -0.00000661    -0.00007087  0.17D-06  0.16D-06  5  5    10.45
   6      1.37381428    -0.91633408  -593.62822468     0.00000445    -0.00001393  0.30D-07  0.14D-07  6  6    12.38
   7      1.37382187    -0.91633396  -593.62822457     0.00000011     0.00000064  0.53D-08  0.23D-08  6  2    14.31
   8      1.37382795    -0.91633365  -593.62822426     0.00000031    -0.00000125  0.73D-09  0.27D-09  6  1    16.24
   9      1.37382878    -0.91633359  -593.62822419     0.00000006     0.00000051  0.66D-10  0.44D-10  6  4    18.18
  10      1.37382966    -0.91633355  -593.62822416     0.00000003    -0.00000011  0.48D-11  0.35D-11  6  3    20.10
  11      1.37382967    -0.91633356  -593.62822416    -0.00000000     0.00000004  0.12D-11  0.54D-12  6  5    22.04
  12      1.37382964    -0.91633356  -593.62822416    -0.00000000     0.00000002  0.17D-12  0.77D-13  6  6    23.97
  13      1.37382959    -0.91633356  -593.62822417    -0.00000000     0.00000002  0.24D-13  0.11D-13  6  1    25.89
  14      1.37382958    -0.91633356  -593.62822417    -0.00000000     0.00000000  0.31D-14  0.12D-14  6  2    27.83
  15      1.37382958    -0.91633356  -593.62822417     0.00000000    -0.00000000  0.67D-15  0.31D-15  6  4    29.76
  16      1.37382958    -0.91633356  -593.62822417     0.00000000    -0.00000000  0.32D-16  0.23D-16  6  5    31.70
  17      1.37382958    -0.91633356  -593.62822417     0.00000000    -0.00000000  0.57D-17  0.24D-17  6  3    33.62
  18      1.37382958    -0.91633356  -593.62822417     0.00000000    -0.00000000  0.14D-17  0.42D-18  6  5    35.56
  19      1.37382958    -0.91633356  -593.62822417     0.00000000    -0.00000000  0.18D-18  0.64D-19  6  6    37.49
  20      1.37382958    -0.91633356  -593.62822417     0.00000000     0.00000000  0.15D-19  0.66D-20  6  1    39.43
  21      1.37382958    -0.91633356  -593.62822417    -0.00000000     0.00000000  0.23D-20  0.98D-21  6  2    41.36

 Norm of t1 vector:      0.07015495      S-energy:    -0.00000000      T1 diagnostic:  0.00826784
                                                                       D1 diagnostic:  0.02108348


 Total CPU time for triples:     37.80 sec


 RESULTS
 =======

  Reference energy                   -592.711890606412
  CCSD singlet pair energy             -0.634213561732
  CCSD triplet pair energy             -0.282119998842
  CCSD correlation energy              -0.916333560574

  Triples (T) contribution             -0.029867910365
  Total correlation energy             -0.946201470940

  CCSD total energy                  -593.628224166986
  CCSD[T] energy                     -593.658711554654
  CCSD-T energy                      -593.657780856944
 !CCSD(T) total energy               -593.658092077351

 Timing summary (sec):

 STEP                 CPU(USER)    SYS     CPU(TOT)    WALL
 Transformation          0.95      0.12      1.07      1.07
 CCSD iterations        40.41      1.45     41.86     42.00
 Triples                37.80      1.14     38.94     38.94

 Program statistics:

 Available memory in ccsd:               999998604
 Min. memory needed in ccsd:               2548392
 Max. memory used in ccsd:                 3412984
 Max. memory used in cckext:               3730705 (21 integral passes)



 **********************************************************************************************************************************
 DATASETS  * FILE   NREC   LENGTH (MB)   RECORD NAMES
              1      20      256.21       500      610      700      900      950      970     1000      129      960     1100   
                                          VAR    BASINP    GEOM    SYMINP    ZMAT    AOBASIS   BASIS     P2S    ABASIS      S 
                                         1400     1410     1200     1210     1080     1600     1650     1300     1700     1380   
                                           T        V       H0       H01     AOSYM     SMH    MOLCAS    ERIS     OPER     JKOP   

              2       3        0.73       700     1000     2100   
                                         GEOM     BASIS     RHF  

 PROGRAMS   *        TOTAL   CCSD(T)       RHF       INT
 CPU TIMES  *        85.09     79.17      2.28      3.59
 REAL TIME  *        88.92 SEC
 DISK USED  *       681.27 MB      
 GA USED    *         0.00 MB       (max)       0.00 MB       (current)
 **********************************************************************************************************************************

        CCSD(T)         RHF-SCF 
   -593.65809208   -592.71189061
 **********************************************************************************************************************************
 Variable memory released
