
    -----------------------------------------------------------------------
          Psi4: An Open-Source Ab Initio Electronic Structure Package
                               Psi4 1.4a2.dev629 

                         Git: Rev {master} 2938fc2 dirty


    D. G. A. Smith, L. A. Burns, A. C. Simmonett, R. M. Parrish,
    M. C. Schieber, R. Galvelis, P. Kraus, H. Kruse, R. Di Remigio,
    A. Alenaizan, A. M. James, S. Lehtola, J. P. Misiewicz, M. Scheurer,
    R. A. Shaw, J. B. Schriber, Y. Xie, Z. L. Glick, D. A. Sirianni,
    J. S. O'Brien, J. M. Waldrop, A. Kumar, E. G. Hohenstein,
    B. P. Pritchard, B. R. Brooks, H. F. Schaefer III, A. Yu. Sokolov,
    K. Patkowski, A. E. DePrince III, U. Bozkaya, R. A. King,
    F. A. Evangelista, J. M. Turney, T. D. Crawford, C. D. Sherrill,
    J. Chem. Phys. 152(18) 184108 (2020). https://doi.org/10.1063/5.0006002

                            Additional Code Authors
    E. T. Seidl, C. L. Janssen, E. F. Valeev, M. L. Leininger,
    J. F. Gonthier, R. M. Richard, H. R. McAlexander, M. Saitow, X. Wang,
    P. Verma, and M. H. Lechner

             Previous Authors, Complete List of Code Contributors,
                       and Citations for Specific Modules
    https://github.com/psi4/psi4/blob/master/codemeta.json
    https://github.com/psi4/psi4/graphs/contributors
    http://psicode.org/psi4manual/master/introduction.html#citing-psifour

    -----------------------------------------------------------------------


    Psi4 started on: Monday, 01 November 2021 07:36AM

    Process ID: 16373
    Host:       n022
    PSIDATADIR: /opt/psi/4/master/share/psi4
    Memory:     500.0 MiB
    Threads:    1
    
  ==> Input File <==

--------------------------------------------------------------------------
import os
memory 14 GB 
 
molecule {
 C   -2.5581924062    1.0347058892   -0.0006859639
 O   -1.1437647501   -1.2856579731   -0.0054155190
 C    1.3644819047   -0.9345190419   -0.0013783130
 O    2.4172915395    1.0832996252    0.0006480642
 H   -2.1123584945    2.1416233243   -1.6762533344
 H   -4.5332723579    0.4789338573    0.0035127211
 H   -2.1146941454    2.1441587819    1.6769894016
 H    2.3148235200   -2.7722912630    0.0025828535
units bohr
}

basis {

assign 6-31g_2dfp_

[ 6-31g_2dfp_ ]

spherical

!----------------------------------------------------------------------
! Basis Set Exchange
! Version v0.8.13
! https://www.basissetexchange.org
!----------------------------------------------------------------------
!   Basis set: 6-31G(2df,p)
! Description: 6-31G(2df,p)
!        Role: orbital
!     Version: 0  (Data from the original Basis Set Exchange)
!----------------------------------------------------------------------


****
H     0
S    3   1.00
     18.7311370              0.03349460
      2.8253937              0.23472695
      0.6401217              0.81375733
S    1   1.00
      0.1612778              1.00000000
P    1   1.00
      1.5000000              1.0000000
P    1   1.00
      0.3750000              1.0000000
****
B     0
S    6   1.00
   2068.8823000              0.0018663
    310.6495700              0.0142515
     70.6830330              0.0695516
     19.8610800              0.2325729
      6.2993048              0.4670787
      2.1270270              0.3634314
SP   3   1.00
      4.7279710             -0.1303938              0.0745976
      1.1903377             -0.1307889              0.3078467
      0.3594117              1.1309444              0.7434568
SP   1   1.00
      0.1267512              1.0000000              1.0000000
D    1   1.00
      0.8020000              1.0000000
D    1   1.00
      0.2005000              1.0000000
F    1   1.00
      0.5000000              1.0000000
****
C     0
S    6   1.00
   3047.5249000              0.0018347
    457.3695100              0.0140373
    103.9486900              0.0688426
     29.2101550              0.2321844
      9.2866630              0.4679413
      3.1639270              0.3623120
SP   3   1.00
      7.8682724             -0.1193324              0.0689991
      1.8812885             -0.1608542              0.3164240
      0.5442493              1.1434564              0.7443083
SP   1   1.00
      0.1687144              1.0000000              1.0000000
D    1   1.00
      1.2520000              1.0000000
D    1   1.00
      0.3130000              1.0000000
F    1   1.00
      0.8000000              1.0000000
****
N     0
S    6   1.00
   4173.5110000              0.0018348
    627.4579000              0.0139950
    142.9021000              0.0685870
     40.2343300              0.2322410
     12.8202100              0.4690700
      4.3904370              0.3604550
SP   3   1.00
     11.6263580             -0.1149610              0.0675800
      2.7162800             -0.1691180              0.3239070
      0.7722180              1.1458520              0.7408950
SP   1   1.00
      0.2120313              1.0000000              1.0000000
D    1   1.00
      1.8260000              1.0000000
D    1   1.00
      0.4565000              1.0000000
F    1   1.00
      1.0000000              1.0000000
****
O     0
S    6   1.00
   5484.6717000              0.0018311
    825.2349500              0.0139501
    188.0469600              0.0684451
     52.9645000              0.2327143
     16.8975700              0.4701930
      5.7996353              0.3585209
SP   3   1.00
     15.5396160             -0.1107775              0.0708743
      3.5999336             -0.1480263              0.3397528
      1.0137618              1.1307670              0.7271586
SP   1   1.00
      0.2700058              1.0000000              1.0000000
D    1   1.00
      2.5840000              1.0000000
D    1   1.00
      0.6460000              1.0000000
F    1   1.00
      1.4000000              1.0000000
****
F     0
S    6   1.00
   7001.7130900              0.0018196169
   1051.3660900              0.0139160796
    239.2856900              0.0684053245
     67.3974453              0.233185760
     21.5199573              0.471267439
      7.40310130             0.356618546
SP   3   1.00
     20.8479528             -0.108506975            0.0716287243
      4.80830834            -0.146451658            0.3459121030
      1.34406986             1.128688580            0.7224699570
SP   1   1.00
      0.358151393            1.0000000              1.0000000
D    1   1.00
      3.5000000              1.0000000
D    1   1.00
      0.8750000              1.0000000
F    1   1.00
      1.8500000              1.0000000
****
Al     0
S    6   1.00
  13983.1000000              0.00194267
   2098.7500000              0.0148599
    477.7050000              0.0728494
    134.3600000              0.2468300
     42.8709000              0.4872580
     14.5189000              0.3234960
SP   6   1.00
    239.6680000             -0.00292619             0.00460285
     57.4419000             -0.0374080              0.0331990
     18.2859000             -0.1144870              0.1362820
      6.5991400              0.1156350              0.3304760
      2.4904900              0.6125950              0.4491460
      0.9445400              0.3937990              0.2657040
SP   3   1.00
      1.2779000             -0.2276060             -0.0175130
      0.3975900              0.00144583             0.2445330
      0.1600950              1.0927900              0.8049340
SP   1   1.00
      0.0556577              1.0000000              1.0000000
D    1   1.00
      0.6500000              1.0000000
D    1   1.00
      0.1625000              1.0000000
F    1   1.00
      0.2500000              1.0000000
****
Si     0
S    6   1.00
  16115.9000000              0.00195948
   2425.5800000              0.01492880
    553.8670000              0.07284780
    156.3400000              0.24613000
     50.0683000              0.48591400
     17.0178000              0.32500200
SP   6   1.00
    292.7180000             -0.00278094             0.00443826
     69.8731000             -0.03571460             0.03266790
     22.3363000             -0.11498500             0.13472100
      8.1503900              0.09356340             0.32867800
      3.1345800              0.60301700             0.44964000
      1.2254300              0.41895900             0.26137200
SP   3   1.00
      1.7273800             -0.24463000            -0.01779510
      0.5729220              0.00431572             0.25353900
      0.2221920              1.09818000             0.80066900
SP   1   1.00
      0.0778369              1.00000000             1.00000000
D    1   1.00
      0.9000000              1.0000000
D    1   1.00
      0.2250000              1.0000000
F    1   1.00
      0.3200000              1.0000000
****
P     0
S    6   1.00
  19413.3000000              0.0018516
   2909.4200000              0.0142062
    661.3640000              0.0699995
    185.7590000              0.2400790
     59.1943000              0.4847620
     20.0310000              0.3352000
SP   6   1.00
    339.4780000             -0.00278217             0.00456462
     81.0101000             -0.0360499              0.03369360
     25.8780000             -0.1166310              0.13975500
      9.4522100              0.0968328              0.33936200
      3.6656600              0.6144180              0.45092100
      1.4674600              0.4037980              0.23858600
SP   3   1.00
      2.1562300             -0.2529230             -0.01776530
      0.7489970              0.0328517              0.27405800
      0.2831450              1.0812500              0.78542100
SP   1   1.00
      0.0998317              1.0000000              1.00000000
D    1   1.00
      1.1000000              1.0000000
D    1   1.00
      0.2750000              1.0000000
F    1   1.00
      0.4500000              1.0000000
****
S     0
S    6   1.00
  21917.1000000              0.0018690
   3301.4900000              0.0142300
    754.1460000              0.0696960
    212.7110000              0.2384870
     67.9896000              0.4833070
     23.0515000              0.3380740
SP   6   1.00
    423.7350000             -0.0023767              0.0040610
    100.7100000             -0.0316930              0.0306810
     32.1599000             -0.1133170              0.1304520
     11.8079000              0.0560900              0.3272050
      4.6311000              0.5922550              0.4528510
      1.8702500              0.4550060              0.2560420
SP   3   1.00
      2.6158400             -0.2503740             -0.0145110
      0.9221670              0.0669570              0.3102630
      0.3412870              1.0545100              0.7544830
SP   1   1.00
      0.1171670              1.0000000              1.0000000
D    1   1.00
      1.3000000              1.0000000
D    1   1.00
      0.3250000              1.0000000
F    1   1.00
      0.5500000              1.0000000
****
Cl     0
S    6   1.00
  25180.1000000              0.0018330
   3780.3500000              0.0140340
    860.4740000              0.0690970
    242.1450000              0.2374520
     77.3349000              0.4830340
     26.2470000              0.3398560
SP   6   1.00
    491.7650000             -0.0022974              0.0039894
    116.9840000             -0.0307140              0.0303180
     37.4153000             -0.1125280              0.1298800
     13.7834000              0.0450160              0.3279510
      5.4521500              0.5893530              0.4535270
      2.2258800              0.4652060              0.2521540
SP   3   1.00
      3.1864900             -0.2518300             -0.0142990
      1.1442700              0.0615890              0.3235720
      0.4203770              1.0601800              0.7435070
SP   1   1.00
      0.1426570              1.0000000              1.0000000
D    1   1.00
      1.5000000              1.0000000
D    1   1.00
      0.3750000              1.0000000
F    1   1.00
      0.7000000              1.0000000
****
}


set {
reference rhf                          
freeze_core true
e_convergence 10                       
d_convergence 10                      
dft_spherical_points 1202
dft_radial_points 99
}

e = energy('b3lyp')

print_out('Grab this energy {0}'.format(e))
--------------------------------------------------------------------------

  Memory set to  13.039 GiB by Python driver.

Scratch directory: /tmp/

*** tstart() called on n022
*** at Mon Nov  1 07:36:06 2021

   => Loading Basis Set <=

    Name: ANONYMOUSCCD38E2B
    Role: ORBITAL
    Keyword: BASIS
    atoms 1, 3 entry C          line    48 inputblock 6-31g_2dfp_ 
    atoms 2, 4 entry O          line    90 inputblock 6-31g_2dfp_ 
    atoms 5-8  entry H          line    15 inputblock 6-31g_2dfp_ 


         ---------------------------------------------------------
                                   SCF
               by Justin Turney, Rob Parrish, Andy Simmonett
                          and Daniel G. A. Smith
                              RKS Reference
                        1 Threads,  13351 MiB Core
         ---------------------------------------------------------

  ==> Geometry <==

    Molecular point group: c1
    Full point group: C1

    Geometry (in Bohr), charge = 0, multiplicity = 1:

       Center              X                  Y                   Z               Mass       
    ------------   -----------------  -----------------  -----------------  -----------------
         C           -2.550686524602     1.035146514725     0.000882504682    12.000000000000
         O           -1.136258868502    -1.285217347575    -0.003847050418    15.994914619570
         C            1.371987786298    -0.934078416375     0.000190155582    12.000000000000
         O            2.424797421098     1.083740250725     0.002216532782    15.994914619570
         H           -2.104852612902     2.142063949825    -1.674684865818     1.007825032230
         H           -4.525766476302     0.479374482825     0.005081189682     1.007825032230
         H           -2.107188263802     2.144599407425     1.678557870182     1.007825032230
         H            2.322329401598    -2.771850637475     0.004151322082     1.007825032230

  Running in c1 symmetry.

  Rotational constants: A =      0.65840  B =      0.23512  C =      0.17909 [cm^-1]
  Rotational constants: A =  19738.29202  B =   7048.61791  C =   5368.97025 [MHz]
  Nuclear repulsion =  122.614153412859864

  Charge       = 0
  Multiplicity = 1
  Electrons    = 32
  Nalpha       = 16
  Nbeta        = 16

  ==> Algorithm <==

  SCF Algorithm Type is DF.
  DIIS enabled.
  MOM disabled.
  Fractional occupation disabled.
  Guess Type is SAD.
  Energy threshold   = 1.00e-10
  Density threshold  = 1.00e-10
  Integral threshold = 0.00e+00

  ==> Primary Basis <==

  Basis Set: ANONYMOUSCCD38E2B
    Blend: 6-31G_2DFP_
    Number of shells: 48
    Number of basis function: 136
    Number of Cartesian functions: 156
    Spherical Harmonics?: true
    Max angular momentum: 3

  ==> DFT Potential <==

   => Composite Functional: B3LYP <= 

    B3LYP Hyb-GGA Exchange-Correlation Functional

    P. J. Stephens, F. J. Devlin, C. F. Chabalowski, and M. J. Frisch, J. Phys. Chem. 98, 11623 (1994)

    Deriv               =              1
    GGA                 =           TRUE
    Meta                =          FALSE

    Exchange Hybrid     =           TRUE
    MP2 Hybrid          =          FALSE

   => Exchange Functionals <=

    0.0800   Slater exchange
    0.7200         Becke 88

   => Exact (HF) Exchange <=

    0.2000               HF 

   => Correlation Functionals <=

    0.1900   Vosko, Wilk & Nusair (VWN5_RPA)
    0.8100   Lee, Yang & Parr

   => Molecular Quadrature <=

    Radial Scheme          =       TREUTLER
    Pruning Scheme         =           NONE
    Nuclear Scheme         =       TREUTLER

    BS radius alpha        =              1
    Pruning alpha          =              1
    Radial Points          =             99
    Spherical Points       =           1202
    Total Points           =         894514
    Total Blocks           =           6090
    Max Points             =            256
    Max Functions          =            136
    Weights Tolerance      =       1.00E-15

   => Loading Basis Set <=

    Name: (ANONYMOUSCCD38E2B AUX)
    Role: JKFIT
    Keyword: DF_BASIS_SCF
    atoms 1, 3 entry C          line   198 file /opt/psi/4/master/share/psi4/basis/def2-universal-jkfit.gbs 
    atoms 2, 4 entry O          line   318 file /opt/psi/4/master/share/psi4/basis/def2-universal-jkfit.gbs 
    atoms 5-8  entry H          line    18 file /opt/psi/4/master/share/psi4/basis/def2-universal-jkfit.gbs 

  ==> Integral Setup <==

  DFHelper Memory: AOs need 0.056 GiB; user supplied 6.945 GiB. Using in-core AOs.

  ==> MemDFJK: Density-Fitted J/K Matrices <==

    J tasked:                   Yes
    K tasked:                   Yes
    wK tasked:                   No
    OpenMP threads:               1
    Memory [MiB]:              7112
    Algorithm:                 Core
    Schwarz Cutoff:           1E-12
    Mask sparsity (%):       1.1029
    Fitting Condition:        1E-10

   => Auxiliary Basis Set <=

  Basis Set: (ANONYMOUSCCD38E2B AUX)
    Blend: DEF2-UNIVERSAL-JKFIT
    Number of shells: 124
    Number of basis function: 376
    Number of Cartesian functions: 444
    Spherical Harmonics?: true
    Max angular momentum: 4

  Cached 100.0% of DFT collocation blocks in 2.834 [GiB].

  Minimum eigenvalue in the overlap matrix is 2.5235914390E-03.
  Reciprocal condition number of the overlap matrix is 4.7884503368E-04.
    Using symmetric orthogonalization.

  ==> Pre-Iterations <==

  SCF Guess: Superposition of Atomic Densities via on-the-fly atomic UHF (no occupation information).

   -------------------------
    Irrep   Nso     Nmo    
   -------------------------
     A        136     136 
   -------------------------
    Total     136     136
   -------------------------

  ==> Iterations <==

                           Total Energy        Delta E     RMS |[F,P]|

   @DF-RKS iter SAD:  -228.52079748897555   -2.28521e+02   0.00000e+00 
   @DF-RKS iter   1:  -228.88244519263210   -3.61648e-01   4.96268e-03 DIIS
   @DF-RKS iter   2:  -228.63220486321930    2.50240e-01   7.69954e-03 DIIS
   @DF-RKS iter   3:  -229.04749014733446   -4.15285e-01   1.89996e-03 DIIS
   @DF-RKS iter   4:  -229.07416971579946   -2.66796e-02   4.83528e-04 DIIS
   @DF-RKS iter   5:  -229.07556247384775   -1.39276e-03   1.91523e-04 DIIS
   @DF-RKS iter   6:  -229.07581691803864   -2.54444e-04   3.81632e-05 DIIS
   @DF-RKS iter   7:  -229.07582713198366   -1.02139e-05   9.12365e-06 DIIS
   @DF-RKS iter   8:  -229.07582778074601   -6.48762e-07   2.35148e-06 DIIS
   @DF-RKS iter   9:  -229.07582782392669   -4.31807e-08   2.82380e-07 DIIS
   @DF-RKS iter  10:  -229.07582782460881   -6.82121e-10   3.83359e-08 DIIS
   @DF-RKS iter  11:  -229.07582782462228   -1.34719e-11   1.32472e-08 DIIS
   @DF-RKS iter  12:  -229.07582782462356   -1.27898e-12   2.48065e-09 DIIS
   @DF-RKS iter  13:  -229.07582782462390   -3.41061e-13   1.77042e-10 DIIS
   @DF-RKS iter  14:  -229.07582782462393   -2.84217e-14   3.13473e-11 DIIS
  Energy and wave function converged.


  ==> Post-Iterations <==

    Orbital Energies [Eh]
    ---------------------

    Doubly Occupied:                                                      

       1A    -19.198994     2A    -19.142458     3A    -10.311111  
       4A    -10.239532     5A     -1.109682     6A     -1.021731  
       7A     -0.738582     8A     -0.598110     9A     -0.532424  
      10A     -0.486141    11A     -0.473569    12A     -0.423537  
      13A     -0.396786    14A     -0.366430    15A     -0.311264  
      16A     -0.284152  

    Virtual:                                                              

      17A      0.003539    18A      0.096651    19A      0.113493  
      20A      0.135502    21A      0.152269    22A      0.159231  
      23A      0.266127    24A      0.282475    25A      0.421320  
      26A      0.444261    27A      0.446477    28A      0.477955  
      29A      0.479434    30A      0.518777    31A      0.526312  
      32A      0.577244    33A      0.589164    34A      0.597722  
      35A      0.615698    36A      0.672937    37A      0.710987  
      38A      0.749408    39A      0.801004    40A      0.807968  
      41A      0.809593    42A      0.838760    43A      0.923643  
      44A      0.925093    45A      0.953730    46A      0.974237  
      47A      1.034946    48A      1.035870    49A      1.086325  
      50A      1.117696    51A      1.160127    52A      1.192863  
      53A      1.267356    54A      1.311889    55A      1.330331  
      56A      1.350101    57A      1.392252    58A      1.408951  
      59A      1.471932    60A      1.575094    61A      1.585982  
      62A      1.634890    63A      1.694912    64A      1.739162  
      65A      1.823993    66A      1.832007    67A      1.870402  
      68A      1.873938    69A      1.938216    70A      1.998505  
      71A      2.056344    72A      2.064282    73A      2.268854  
      74A      2.362450    75A      2.529880    76A      2.643379  
      77A      2.871637    78A      2.912385    79A      2.938719  
      80A      2.942326    81A      3.028738    82A      3.042615  
      83A      3.071018    84A      3.142909    85A      3.170895  
      86A      3.198964    87A      3.228676    88A      3.295249  
      89A      3.344869    90A      3.350392    91A      3.366947  
      92A      3.415341    93A      3.428673    94A      3.525931  
      95A      3.606224    96A      3.626532    97A      3.692135  
      98A      3.783334    99A      3.855574   100A      3.973706  
     101A      4.087497   102A      4.109587   103A      4.120863  
     104A      4.267533   105A      4.307917   106A      4.321747  
     107A      4.418217   108A      4.451947   109A      4.880420  
     110A      4.890365   111A      5.030208   112A      5.095032  
     113A      5.100242   114A      5.177510   115A      5.262058  
     116A      5.263261   117A      5.386932   118A      5.455846  
     119A      5.566561   120A      5.665116   121A      5.816842  
     122A      5.823783   123A      5.930046   124A      5.964281  
     125A      6.076748   126A      6.524658   127A      6.801366  
     128A      6.846891   129A      7.034332   130A      7.047529  
     131A      7.083213   132A      7.248384   133A      7.248569  
     134A      7.513133   135A      7.585574   136A      7.636024  

    Final Occupation by Irrep:
              A 
    DOCC [    16 ]

  @DF-RKS Final Energy:  -229.07582782462393

   => Energetics <=

    Nuclear Repulsion Energy =            122.6141534128598636
    One-Electron Energy =                -554.9508801330642882
    Two-Electron Energy =                 227.1471068524763837
    DFT Exchange-Correlation Energy =     -23.8862079568958947
    Empirical Dispersion Energy =           0.0000000000000000
    VV10 Nonlocal Energy =                  0.0000000000000000
    Total Energy =                       -229.0758278246239286

Computation Completed


Properties will be evaluated at   0.000000,   0.000000,   0.000000 [a0]

Properties computed using the SCF density matrix

  Nuclear Dipole Moment: [e a0]
     X:    -3.1794      Y:     0.9888      Z:     0.0065

  Electronic Dipole Moment: [e a0]
     X:     2.5519      Y:    -1.2501      Z:    -0.0054

  Dipole Moment: [e a0]
     X:    -0.6274      Y:    -0.2613      Z:     0.0011     Total:     0.6797

  Dipole Moment: [D]
     X:    -1.5948      Y:    -0.6641      Z:     0.0027     Total:     1.7275


*** tstop() called on n022 at Mon Nov  1 07:37:08 2021
Module time:
	user time   =      61.66 seconds =       1.03 minutes
	system time =       0.64 seconds =       0.01 minutes
	total time  =         62 seconds =       1.03 minutes
Total time:
	user time   =      61.66 seconds =       1.03 minutes
	system time =       0.64 seconds =       0.01 minutes
	total time  =         62 seconds =       1.03 minutes
Grab this energy -229.07582782462393
    Psi4 stopped on: Monday, 01 November 2021 07:37AM
    Psi4 wall time for execution: 0:01:02.36

*** Psi4 exiting successfully. Buy a developer a beer!
