
    -----------------------------------------------------------------------
          Psi4: An Open-Source Ab Initio Electronic Structure Package
                               Psi4 1.4a2.dev629 

                         Git: Rev {master} 2938fc2 dirty


    D. G. A. Smith, L. A. Burns, A. C. Simmonett, R. M. Parrish,
    M. C. Schieber, R. Galvelis, P. Kraus, H. Kruse, R. Di Remigio,
    A. Alenaizan, A. M. James, S. Lehtola, J. P. Misiewicz, M. Scheurer,
    R. A. Shaw, J. B. Schriber, Y. Xie, Z. L. Glick, D. A. Sirianni,
    J. S. O'Brien, J. M. Waldrop, A. Kumar, E. G. Hohenstein,
    B. P. Pritchard, B. R. Brooks, H. F. Schaefer III, A. Yu. Sokolov,
    K. Patkowski, A. E. DePrince III, U. Bozkaya, R. A. King,
    F. A. Evangelista, J. M. Turney, T. D. Crawford, C. D. Sherrill,
    J. Chem. Phys. 152(18) 184108 (2020). https://doi.org/10.1063/5.0006002

                            Additional Code Authors
    E. T. Seidl, C. L. Janssen, E. F. Valeev, M. L. Leininger,
    J. F. Gonthier, R. M. Richard, H. R. McAlexander, M. Saitow, X. Wang,
    P. Verma, and M. H. Lechner

             Previous Authors, Complete List of Code Contributors,
                       and Citations for Specific Modules
    https://github.com/psi4/psi4/blob/master/codemeta.json
    https://github.com/psi4/psi4/graphs/contributors
    http://psicode.org/psi4manual/master/introduction.html#citing-psifour

    -----------------------------------------------------------------------


    Psi4 started on: Monday, 01 November 2021 07:41AM

    Process ID: 6975
    Host:       n032
    PSIDATADIR: /opt/psi/4/master/share/psi4
    Memory:     500.0 MiB
    Threads:    1
    
  ==> Input File <==

--------------------------------------------------------------------------
import os
memory 14 GB 
 
molecule {
 C   -2.5725620129    1.0406165916   -0.0000000099
 O   -1.1327422825   -1.2693460820    0.0000000100
 C    1.3821754452   -0.9368746858    0.0000000000
 O    2.4632401492    1.0667063407    0.0000000000
 H   -2.1404595246    2.1541210003   -1.6805592048
 H   -4.5361685545    0.4670696244    0.0000000201
 H   -2.1404595050    2.1541210401    1.6805591646
 H    2.3112910952   -2.7861606293   -0.0000000700
units bohr
}

basis {

assign 6-31g_2dfp_

[ 6-31g_2dfp_ ]

spherical

!----------------------------------------------------------------------
! Basis Set Exchange
! Version v0.8.13
! https://www.basissetexchange.org
!----------------------------------------------------------------------
!   Basis set: 6-31G(2df,p)
! Description: 6-31G(2df,p)
!        Role: orbital
!     Version: 0  (Data from the original Basis Set Exchange)
!----------------------------------------------------------------------


****
H     0
S    3   1.00
     18.7311370              0.03349460
      2.8253937              0.23472695
      0.6401217              0.81375733
S    1   1.00
      0.1612778              1.00000000
P    1   1.00
      1.5000000              1.0000000
P    1   1.00
      0.3750000              1.0000000
****
B     0
S    6   1.00
   2068.8823000              0.0018663
    310.6495700              0.0142515
     70.6830330              0.0695516
     19.8610800              0.2325729
      6.2993048              0.4670787
      2.1270270              0.3634314
SP   3   1.00
      4.7279710             -0.1303938              0.0745976
      1.1903377             -0.1307889              0.3078467
      0.3594117              1.1309444              0.7434568
SP   1   1.00
      0.1267512              1.0000000              1.0000000
D    1   1.00
      0.8020000              1.0000000
D    1   1.00
      0.2005000              1.0000000
F    1   1.00
      0.5000000              1.0000000
****
C     0
S    6   1.00
   3047.5249000              0.0018347
    457.3695100              0.0140373
    103.9486900              0.0688426
     29.2101550              0.2321844
      9.2866630              0.4679413
      3.1639270              0.3623120
SP   3   1.00
      7.8682724             -0.1193324              0.0689991
      1.8812885             -0.1608542              0.3164240
      0.5442493              1.1434564              0.7443083
SP   1   1.00
      0.1687144              1.0000000              1.0000000
D    1   1.00
      1.2520000              1.0000000
D    1   1.00
      0.3130000              1.0000000
F    1   1.00
      0.8000000              1.0000000
****
N     0
S    6   1.00
   4173.5110000              0.0018348
    627.4579000              0.0139950
    142.9021000              0.0685870
     40.2343300              0.2322410
     12.8202100              0.4690700
      4.3904370              0.3604550
SP   3   1.00
     11.6263580             -0.1149610              0.0675800
      2.7162800             -0.1691180              0.3239070
      0.7722180              1.1458520              0.7408950
SP   1   1.00
      0.2120313              1.0000000              1.0000000
D    1   1.00
      1.8260000              1.0000000
D    1   1.00
      0.4565000              1.0000000
F    1   1.00
      1.0000000              1.0000000
****
O     0
S    6   1.00
   5484.6717000              0.0018311
    825.2349500              0.0139501
    188.0469600              0.0684451
     52.9645000              0.2327143
     16.8975700              0.4701930
      5.7996353              0.3585209
SP   3   1.00
     15.5396160             -0.1107775              0.0708743
      3.5999336             -0.1480263              0.3397528
      1.0137618              1.1307670              0.7271586
SP   1   1.00
      0.2700058              1.0000000              1.0000000
D    1   1.00
      2.5840000              1.0000000
D    1   1.00
      0.6460000              1.0000000
F    1   1.00
      1.4000000              1.0000000
****
F     0
S    6   1.00
   7001.7130900              0.0018196169
   1051.3660900              0.0139160796
    239.2856900              0.0684053245
     67.3974453              0.233185760
     21.5199573              0.471267439
      7.40310130             0.356618546
SP   3   1.00
     20.8479528             -0.108506975            0.0716287243
      4.80830834            -0.146451658            0.3459121030
      1.34406986             1.128688580            0.7224699570
SP   1   1.00
      0.358151393            1.0000000              1.0000000
D    1   1.00
      3.5000000              1.0000000
D    1   1.00
      0.8750000              1.0000000
F    1   1.00
      1.8500000              1.0000000
****
Al     0
S    6   1.00
  13983.1000000              0.00194267
   2098.7500000              0.0148599
    477.7050000              0.0728494
    134.3600000              0.2468300
     42.8709000              0.4872580
     14.5189000              0.3234960
SP   6   1.00
    239.6680000             -0.00292619             0.00460285
     57.4419000             -0.0374080              0.0331990
     18.2859000             -0.1144870              0.1362820
      6.5991400              0.1156350              0.3304760
      2.4904900              0.6125950              0.4491460
      0.9445400              0.3937990              0.2657040
SP   3   1.00
      1.2779000             -0.2276060             -0.0175130
      0.3975900              0.00144583             0.2445330
      0.1600950              1.0927900              0.8049340
SP   1   1.00
      0.0556577              1.0000000              1.0000000
D    1   1.00
      0.6500000              1.0000000
D    1   1.00
      0.1625000              1.0000000
F    1   1.00
      0.2500000              1.0000000
****
Si     0
S    6   1.00
  16115.9000000              0.00195948
   2425.5800000              0.01492880
    553.8670000              0.07284780
    156.3400000              0.24613000
     50.0683000              0.48591400
     17.0178000              0.32500200
SP   6   1.00
    292.7180000             -0.00278094             0.00443826
     69.8731000             -0.03571460             0.03266790
     22.3363000             -0.11498500             0.13472100
      8.1503900              0.09356340             0.32867800
      3.1345800              0.60301700             0.44964000
      1.2254300              0.41895900             0.26137200
SP   3   1.00
      1.7273800             -0.24463000            -0.01779510
      0.5729220              0.00431572             0.25353900
      0.2221920              1.09818000             0.80066900
SP   1   1.00
      0.0778369              1.00000000             1.00000000
D    1   1.00
      0.9000000              1.0000000
D    1   1.00
      0.2250000              1.0000000
F    1   1.00
      0.3200000              1.0000000
****
P     0
S    6   1.00
  19413.3000000              0.0018516
   2909.4200000              0.0142062
    661.3640000              0.0699995
    185.7590000              0.2400790
     59.1943000              0.4847620
     20.0310000              0.3352000
SP   6   1.00
    339.4780000             -0.00278217             0.00456462
     81.0101000             -0.0360499              0.03369360
     25.8780000             -0.1166310              0.13975500
      9.4522100              0.0968328              0.33936200
      3.6656600              0.6144180              0.45092100
      1.4674600              0.4037980              0.23858600
SP   3   1.00
      2.1562300             -0.2529230             -0.01776530
      0.7489970              0.0328517              0.27405800
      0.2831450              1.0812500              0.78542100
SP   1   1.00
      0.0998317              1.0000000              1.00000000
D    1   1.00
      1.1000000              1.0000000
D    1   1.00
      0.2750000              1.0000000
F    1   1.00
      0.4500000              1.0000000
****
S     0
S    6   1.00
  21917.1000000              0.0018690
   3301.4900000              0.0142300
    754.1460000              0.0696960
    212.7110000              0.2384870
     67.9896000              0.4833070
     23.0515000              0.3380740
SP   6   1.00
    423.7350000             -0.0023767              0.0040610
    100.7100000             -0.0316930              0.0306810
     32.1599000             -0.1133170              0.1304520
     11.8079000              0.0560900              0.3272050
      4.6311000              0.5922550              0.4528510
      1.8702500              0.4550060              0.2560420
SP   3   1.00
      2.6158400             -0.2503740             -0.0145110
      0.9221670              0.0669570              0.3102630
      0.3412870              1.0545100              0.7544830
SP   1   1.00
      0.1171670              1.0000000              1.0000000
D    1   1.00
      1.3000000              1.0000000
D    1   1.00
      0.3250000              1.0000000
F    1   1.00
      0.5500000              1.0000000
****
Cl     0
S    6   1.00
  25180.1000000              0.0018330
   3780.3500000              0.0140340
    860.4740000              0.0690970
    242.1450000              0.2374520
     77.3349000              0.4830340
     26.2470000              0.3398560
SP   6   1.00
    491.7650000             -0.0022974              0.0039894
    116.9840000             -0.0307140              0.0303180
     37.4153000             -0.1125280              0.1298800
     13.7834000              0.0450160              0.3279510
      5.4521500              0.5893530              0.4535270
      2.2258800              0.4652060              0.2521540
SP   3   1.00
      3.1864900             -0.2518300             -0.0142990
      1.1442700              0.0615890              0.3235720
      0.4203770              1.0601800              0.7435070
SP   1   1.00
      0.1426570              1.0000000              1.0000000
D    1   1.00
      1.5000000              1.0000000
D    1   1.00
      0.3750000              1.0000000
F    1   1.00
      0.7000000              1.0000000
****
}


set {
reference rhf                          
freeze_core true
e_convergence 10                       
d_convergence 10                      
dft_spherical_points 1202
dft_radial_points 99
}

e = energy('b3lyp')

print_out('Grab this energy {0}'.format(e))
--------------------------------------------------------------------------

  Memory set to  13.039 GiB by Python driver.

Scratch directory: /tmp/

*** tstart() called on n032
*** at Mon Nov  1 07:41:18 2021

   => Loading Basis Set <=

    Name: ANONYMOUS5A440471
    Role: ORBITAL
    Keyword: BASIS
    atoms 1, 3 entry C          line    48 inputblock 6-31g_2dfp_ 
    atoms 2, 4 entry O          line    90 inputblock 6-31g_2dfp_ 
    atoms 5-8  entry H          line    15 inputblock 6-31g_2dfp_ 


         ---------------------------------------------------------
                                   SCF
               by Justin Turney, Rob Parrish, Andy Simmonett
                          and Daniel G. A. Smith
                              RKS Reference
                        1 Threads,  13351 MiB Core
         ---------------------------------------------------------

  ==> Geometry <==

    Molecular point group: c1
    Full point group: C1

    Geometry (in Bohr), charge = 0, multiplicity = 1:

       Center              X                  Y                   Z               Mass       
    ------------   -----------------  -----------------  -----------------  -----------------
         C           -2.579890372355     1.040476412374    -0.000000009073    12.000000000000
         O           -1.140070641955    -1.269486261226     0.000000010827    15.994914619570
         C            1.374847085745    -0.937014865026     0.000000000827    12.000000000000
         O            2.455911789745     1.066566161474     0.000000000827    15.994914619570
         H           -2.147787884055     2.153980821074    -1.680559203973     1.007825032230
         H           -4.543496913955     0.466929445174     0.000000020927     1.007825032230
         H           -2.147787864455     2.153980860874     1.680559165427     1.007825032230
         H            2.303962735745    -2.786300808526    -0.000000069173     1.007825032230

  Running in c1 symmetry.

  Rotational constants: A =      0.66456  B =      0.23068  C =      0.17697 [cm^-1]
  Rotational constants: A =  19922.87583  B =   6915.70175  C =   5305.50779 [MHz]
  Nuclear repulsion =  122.243904924629618

  Charge       = 0
  Multiplicity = 1
  Electrons    = 32
  Nalpha       = 16
  Nbeta        = 16

  ==> Algorithm <==

  SCF Algorithm Type is DF.
  DIIS enabled.
  MOM disabled.
  Fractional occupation disabled.
  Guess Type is SAD.
  Energy threshold   = 1.00e-10
  Density threshold  = 1.00e-10
  Integral threshold = 0.00e+00

  ==> Primary Basis <==

  Basis Set: ANONYMOUS5A440471
    Blend: 6-31G_2DFP_
    Number of shells: 48
    Number of basis function: 136
    Number of Cartesian functions: 156
    Spherical Harmonics?: true
    Max angular momentum: 3

  ==> DFT Potential <==

   => Composite Functional: B3LYP <= 

    B3LYP Hyb-GGA Exchange-Correlation Functional

    P. J. Stephens, F. J. Devlin, C. F. Chabalowski, and M. J. Frisch, J. Phys. Chem. 98, 11623 (1994)

    Deriv               =              1
    GGA                 =           TRUE
    Meta                =          FALSE

    Exchange Hybrid     =           TRUE
    MP2 Hybrid          =          FALSE

   => Exchange Functionals <=

    0.0800   Slater exchange
    0.7200         Becke 88

   => Exact (HF) Exchange <=

    0.2000               HF 

   => Correlation Functionals <=

    0.1900   Vosko, Wilk & Nusair (VWN5_RPA)
    0.8100   Lee, Yang & Parr

   => Molecular Quadrature <=

    Radial Scheme          =       TREUTLER
    Pruning Scheme         =           NONE
    Nuclear Scheme         =       TREUTLER

    BS radius alpha        =              1
    Pruning alpha          =              1
    Radial Points          =             99
    Spherical Points       =           1202
    Total Points           =         894703
    Total Blocks           =           6104
    Max Points             =            256
    Max Functions          =            135
    Weights Tolerance      =       1.00E-15

   => Loading Basis Set <=

    Name: (ANONYMOUS5A440471 AUX)
    Role: JKFIT
    Keyword: DF_BASIS_SCF
    atoms 1, 3 entry C          line   198 file /opt/psi/4/master/share/psi4/basis/def2-universal-jkfit.gbs 
    atoms 2, 4 entry O          line   318 file /opt/psi/4/master/share/psi4/basis/def2-universal-jkfit.gbs 
    atoms 5-8  entry H          line    18 file /opt/psi/4/master/share/psi4/basis/def2-universal-jkfit.gbs 

  ==> Integral Setup <==

  DFHelper Memory: AOs need 0.056 GiB; user supplied 6.955 GiB. Using in-core AOs.

  ==> MemDFJK: Density-Fitted J/K Matrices <==

    J tasked:                   Yes
    K tasked:                   Yes
    wK tasked:                   No
    OpenMP threads:               1
    Memory [MiB]:              7121
    Algorithm:                 Core
    Schwarz Cutoff:           1E-12
    Mask sparsity (%):       1.1462
    Fitting Condition:        1E-10

   => Auxiliary Basis Set <=

  Basis Set: (ANONYMOUS5A440471 AUX)
    Blend: DEF2-UNIVERSAL-JKFIT
    Number of shells: 124
    Number of basis function: 376
    Number of Cartesian functions: 444
    Spherical Harmonics?: true
    Max angular momentum: 4

  Cached 100.0% of DFT collocation blocks in 2.824 [GiB].

  Minimum eigenvalue in the overlap matrix is 2.5436557761E-03.
  Reciprocal condition number of the overlap matrix is 4.8466209017E-04.
    Using symmetric orthogonalization.

  ==> Pre-Iterations <==

  SCF Guess: Superposition of Atomic Densities via on-the-fly atomic UHF (no occupation information).

   -------------------------
    Irrep   Nso     Nmo    
   -------------------------
     A        136     136 
   -------------------------
    Total     136     136
   -------------------------

  ==> Iterations <==

                           Total Energy        Delta E     RMS |[F,P]|

   @DF-RKS iter SAD:  -228.50951071196630   -2.28510e+02   0.00000e+00 
   @DF-RKS iter   1:  -228.88253773892868   -3.73027e-01   4.96411e-03 DIIS
   @DF-RKS iter   2:  -228.63076409626498    2.51774e-01   7.71380e-03 DIIS
   @DF-RKS iter   3:  -229.04742112295202   -4.16657e-01   1.90544e-03 DIIS
   @DF-RKS iter   4:  -229.07426517387933   -2.68441e-02   4.86340e-04 DIIS
   @DF-RKS iter   5:  -229.07567585541202   -1.41068e-03   1.92049e-04 DIIS
   @DF-RKS iter   6:  -229.07593212912980   -2.56274e-04   3.80560e-05 DIIS
   @DF-RKS iter   7:  -229.07594230097445   -1.01718e-05   9.20820e-06 DIIS
   @DF-RKS iter   8:  -229.07594296344433   -6.62470e-07   2.36365e-06 DIIS
   @DF-RKS iter   9:  -229.07594300706688   -4.36225e-08   2.81662e-07 DIIS
   @DF-RKS iter  10:  -229.07594300774818   -6.81297e-10   3.81770e-08 DIIS
   @DF-RKS iter  11:  -229.07594300776134   -1.31593e-11   1.32487e-08 DIIS
   @DF-RKS iter  12:  -229.07594300776316   -1.81899e-12   2.47954e-09 DIIS
   @DF-RKS iter  13:  -229.07594300776375   -5.96856e-13   1.75225e-10 DIIS
   @DF-RKS iter  14:  -229.07594300776344    3.12639e-13   3.11740e-11 DIIS
  Energy and wave function converged.


  ==> Post-Iterations <==

    Orbital Energies [Eh]
    ---------------------

    Doubly Occupied:                                                      

       1A    -19.198530     2A    -19.142555     3A    -10.311362  
       4A    -10.240394     5A     -1.107530     6A     -1.021448  
       7A     -0.738959     8A     -0.598257     9A     -0.531274  
      10A     -0.485031    11A     -0.473067    12A     -0.424667  
      13A     -0.397359    14A     -0.365555    15A     -0.310838  
      16A     -0.283899  

    Virtual:                                                              

      17A      0.003459    18A      0.095966    19A      0.112212  
      20A      0.135457    21A      0.152145    22A      0.158226  
      23A      0.265187    24A      0.282493    25A      0.420466  
      26A      0.443442    27A      0.444664    28A      0.476717  
      29A      0.479085    30A      0.519167    31A      0.527437  
      32A      0.576649    33A      0.588239    34A      0.597552  
      35A      0.614280    36A      0.670451    37A      0.707479  
      38A      0.749502    39A      0.801042    40A      0.809767  
      41A      0.810354    42A      0.838688    43A      0.924384  
      44A      0.924489    45A      0.952526    46A      0.970247  
      47A      1.032334    48A      1.035389    49A      1.086975  
      50A      1.117106    51A      1.158159    52A      1.195453  
      53A      1.267520    54A      1.311717    55A      1.328996  
      56A      1.348647    57A      1.385130    58A      1.410373  
      59A      1.466723    60A      1.576453    61A      1.582853  
      62A      1.635199    63A      1.693030    64A      1.734435  
      65A      1.822894    66A      1.830591    67A      1.865911  
      68A      1.873739    69A      1.929122    70A      1.996717  
      71A      2.055781    72A      2.063922    73A      2.268060  
      74A      2.357990    75A      2.526943    76A      2.642606  
      77A      2.872448    78A      2.910146    79A      2.936641  
      80A      2.939015    81A      3.026045    82A      3.041441  
      83A      3.070292    84A      3.141100    85A      3.170039  
      86A      3.197519    87A      3.221844    88A      3.292556  
      89A      3.340750    90A      3.349797    91A      3.368494  
      92A      3.413710    93A      3.428860    94A      3.519882  
      95A      3.606152    96A      3.627354    97A      3.691156  
      98A      3.780714    99A      3.849143   100A      3.974038  
     101A      4.086602   102A      4.109215   103A      4.119670  
     104A      4.265544   105A      4.308330   106A      4.318992  
     107A      4.414259   108A      4.447925   109A      4.878202  
     110A      4.888141   111A      5.029053   112A      5.094045  
     113A      5.095946   114A      5.180745   115A      5.255232  
     116A      5.258683   117A      5.382372   118A      5.452630  
     119A      5.564928   120A      5.661133   121A      5.812342  
     122A      5.826546   123A      5.928201   124A      5.961652  
     125A      6.077622   126A      6.515105   127A      6.799867  
     128A      6.843509   129A      7.034785   130A      7.041316  
     131A      7.078076   132A      7.249151   133A      7.251328  
     134A      7.514528   135A      7.583636   136A      7.633784  

    Final Occupation by Irrep:
              A 
    DOCC [    16 ]

  @DF-RKS Final Energy:  -229.07594300776344

   => Energetics <=

    Nuclear Repulsion Energy =            122.2439049246296179
    One-Electron Energy =                -554.2203216306292006
    Two-Electron Energy =                 226.7834164896103459
    DFT Exchange-Correlation Energy =     -23.8829427913742300
    Empirical Dispersion Energy =           0.0000000000000000
    VV10 Nonlocal Energy =                  0.0000000000000000
    Total Energy =                       -229.0759430077634420

Computation Completed


Properties will be evaluated at   0.000000,   0.000000,   0.000000 [a0]

Properties computed using the SCF density matrix

  Nuclear Dipole Moment: [e a0]
     X:    -3.2386      Y:     0.9860      Z:    -0.0000

  Electronic Dipole Moment: [e a0]
     X:     2.5892      Y:    -1.2413      Z:     0.0000

  Dipole Moment: [e a0]
     X:    -0.6495      Y:    -0.2553      Z:    -0.0000     Total:     0.6979

  Dipole Moment: [D]
     X:    -1.6508      Y:    -0.6490      Z:    -0.0000     Total:     1.7738


*** tstop() called on n032 at Mon Nov  1 07:42:20 2021
Module time:
	user time   =      61.78 seconds =       1.03 minutes
	system time =       0.64 seconds =       0.01 minutes
	total time  =         62 seconds =       1.03 minutes
Total time:
	user time   =      61.78 seconds =       1.03 minutes
	system time =       0.64 seconds =       0.01 minutes
	total time  =         62 seconds =       1.03 minutes
Grab this energy -229.07594300776344
    Psi4 stopped on: Monday, 01 November 2021 07:42AM
    Psi4 wall time for execution: 0:01:02.46

*** Psi4 exiting successfully. Buy a developer a beer!
