
    -----------------------------------------------------------------------
          Psi4: An Open-Source Ab Initio Electronic Structure Package
                               Psi4 1.4a2.dev629 

                         Git: Rev {master} 2938fc2 dirty


    D. G. A. Smith, L. A. Burns, A. C. Simmonett, R. M. Parrish,
    M. C. Schieber, R. Galvelis, P. Kraus, H. Kruse, R. Di Remigio,
    A. Alenaizan, A. M. James, S. Lehtola, J. P. Misiewicz, M. Scheurer,
    R. A. Shaw, J. B. Schriber, Y. Xie, Z. L. Glick, D. A. Sirianni,
    J. S. O'Brien, J. M. Waldrop, A. Kumar, E. G. Hohenstein,
    B. P. Pritchard, B. R. Brooks, H. F. Schaefer III, A. Yu. Sokolov,
    K. Patkowski, A. E. DePrince III, U. Bozkaya, R. A. King,
    F. A. Evangelista, J. M. Turney, T. D. Crawford, C. D. Sherrill,
    J. Chem. Phys. 152(18) 184108 (2020). https://doi.org/10.1063/5.0006002

                            Additional Code Authors
    E. T. Seidl, C. L. Janssen, E. F. Valeev, M. L. Leininger,
    J. F. Gonthier, R. M. Richard, H. R. McAlexander, M. Saitow, X. Wang,
    P. Verma, and M. H. Lechner

             Previous Authors, Complete List of Code Contributors,
                       and Citations for Specific Modules
    https://github.com/psi4/psi4/blob/master/codemeta.json
    https://github.com/psi4/psi4/graphs/contributors
    http://psicode.org/psi4manual/master/introduction.html#citing-psifour

    -----------------------------------------------------------------------


    Psi4 started on: Monday, 01 November 2021 07:31AM

    Process ID: 176287
    Host:       n071
    PSIDATADIR: /opt/psi/4/master/share/psi4
    Memory:     500.0 MiB
    Threads:    1
    
  ==> Input File <==

--------------------------------------------------------------------------
import os
memory 14 GB 
 
molecule {
 C   -2.5652805946    1.0386072504   -0.0000000100
 O   -1.1368570937   -1.2818015140    0.0000000103
 C    1.3782681907   -0.9394048739   -0.0000000000
 O    2.4395485139    1.0763922207   -0.0000000000
 H   -2.1267431054    2.1498981549   -1.6753938963
 H   -4.5372561252    0.4727826604    0.0000000198
 H   -2.1267430852    2.1498981947    1.6753938563
 H    2.3093781094   -2.7761188933   -0.0000000700
units bohr
}

basis {

assign 6-31g_2dfp_

[ 6-31g_2dfp_ ]

spherical

!----------------------------------------------------------------------
! Basis Set Exchange
! Version v0.8.13
! https://www.basissetexchange.org
!----------------------------------------------------------------------
!   Basis set: 6-31G(2df,p)
! Description: 6-31G(2df,p)
!        Role: orbital
!     Version: 0  (Data from the original Basis Set Exchange)
!----------------------------------------------------------------------


****
H     0
S    3   1.00
     18.7311370              0.03349460
      2.8253937              0.23472695
      0.6401217              0.81375733
S    1   1.00
      0.1612778              1.00000000
P    1   1.00
      1.5000000              1.0000000
P    1   1.00
      0.3750000              1.0000000
****
B     0
S    6   1.00
   2068.8823000              0.0018663
    310.6495700              0.0142515
     70.6830330              0.0695516
     19.8610800              0.2325729
      6.2993048              0.4670787
      2.1270270              0.3634314
SP   3   1.00
      4.7279710             -0.1303938              0.0745976
      1.1903377             -0.1307889              0.3078467
      0.3594117              1.1309444              0.7434568
SP   1   1.00
      0.1267512              1.0000000              1.0000000
D    1   1.00
      0.8020000              1.0000000
D    1   1.00
      0.2005000              1.0000000
F    1   1.00
      0.5000000              1.0000000
****
C     0
S    6   1.00
   3047.5249000              0.0018347
    457.3695100              0.0140373
    103.9486900              0.0688426
     29.2101550              0.2321844
      9.2866630              0.4679413
      3.1639270              0.3623120
SP   3   1.00
      7.8682724             -0.1193324              0.0689991
      1.8812885             -0.1608542              0.3164240
      0.5442493              1.1434564              0.7443083
SP   1   1.00
      0.1687144              1.0000000              1.0000000
D    1   1.00
      1.2520000              1.0000000
D    1   1.00
      0.3130000              1.0000000
F    1   1.00
      0.8000000              1.0000000
****
N     0
S    6   1.00
   4173.5110000              0.0018348
    627.4579000              0.0139950
    142.9021000              0.0685870
     40.2343300              0.2322410
     12.8202100              0.4690700
      4.3904370              0.3604550
SP   3   1.00
     11.6263580             -0.1149610              0.0675800
      2.7162800             -0.1691180              0.3239070
      0.7722180              1.1458520              0.7408950
SP   1   1.00
      0.2120313              1.0000000              1.0000000
D    1   1.00
      1.8260000              1.0000000
D    1   1.00
      0.4565000              1.0000000
F    1   1.00
      1.0000000              1.0000000
****
O     0
S    6   1.00
   5484.6717000              0.0018311
    825.2349500              0.0139501
    188.0469600              0.0684451
     52.9645000              0.2327143
     16.8975700              0.4701930
      5.7996353              0.3585209
SP   3   1.00
     15.5396160             -0.1107775              0.0708743
      3.5999336             -0.1480263              0.3397528
      1.0137618              1.1307670              0.7271586
SP   1   1.00
      0.2700058              1.0000000              1.0000000
D    1   1.00
      2.5840000              1.0000000
D    1   1.00
      0.6460000              1.0000000
F    1   1.00
      1.4000000              1.0000000
****
F     0
S    6   1.00
   7001.7130900              0.0018196169
   1051.3660900              0.0139160796
    239.2856900              0.0684053245
     67.3974453              0.233185760
     21.5199573              0.471267439
      7.40310130             0.356618546
SP   3   1.00
     20.8479528             -0.108506975            0.0716287243
      4.80830834            -0.146451658            0.3459121030
      1.34406986             1.128688580            0.7224699570
SP   1   1.00
      0.358151393            1.0000000              1.0000000
D    1   1.00
      3.5000000              1.0000000
D    1   1.00
      0.8750000              1.0000000
F    1   1.00
      1.8500000              1.0000000
****
Al     0
S    6   1.00
  13983.1000000              0.00194267
   2098.7500000              0.0148599
    477.7050000              0.0728494
    134.3600000              0.2468300
     42.8709000              0.4872580
     14.5189000              0.3234960
SP   6   1.00
    239.6680000             -0.00292619             0.00460285
     57.4419000             -0.0374080              0.0331990
     18.2859000             -0.1144870              0.1362820
      6.5991400              0.1156350              0.3304760
      2.4904900              0.6125950              0.4491460
      0.9445400              0.3937990              0.2657040
SP   3   1.00
      1.2779000             -0.2276060             -0.0175130
      0.3975900              0.00144583             0.2445330
      0.1600950              1.0927900              0.8049340
SP   1   1.00
      0.0556577              1.0000000              1.0000000
D    1   1.00
      0.6500000              1.0000000
D    1   1.00
      0.1625000              1.0000000
F    1   1.00
      0.2500000              1.0000000
****
Si     0
S    6   1.00
  16115.9000000              0.00195948
   2425.5800000              0.01492880
    553.8670000              0.07284780
    156.3400000              0.24613000
     50.0683000              0.48591400
     17.0178000              0.32500200
SP   6   1.00
    292.7180000             -0.00278094             0.00443826
     69.8731000             -0.03571460             0.03266790
     22.3363000             -0.11498500             0.13472100
      8.1503900              0.09356340             0.32867800
      3.1345800              0.60301700             0.44964000
      1.2254300              0.41895900             0.26137200
SP   3   1.00
      1.7273800             -0.24463000            -0.01779510
      0.5729220              0.00431572             0.25353900
      0.2221920              1.09818000             0.80066900
SP   1   1.00
      0.0778369              1.00000000             1.00000000
D    1   1.00
      0.9000000              1.0000000
D    1   1.00
      0.2250000              1.0000000
F    1   1.00
      0.3200000              1.0000000
****
P     0
S    6   1.00
  19413.3000000              0.0018516
   2909.4200000              0.0142062
    661.3640000              0.0699995
    185.7590000              0.2400790
     59.1943000              0.4847620
     20.0310000              0.3352000
SP   6   1.00
    339.4780000             -0.00278217             0.00456462
     81.0101000             -0.0360499              0.03369360
     25.8780000             -0.1166310              0.13975500
      9.4522100              0.0968328              0.33936200
      3.6656600              0.6144180              0.45092100
      1.4674600              0.4037980              0.23858600
SP   3   1.00
      2.1562300             -0.2529230             -0.01776530
      0.7489970              0.0328517              0.27405800
      0.2831450              1.0812500              0.78542100
SP   1   1.00
      0.0998317              1.0000000              1.00000000
D    1   1.00
      1.1000000              1.0000000
D    1   1.00
      0.2750000              1.0000000
F    1   1.00
      0.4500000              1.0000000
****
S     0
S    6   1.00
  21917.1000000              0.0018690
   3301.4900000              0.0142300
    754.1460000              0.0696960
    212.7110000              0.2384870
     67.9896000              0.4833070
     23.0515000              0.3380740
SP   6   1.00
    423.7350000             -0.0023767              0.0040610
    100.7100000             -0.0316930              0.0306810
     32.1599000             -0.1133170              0.1304520
     11.8079000              0.0560900              0.3272050
      4.6311000              0.5922550              0.4528510
      1.8702500              0.4550060              0.2560420
SP   3   1.00
      2.6158400             -0.2503740             -0.0145110
      0.9221670              0.0669570              0.3102630
      0.3412870              1.0545100              0.7544830
SP   1   1.00
      0.1171670              1.0000000              1.0000000
D    1   1.00
      1.3000000              1.0000000
D    1   1.00
      0.3250000              1.0000000
F    1   1.00
      0.5500000              1.0000000
****
Cl     0
S    6   1.00
  25180.1000000              0.0018330
   3780.3500000              0.0140340
    860.4740000              0.0690970
    242.1450000              0.2374520
     77.3349000              0.4830340
     26.2470000              0.3398560
SP   6   1.00
    491.7650000             -0.0022974              0.0039894
    116.9840000             -0.0307140              0.0303180
     37.4153000             -0.1125280              0.1298800
     13.7834000              0.0450160              0.3279510
      5.4521500              0.5893530              0.4535270
      2.2258800              0.4652060              0.2521540
SP   3   1.00
      3.1864900             -0.2518300             -0.0142990
      1.1442700              0.0615890              0.3235720
      0.4203770              1.0601800              0.7435070
SP   1   1.00
      0.1426570              1.0000000              1.0000000
D    1   1.00
      1.5000000              1.0000000
D    1   1.00
      0.3750000              1.0000000
F    1   1.00
      0.7000000              1.0000000
****
}


set {
reference rhf                          
freeze_core true
e_convergence 10                       
d_convergence 10                      
dft_spherical_points 1202
dft_radial_points 99
}

e = energy('b3lyp')

print_out('Grab this energy {0}'.format(e))
--------------------------------------------------------------------------

  Memory set to  13.039 GiB by Python driver.

Scratch directory: /tmp/

*** tstart() called on n071
*** at Mon Nov  1 07:31:37 2021

   => Loading Basis Set <=

    Name: ANONYMOUS0B5D0D4D
    Role: ORBITAL
    Keyword: BASIS
    atoms 1, 3 entry C          line    48 inputblock 6-31g_2dfp_ 
    atoms 2, 4 entry O          line    90 inputblock 6-31g_2dfp_ 
    atoms 5-8  entry H          line    15 inputblock 6-31g_2dfp_ 


         ---------------------------------------------------------
                                   SCF
               by Justin Turney, Rob Parrish, Andy Simmonett
                          and Daniel G. A. Smith
                              RKS Reference
                        1 Threads,  13351 MiB Core
         ---------------------------------------------------------

  ==> Geometry <==

    Molecular point group: c1
    Full point group: C1

    Geometry (in Bohr), charge = 0, multiplicity = 1:

       Center              X                  Y                   Z               Mass       
    ------------   -----------------  -----------------  -----------------  -----------------
         C           -2.566283709759     1.039989981945    -0.000000009231    12.000000000000
         O           -1.137860208859    -1.280418782455     0.000000011069    15.994914619570
         C            1.377265075541    -0.938022142355     0.000000000769    12.000000000000
         O            2.438545398741     1.077774952245     0.000000000769    15.994914619570
         H           -2.127746220559     2.151280886445    -1.675393895531     1.007825032230
         H           -4.538259240359     0.474165391945     0.000000020569     1.007825032230
         H           -2.127746200359     2.151280926245     1.675393857069     1.007825032230
         H            2.308374994241    -2.774736161755    -0.000000069231     1.007825032230

  Running in c1 symmetry.

  Rotational constants: A =      0.65927  B =      0.23286  C =      0.17783 [cm^-1]
  Rotational constants: A =  19764.39967  B =   6980.90369  C =   5331.22922 [MHz]
  Nuclear repulsion =  122.350341453759896

  Charge       = 0
  Multiplicity = 1
  Electrons    = 32
  Nalpha       = 16
  Nbeta        = 16

  ==> Algorithm <==

  SCF Algorithm Type is DF.
  DIIS enabled.
  MOM disabled.
  Fractional occupation disabled.
  Guess Type is SAD.
  Energy threshold   = 1.00e-10
  Density threshold  = 1.00e-10
  Integral threshold = 0.00e+00

  ==> Primary Basis <==

  Basis Set: ANONYMOUS0B5D0D4D
    Blend: 6-31G_2DFP_
    Number of shells: 48
    Number of basis function: 136
    Number of Cartesian functions: 156
    Spherical Harmonics?: true
    Max angular momentum: 3

  ==> DFT Potential <==

   => Composite Functional: B3LYP <= 

    B3LYP Hyb-GGA Exchange-Correlation Functional

    P. J. Stephens, F. J. Devlin, C. F. Chabalowski, and M. J. Frisch, J. Phys. Chem. 98, 11623 (1994)

    Deriv               =              1
    GGA                 =           TRUE
    Meta                =          FALSE

    Exchange Hybrid     =           TRUE
    MP2 Hybrid          =          FALSE

   => Exchange Functionals <=

    0.0800   Slater exchange
    0.7200         Becke 88

   => Exact (HF) Exchange <=

    0.2000               HF 

   => Correlation Functionals <=

    0.1900   Vosko, Wilk & Nusair (VWN5_RPA)
    0.8100   Lee, Yang & Parr

   => Molecular Quadrature <=

    Radial Scheme          =       TREUTLER
    Pruning Scheme         =           NONE
    Nuclear Scheme         =       TREUTLER

    BS radius alpha        =              1
    Pruning alpha          =              1
    Radial Points          =             99
    Spherical Points       =           1202
    Total Points           =         894621
    Total Blocks           =           6114
    Max Points             =            256
    Max Functions          =            136
    Weights Tolerance      =       1.00E-15

   => Loading Basis Set <=

    Name: (ANONYMOUS0B5D0D4D AUX)
    Role: JKFIT
    Keyword: DF_BASIS_SCF
    atoms 1, 3 entry C          line   198 file /opt/psi/4/master/share/psi4/basis/def2-universal-jkfit.gbs 
    atoms 2, 4 entry O          line   318 file /opt/psi/4/master/share/psi4/basis/def2-universal-jkfit.gbs 
    atoms 5-8  entry H          line    18 file /opt/psi/4/master/share/psi4/basis/def2-universal-jkfit.gbs 

  ==> Integral Setup <==

  DFHelper Memory: AOs need 0.056 GiB; user supplied 6.949 GiB. Using in-core AOs.

  ==> MemDFJK: Density-Fitted J/K Matrices <==

    J tasked:                   Yes
    K tasked:                   Yes
    wK tasked:                   No
    OpenMP threads:               1
    Memory [MiB]:              7116
    Algorithm:                 Core
    Schwarz Cutoff:           1E-12
    Mask sparsity (%):       1.1246
    Fitting Condition:        1E-10

   => Auxiliary Basis Set <=

  Basis Set: (ANONYMOUS0B5D0D4D AUX)
    Blend: DEF2-UNIVERSAL-JKFIT
    Number of shells: 124
    Number of basis function: 376
    Number of Cartesian functions: 444
    Spherical Harmonics?: true
    Max angular momentum: 4

  Cached 100.0% of DFT collocation blocks in 2.830 [GiB].

  Minimum eigenvalue in the overlap matrix is 2.5441981128E-03.
  Reciprocal condition number of the overlap matrix is 4.8405471654E-04.
    Using symmetric orthogonalization.

  ==> Pre-Iterations <==

  SCF Guess: Superposition of Atomic Densities via on-the-fly atomic UHF (no occupation information).

   -------------------------
    Irrep   Nso     Nmo    
   -------------------------
     A        136     136 
   -------------------------
    Total     136     136
   -------------------------

  ==> Iterations <==

                           Total Energy        Delta E     RMS |[F,P]|

   @DF-RKS iter SAD:  -228.50915363193269   -2.28509e+02   0.00000e+00 
   @DF-RKS iter   1:  -228.88296714949115   -3.73814e-01   4.95627e-03 DIIS
   @DF-RKS iter   2:  -228.63226903248207    2.50698e-01   7.69935e-03 DIIS
   @DF-RKS iter   3:  -229.04723693865031   -4.14968e-01   1.90835e-03 DIIS
   @DF-RKS iter   4:  -229.07415876452936   -2.69218e-02   4.86577e-04 DIIS
   @DF-RKS iter   5:  -229.07557113765830   -1.41237e-03   1.92293e-04 DIIS
   @DF-RKS iter   6:  -229.07582790611937   -2.56768e-04   3.82610e-05 DIIS
   @DF-RKS iter   7:  -229.07583818343409   -1.02773e-05   9.27659e-06 DIIS
   @DF-RKS iter   8:  -229.07583885636657   -6.72932e-07   2.35528e-06 DIIS
   @DF-RKS iter   9:  -229.07583889962825   -4.32617e-08   2.82574e-07 DIIS
   @DF-RKS iter  10:  -229.07583890031208   -6.83826e-10   3.81350e-08 DIIS
   @DF-RKS iter  11:  -229.07583890032581   -1.37277e-11   1.32937e-08 DIIS
   @DF-RKS iter  12:  -229.07583890032731   -1.50635e-12   2.49637e-09 DIIS
   @DF-RKS iter  13:  -229.07583890032700    3.12639e-13   1.76636e-10 DIIS
   @DF-RKS iter  14:  -229.07583890032748   -4.83169e-13   3.11363e-11 DIIS
  Energy and wave function converged.


  ==> Post-Iterations <==

    Orbital Energies [Eh]
    ---------------------

    Doubly Occupied:                                                      

       1A    -19.198395     2A    -19.142636     3A    -10.311059  
       4A    -10.239850     5A     -1.107391     6A     -1.020748  
       7A     -0.738302     8A     -0.599020     9A     -0.531559  
      10A     -0.484794    11A     -0.472925    12A     -0.424006  
      13A     -0.396930    14A     -0.366084    15A     -0.310811  
      16A     -0.284110  

    Virtual:                                                              

      17A      0.002955    18A      0.096670    19A      0.112878  
      20A      0.135052    21A      0.152205    22A      0.159040  
      23A      0.265469    24A      0.281349    25A      0.421255  
      26A      0.444576    27A      0.444955    28A      0.477471  
      29A      0.479548    30A      0.519388    31A      0.527104  
      32A      0.576889    33A      0.589357    34A      0.597047  
      35A      0.615164    36A      0.671790    37A      0.709116  
      38A      0.749395    39A      0.801080    40A      0.807913  
      41A      0.809491    42A      0.838818    43A      0.924521  
      44A      0.924821    45A      0.953311    46A      0.972976  
      47A      1.034499    48A      1.034908    49A      1.086876  
      50A      1.117880    51A      1.159128    52A      1.194572  
      53A      1.266510    54A      1.311279    55A      1.329702  
      56A      1.349838    57A      1.389253    58A      1.410214  
      59A      1.472121    60A      1.576157    61A      1.584541  
      62A      1.635509    63A      1.694147    64A      1.737598  
      65A      1.824129    66A      1.831543    67A      1.867982  
      68A      1.873179    69A      1.934378    70A      1.996825  
      71A      2.055186    72A      2.064121    73A      2.267307  
      74A      2.358395    75A      2.527584    76A      2.641351  
      77A      2.872444    78A      2.911402    79A      2.939242  
      80A      2.940598    81A      3.027051    82A      3.040208  
      83A      3.069296    84A      3.139856    85A      3.169624  
      86A      3.197436    87A      3.224955    88A      3.293867  
      89A      3.342078    90A      3.349856    91A      3.366062  
      92A      3.414076    93A      3.427521    94A      3.521263  
      95A      3.604748    96A      3.626347    97A      3.689318  
      98A      3.781816    99A      3.850751   100A      3.973019  
     101A      4.092521   102A      4.110871   103A      4.122028  
     104A      4.266153   105A      4.308030   106A      4.321409  
     107A      4.422941   108A      4.450027   109A      4.879936  
     110A      4.896641   111A      5.030736   112A      5.094800  
     113A      5.099175   114A      5.177454   115A      5.257506  
     116A      5.260883   117A      5.384399   118A      5.452808  
     119A      5.563948   120A      5.659768   121A      5.813549  
     122A      5.822945   123A      5.928984   124A      5.960257  
     125A      6.072426   126A      6.517009   127A      6.800704  
     128A      6.845276   129A      7.035231   130A      7.043742  
     131A      7.079871   132A      7.247635   133A      7.248733  
     134A      7.510521   135A      7.584246   136A      7.633151  

    Final Occupation by Irrep:
              A 
    DOCC [    16 ]

  @DF-RKS Final Energy:  -229.07583890032748

   => Energetics <=

    Nuclear Repulsion Energy =            122.3503414537598957
    One-Electron Energy =                -554.4364970772318202
    Two-Electron Energy =                 226.8942684916833059
    DFT Exchange-Correlation Energy =     -23.8839517685388607
    Empirical Dispersion Energy =           0.0000000000000000
    VV10 Nonlocal Energy =                  0.0000000000000000
    Total Energy =                       -229.0758389003274829

Computation Completed


Properties will be evaluated at   0.000000,   0.000000,   0.000000 [a0]

Properties computed using the SCF density matrix

  Nuclear Dipole Moment: [e a0]
     X:    -3.2140      Y:     0.9926      Z:    -0.0000

  Electronic Dipole Moment: [e a0]
     X:     2.5806      Y:    -1.2525      Z:     0.0000

  Dipole Moment: [e a0]
     X:    -0.6334      Y:    -0.2598      Z:    -0.0000     Total:     0.6847

  Dipole Moment: [D]
     X:    -1.6101      Y:    -0.6604      Z:    -0.0000     Total:     1.7402


*** tstop() called on n071 at Mon Nov  1 07:32:30 2021
Module time:
	user time   =      52.58 seconds =       0.88 minutes
	system time =       0.86 seconds =       0.01 minutes
	total time  =         53 seconds =       0.88 minutes
Total time:
	user time   =      52.58 seconds =       0.88 minutes
	system time =       0.86 seconds =       0.01 minutes
	total time  =         53 seconds =       0.88 minutes
Grab this energy -229.07583890032748
    Psi4 stopped on: Monday, 01 November 2021 07:32AM
    Psi4 wall time for execution: 0:00:53.53

*** Psi4 exiting successfully. Buy a developer a beer!
