
    -----------------------------------------------------------------------
          Psi4: An Open-Source Ab Initio Electronic Structure Package
                               Psi4 1.4a2.dev629 

                         Git: Rev {master} 2938fc2 dirty


    D. G. A. Smith, L. A. Burns, A. C. Simmonett, R. M. Parrish,
    M. C. Schieber, R. Galvelis, P. Kraus, H. Kruse, R. Di Remigio,
    A. Alenaizan, A. M. James, S. Lehtola, J. P. Misiewicz, M. Scheurer,
    R. A. Shaw, J. B. Schriber, Y. Xie, Z. L. Glick, D. A. Sirianni,
    J. S. O'Brien, J. M. Waldrop, A. Kumar, E. G. Hohenstein,
    B. P. Pritchard, B. R. Brooks, H. F. Schaefer III, A. Yu. Sokolov,
    K. Patkowski, A. E. DePrince III, U. Bozkaya, R. A. King,
    F. A. Evangelista, J. M. Turney, T. D. Crawford, C. D. Sherrill,
    J. Chem. Phys. 152(18) 184108 (2020). https://doi.org/10.1063/5.0006002

                            Additional Code Authors
    E. T. Seidl, C. L. Janssen, E. F. Valeev, M. L. Leininger,
    J. F. Gonthier, R. M. Richard, H. R. McAlexander, M. Saitow, X. Wang,
    P. Verma, and M. H. Lechner

             Previous Authors, Complete List of Code Contributors,
                       and Citations for Specific Modules
    https://github.com/psi4/psi4/blob/master/codemeta.json
    https://github.com/psi4/psi4/graphs/contributors
    http://psicode.org/psi4manual/master/introduction.html#citing-psifour

    -----------------------------------------------------------------------


    Psi4 started on: Monday, 01 November 2021 07:46AM

    Process ID: 32584
    Host:       n082
    PSIDATADIR: /opt/psi/4/master/share/psi4
    Memory:     500.0 MiB
    Threads:    1
    
  ==> Input File <==

--------------------------------------------------------------------------
import os
memory 14 GB 
 
molecule {
 C   -2.5686283311    1.0393145744   -0.0000000099
 O   -1.1430755330   -1.2819095994    0.0000000101
 C    1.3765130761   -0.9381582652   -0.0000000000
 O    2.4434386874    1.0733484167   -0.0000000000
 H   -2.1267640953    2.1466699485   -1.6771982140
 H   -4.5466602764    0.4822955112    0.0000000201
 H   -2.1267640754    2.1466699889    1.6771981741
 H    2.3262553577   -2.7779773751   -0.0000000702
units bohr
}

basis {

assign 6-31g_2dfp_

[ 6-31g_2dfp_ ]

spherical

!----------------------------------------------------------------------
! Basis Set Exchange
! Version v0.8.13
! https://www.basissetexchange.org
!----------------------------------------------------------------------
!   Basis set: 6-31G(2df,p)
! Description: 6-31G(2df,p)
!        Role: orbital
!     Version: 0  (Data from the original Basis Set Exchange)
!----------------------------------------------------------------------


****
H     0
S    3   1.00
     18.7311370              0.03349460
      2.8253937              0.23472695
      0.6401217              0.81375733
S    1   1.00
      0.1612778              1.00000000
P    1   1.00
      1.5000000              1.0000000
P    1   1.00
      0.3750000              1.0000000
****
B     0
S    6   1.00
   2068.8823000              0.0018663
    310.6495700              0.0142515
     70.6830330              0.0695516
     19.8610800              0.2325729
      6.2993048              0.4670787
      2.1270270              0.3634314
SP   3   1.00
      4.7279710             -0.1303938              0.0745976
      1.1903377             -0.1307889              0.3078467
      0.3594117              1.1309444              0.7434568
SP   1   1.00
      0.1267512              1.0000000              1.0000000
D    1   1.00
      0.8020000              1.0000000
D    1   1.00
      0.2005000              1.0000000
F    1   1.00
      0.5000000              1.0000000
****
C     0
S    6   1.00
   3047.5249000              0.0018347
    457.3695100              0.0140373
    103.9486900              0.0688426
     29.2101550              0.2321844
      9.2866630              0.4679413
      3.1639270              0.3623120
SP   3   1.00
      7.8682724             -0.1193324              0.0689991
      1.8812885             -0.1608542              0.3164240
      0.5442493              1.1434564              0.7443083
SP   1   1.00
      0.1687144              1.0000000              1.0000000
D    1   1.00
      1.2520000              1.0000000
D    1   1.00
      0.3130000              1.0000000
F    1   1.00
      0.8000000              1.0000000
****
N     0
S    6   1.00
   4173.5110000              0.0018348
    627.4579000              0.0139950
    142.9021000              0.0685870
     40.2343300              0.2322410
     12.8202100              0.4690700
      4.3904370              0.3604550
SP   3   1.00
     11.6263580             -0.1149610              0.0675800
      2.7162800             -0.1691180              0.3239070
      0.7722180              1.1458520              0.7408950
SP   1   1.00
      0.2120313              1.0000000              1.0000000
D    1   1.00
      1.8260000              1.0000000
D    1   1.00
      0.4565000              1.0000000
F    1   1.00
      1.0000000              1.0000000
****
O     0
S    6   1.00
   5484.6717000              0.0018311
    825.2349500              0.0139501
    188.0469600              0.0684451
     52.9645000              0.2327143
     16.8975700              0.4701930
      5.7996353              0.3585209
SP   3   1.00
     15.5396160             -0.1107775              0.0708743
      3.5999336             -0.1480263              0.3397528
      1.0137618              1.1307670              0.7271586
SP   1   1.00
      0.2700058              1.0000000              1.0000000
D    1   1.00
      2.5840000              1.0000000
D    1   1.00
      0.6460000              1.0000000
F    1   1.00
      1.4000000              1.0000000
****
F     0
S    6   1.00
   7001.7130900              0.0018196169
   1051.3660900              0.0139160796
    239.2856900              0.0684053245
     67.3974453              0.233185760
     21.5199573              0.471267439
      7.40310130             0.356618546
SP   3   1.00
     20.8479528             -0.108506975            0.0716287243
      4.80830834            -0.146451658            0.3459121030
      1.34406986             1.128688580            0.7224699570
SP   1   1.00
      0.358151393            1.0000000              1.0000000
D    1   1.00
      3.5000000              1.0000000
D    1   1.00
      0.8750000              1.0000000
F    1   1.00
      1.8500000              1.0000000
****
Al     0
S    6   1.00
  13983.1000000              0.00194267
   2098.7500000              0.0148599
    477.7050000              0.0728494
    134.3600000              0.2468300
     42.8709000              0.4872580
     14.5189000              0.3234960
SP   6   1.00
    239.6680000             -0.00292619             0.00460285
     57.4419000             -0.0374080              0.0331990
     18.2859000             -0.1144870              0.1362820
      6.5991400              0.1156350              0.3304760
      2.4904900              0.6125950              0.4491460
      0.9445400              0.3937990              0.2657040
SP   3   1.00
      1.2779000             -0.2276060             -0.0175130
      0.3975900              0.00144583             0.2445330
      0.1600950              1.0927900              0.8049340
SP   1   1.00
      0.0556577              1.0000000              1.0000000
D    1   1.00
      0.6500000              1.0000000
D    1   1.00
      0.1625000              1.0000000
F    1   1.00
      0.2500000              1.0000000
****
Si     0
S    6   1.00
  16115.9000000              0.00195948
   2425.5800000              0.01492880
    553.8670000              0.07284780
    156.3400000              0.24613000
     50.0683000              0.48591400
     17.0178000              0.32500200
SP   6   1.00
    292.7180000             -0.00278094             0.00443826
     69.8731000             -0.03571460             0.03266790
     22.3363000             -0.11498500             0.13472100
      8.1503900              0.09356340             0.32867800
      3.1345800              0.60301700             0.44964000
      1.2254300              0.41895900             0.26137200
SP   3   1.00
      1.7273800             -0.24463000            -0.01779510
      0.5729220              0.00431572             0.25353900
      0.2221920              1.09818000             0.80066900
SP   1   1.00
      0.0778369              1.00000000             1.00000000
D    1   1.00
      0.9000000              1.0000000
D    1   1.00
      0.2250000              1.0000000
F    1   1.00
      0.3200000              1.0000000
****
P     0
S    6   1.00
  19413.3000000              0.0018516
   2909.4200000              0.0142062
    661.3640000              0.0699995
    185.7590000              0.2400790
     59.1943000              0.4847620
     20.0310000              0.3352000
SP   6   1.00
    339.4780000             -0.00278217             0.00456462
     81.0101000             -0.0360499              0.03369360
     25.8780000             -0.1166310              0.13975500
      9.4522100              0.0968328              0.33936200
      3.6656600              0.6144180              0.45092100
      1.4674600              0.4037980              0.23858600
SP   3   1.00
      2.1562300             -0.2529230             -0.01776530
      0.7489970              0.0328517              0.27405800
      0.2831450              1.0812500              0.78542100
SP   1   1.00
      0.0998317              1.0000000              1.00000000
D    1   1.00
      1.1000000              1.0000000
D    1   1.00
      0.2750000              1.0000000
F    1   1.00
      0.4500000              1.0000000
****
S     0
S    6   1.00
  21917.1000000              0.0018690
   3301.4900000              0.0142300
    754.1460000              0.0696960
    212.7110000              0.2384870
     67.9896000              0.4833070
     23.0515000              0.3380740
SP   6   1.00
    423.7350000             -0.0023767              0.0040610
    100.7100000             -0.0316930              0.0306810
     32.1599000             -0.1133170              0.1304520
     11.8079000              0.0560900              0.3272050
      4.6311000              0.5922550              0.4528510
      1.8702500              0.4550060              0.2560420
SP   3   1.00
      2.6158400             -0.2503740             -0.0145110
      0.9221670              0.0669570              0.3102630
      0.3412870              1.0545100              0.7544830
SP   1   1.00
      0.1171670              1.0000000              1.0000000
D    1   1.00
      1.3000000              1.0000000
D    1   1.00
      0.3250000              1.0000000
F    1   1.00
      0.5500000              1.0000000
****
Cl     0
S    6   1.00
  25180.1000000              0.0018330
   3780.3500000              0.0140340
    860.4740000              0.0690970
    242.1450000              0.2374520
     77.3349000              0.4830340
     26.2470000              0.3398560
SP   6   1.00
    491.7650000             -0.0022974              0.0039894
    116.9840000             -0.0307140              0.0303180
     37.4153000             -0.1125280              0.1298800
     13.7834000              0.0450160              0.3279510
      5.4521500              0.5893530              0.4535270
      2.2258800              0.4652060              0.2521540
SP   3   1.00
      3.1864900             -0.2518300             -0.0142990
      1.1442700              0.0615890              0.3235720
      0.4203770              1.0601800              0.7435070
SP   1   1.00
      0.1426570              1.0000000              1.0000000
D    1   1.00
      1.5000000              1.0000000
D    1   1.00
      0.3750000              1.0000000
F    1   1.00
      0.7000000              1.0000000
****
}


set {
reference rhf                          
freeze_core true
e_convergence 10                       
d_convergence 10                      
dft_spherical_points 1202
dft_radial_points 99
}

e = energy('b3lyp')

print_out('Grab this energy {0}'.format(e))
--------------------------------------------------------------------------

  Memory set to  13.039 GiB by Python driver.

Scratch directory: /tmp/

*** tstart() called on n082
*** at Mon Nov  1 07:46:17 2021

   => Loading Basis Set <=

    Name: ANONYMOUS3D983441
    Role: ORBITAL
    Keyword: BASIS
    atoms 1, 3 entry C          line    48 inputblock 6-31g_2dfp_ 
    atoms 2, 4 entry O          line    90 inputblock 6-31g_2dfp_ 
    atoms 5-8  entry H          line    15 inputblock 6-31g_2dfp_ 


         ---------------------------------------------------------
                                   SCF
               by Justin Turney, Rob Parrish, Andy Simmonett
                          and Daniel G. A. Smith
                              RKS Reference
                        1 Threads,  13351 MiB Core
         ---------------------------------------------------------

  ==> Geometry <==

    Molecular point group: c1
    Full point group: C1

    Geometry (in Bohr), charge = 0, multiplicity = 1:

       Center              X                  Y                   Z               Mass       
    ------------   -----------------  -----------------  -----------------  -----------------
         C           -2.568115557419     1.041126482784    -0.000000009101    12.000000000000
         O           -1.142562759319    -1.280097691016     0.000000010899    15.994914619570
         C            1.377025849781    -0.936346356816     0.000000000799    12.000000000000
         O            2.443951461081     1.075160325084     0.000000000799    15.994914619570
         H           -2.126251321619     2.148481856884    -1.677198213201     1.007825032230
         H           -4.546147502719     0.484107419584     0.000000020899     1.007825032230
         H           -2.126251301719     2.148481897284     1.677198174899     1.007825032230
         H            2.326768131381    -2.776165466716    -0.000000069401     1.007825032230

  Running in c1 symmetry.

  Rotational constants: A =      0.66004  B =      0.23209  C =      0.17745 [cm^-1]
  Rotational constants: A =  19787.58375  B =   6957.85997  C =   5319.83849 [MHz]
  Nuclear repulsion =  122.250811194711829

  Charge       = 0
  Multiplicity = 1
  Electrons    = 32
  Nalpha       = 16
  Nbeta        = 16

  ==> Algorithm <==

  SCF Algorithm Type is DF.
  DIIS enabled.
  MOM disabled.
  Fractional occupation disabled.
  Guess Type is SAD.
  Energy threshold   = 1.00e-10
  Density threshold  = 1.00e-10
  Integral threshold = 0.00e+00

  ==> Primary Basis <==

  Basis Set: ANONYMOUS3D983441
    Blend: 6-31G_2DFP_
    Number of shells: 48
    Number of basis function: 136
    Number of Cartesian functions: 156
    Spherical Harmonics?: true
    Max angular momentum: 3

  ==> DFT Potential <==

   => Composite Functional: B3LYP <= 

    B3LYP Hyb-GGA Exchange-Correlation Functional

    P. J. Stephens, F. J. Devlin, C. F. Chabalowski, and M. J. Frisch, J. Phys. Chem. 98, 11623 (1994)

    Deriv               =              1
    GGA                 =           TRUE
    Meta                =          FALSE

    Exchange Hybrid     =           TRUE
    MP2 Hybrid          =          FALSE

   => Exchange Functionals <=

    0.0800   Slater exchange
    0.7200         Becke 88

   => Exact (HF) Exchange <=

    0.2000               HF 

   => Correlation Functionals <=

    0.1900   Vosko, Wilk & Nusair (VWN5_RPA)
    0.8100   Lee, Yang & Parr

   => Molecular Quadrature <=

    Radial Scheme          =       TREUTLER
    Pruning Scheme         =           NONE
    Nuclear Scheme         =       TREUTLER

    BS radius alpha        =              1
    Pruning alpha          =              1
    Radial Points          =             99
    Spherical Points       =           1202
    Total Points           =         894649
    Total Blocks           =           6117
    Max Points             =            256
    Max Functions          =            136
    Weights Tolerance      =       1.00E-15

   => Loading Basis Set <=

    Name: (ANONYMOUS3D983441 AUX)
    Role: JKFIT
    Keyword: DF_BASIS_SCF
    atoms 1, 3 entry C          line   198 file /opt/psi/4/master/share/psi4/basis/def2-universal-jkfit.gbs 
    atoms 2, 4 entry O          line   318 file /opt/psi/4/master/share/psi4/basis/def2-universal-jkfit.gbs 
    atoms 5-8  entry H          line    18 file /opt/psi/4/master/share/psi4/basis/def2-universal-jkfit.gbs 

  ==> Integral Setup <==

  DFHelper Memory: AOs need 0.056 GiB; user supplied 6.951 GiB. Using in-core AOs.

  ==> MemDFJK: Density-Fitted J/K Matrices <==

    J tasked:                   Yes
    K tasked:                   Yes
    wK tasked:                   No
    OpenMP threads:               1
    Memory [MiB]:              7117
    Algorithm:                 Core
    Schwarz Cutoff:           1E-12
    Mask sparsity (%):       1.1246
    Fitting Condition:        1E-10

   => Auxiliary Basis Set <=

  Basis Set: (ANONYMOUS3D983441 AUX)
    Blend: DEF2-UNIVERSAL-JKFIT
    Number of shells: 124
    Number of basis function: 376
    Number of Cartesian functions: 444
    Spherical Harmonics?: true
    Max angular momentum: 4

  Cached 100.0% of DFT collocation blocks in 2.828 [GiB].

  Minimum eigenvalue in the overlap matrix is 2.5517132997E-03.
  Reciprocal condition number of the overlap matrix is 4.8574823301E-04.
    Using symmetric orthogonalization.

  ==> Pre-Iterations <==

  SCF Guess: Superposition of Atomic Densities via on-the-fly atomic UHF (no occupation information).

   -------------------------
    Irrep   Nso     Nmo    
   -------------------------
     A        136     136 
   -------------------------
    Total     136     136
   -------------------------

  ==> Iterations <==

                           Total Energy        Delta E     RMS |[F,P]|

   @DF-RKS iter SAD:  -228.50463354786044   -2.28505e+02   0.00000e+00 
   @DF-RKS iter   1:  -228.88269085129966   -3.78057e-01   4.96110e-03 DIIS
   @DF-RKS iter   2:  -228.63055923218269    2.52132e-01   7.71475e-03 DIIS
   @DF-RKS iter   3:  -229.04739309730775   -4.16834e-01   1.90349e-03 DIIS
   @DF-RKS iter   4:  -229.07417900767072   -2.67859e-02   4.87501e-04 DIIS
   @DF-RKS iter   5:  -229.07559649532155   -1.41749e-03   1.93115e-04 DIIS
   @DF-RKS iter   6:  -229.07585579300425   -2.59298e-04   3.82897e-05 DIIS
   @DF-RKS iter   7:  -229.07586609559496   -1.03026e-05   9.27496e-06 DIIS
   @DF-RKS iter   8:  -229.07586676809765   -6.72503e-07   2.36615e-06 DIIS
   @DF-RKS iter   9:  -229.07586681179680   -4.36991e-08   2.83469e-07 DIIS
   @DF-RKS iter  10:  -229.07586681248546   -6.88658e-10   3.82263e-08 DIIS
   @DF-RKS iter  11:  -229.07586681249916   -1.36993e-11   1.33206e-08 DIIS
   @DF-RKS iter  12:  -229.07586681250044   -1.27898e-12   2.49788e-09 DIIS
   @DF-RKS iter  13:  -229.07586681250046   -2.84217e-14   1.76712e-10 DIIS
   @DF-RKS iter  14:  -229.07586681250044    2.84217e-14   3.14504e-11 DIIS
  Energy and wave function converged.


  ==> Post-Iterations <==

    Orbital Energies [Eh]
    ---------------------

    Doubly Occupied:                                                      

       1A    -19.198512     2A    -19.143056     3A    -10.311768  
       4A    -10.240061     5A     -1.106835     6A     -1.021352  
       7A     -0.737518     8A     -0.598154     9A     -0.531100  
      10A     -0.484804    11A     -0.473093    12A     -0.423916  
      13A     -0.397176    14A     -0.365885    15A     -0.310924  
      16A     -0.284200  

    Virtual:                                                              

      17A      0.002808    18A      0.096289    19A      0.111779  
      20A      0.135122    21A      0.151756    22A      0.159009  
      23A      0.265181    24A      0.280414    25A      0.421469  
      26A      0.444255    27A      0.444663    28A      0.477228  
      29A      0.479664    30A      0.518838    31A      0.526388  
      32A      0.576593    33A      0.589423    34A      0.596447  
      35A      0.614402    36A      0.671339    37A      0.708300  
      38A      0.749711    39A      0.800818    40A      0.808895  
      41A      0.811238    42A      0.838533    43A      0.923616  
      44A      0.923833    45A      0.953341    46A      0.971823  
      47A      1.033674    48A      1.034071    49A      1.086965  
      50A      1.116860    51A      1.159280    52A      1.193136  
      53A      1.267207    54A      1.310537    55A      1.327794  
      56A      1.348652    57A      1.389352    58A      1.406929  
      59A      1.468700    60A      1.574034    61A      1.583376  
      62A      1.634379    63A      1.692728    64A      1.735887  
      65A      1.821938    66A      1.832182    67A      1.866713  
      68A      1.873224    69A      1.932934    70A      1.997030  
      71A      2.057640    72A      2.062448    73A      2.266085  
      74A      2.356277    75A      2.525032    76A      2.642002  
      77A      2.872330    78A      2.910879    79A      2.938429  
      80A      2.940152    81A      3.027747    82A      3.039289  
      83A      3.069326    84A      3.138590    85A      3.170164  
      86A      3.198192    87A      3.224955    88A      3.291803  
      89A      3.340777    90A      3.349795    91A      3.366354  
      92A      3.413196    93A      3.429389    94A      3.520924  
      95A      3.603319    96A      3.626005    97A      3.688945  
      98A      3.781991    99A      3.847253   100A      3.969614  
     101A      4.085647   102A      4.108083   103A      4.120440  
     104A      4.265577   105A      4.306407   106A      4.321001  
     107A      4.412799   108A      4.448723   109A      4.877579  
     110A      4.888493   111A      5.030546   112A      5.094195  
     113A      5.098702   114A      5.175691   115A      5.257512  
     116A      5.260156   117A      5.380720   118A      5.449663  
     119A      5.562507   120A      5.660172   121A      5.809110  
     122A      5.821146   123A      5.926021   124A      5.959007  
     125A      6.068119   126A      6.513093   127A      6.800354  
     128A      6.844183   129A      7.033982   130A      7.042506  
     131A      7.080094   132A      7.246616   133A      7.248234  
     134A      7.511528   135A      7.582087   136A      7.630042  

    Final Occupation by Irrep:
              A 
    DOCC [    16 ]

  @DF-RKS Final Energy:  -229.07586681250044

   => Energetics <=

    Nuclear Repulsion Energy =            122.2508111947118294
    One-Electron Energy =                -554.2400804479310636
    Two-Electron Energy =                 226.7943784875303095
    DFT Exchange-Correlation Energy =     -23.8809760468115364
    Empirical Dispersion Energy =           0.0000000000000000
    VV10 Nonlocal Energy =                  0.0000000000000000
    Total Energy =                       -229.0758668125004363

Computation Completed


Properties will be evaluated at   0.000000,   0.000000,   0.000000 [a0]

Properties computed using the SCF density matrix

  Nuclear Dipole Moment: [e a0]
     X:    -3.2073      Y:     0.9941      Z:    -0.0000

  Electronic Dipole Moment: [e a0]
     X:     2.5761      Y:    -1.2488      Z:     0.0000

  Dipole Moment: [e a0]
     X:    -0.6312      Y:    -0.2547      Z:    -0.0000     Total:     0.6806

  Dipole Moment: [D]
     X:    -1.6043      Y:    -0.6473      Z:    -0.0000     Total:     1.7299


*** tstop() called on n082 at Mon Nov  1 07:47:02 2021
Module time:
	user time   =      44.02 seconds =       0.73 minutes
	system time =       0.80 seconds =       0.01 minutes
	total time  =         45 seconds =       0.75 minutes
Total time:
	user time   =      44.02 seconds =       0.73 minutes
	system time =       0.80 seconds =       0.01 minutes
	total time  =         45 seconds =       0.75 minutes
Grab this energy -229.07586681250044
    Psi4 stopped on: Monday, 01 November 2021 07:47AM
    Psi4 wall time for execution: 0:00:44.86

*** Psi4 exiting successfully. Buy a developer a beer!
