
    -----------------------------------------------------------------------
          Psi4: An Open-Source Ab Initio Electronic Structure Package
                               Psi4 1.4a2.dev629 

                         Git: Rev {master} 2938fc2 dirty


    D. G. A. Smith, L. A. Burns, A. C. Simmonett, R. M. Parrish,
    M. C. Schieber, R. Galvelis, P. Kraus, H. Kruse, R. Di Remigio,
    A. Alenaizan, A. M. James, S. Lehtola, J. P. Misiewicz, M. Scheurer,
    R. A. Shaw, J. B. Schriber, Y. Xie, Z. L. Glick, D. A. Sirianni,
    J. S. O'Brien, J. M. Waldrop, A. Kumar, E. G. Hohenstein,
    B. P. Pritchard, B. R. Brooks, H. F. Schaefer III, A. Yu. Sokolov,
    K. Patkowski, A. E. DePrince III, U. Bozkaya, R. A. King,
    F. A. Evangelista, J. M. Turney, T. D. Crawford, C. D. Sherrill,
    J. Chem. Phys. 152(18) 184108 (2020). https://doi.org/10.1063/5.0006002

                            Additional Code Authors
    E. T. Seidl, C. L. Janssen, E. F. Valeev, M. L. Leininger,
    J. F. Gonthier, R. M. Richard, H. R. McAlexander, M. Saitow, X. Wang,
    P. Verma, and M. H. Lechner

             Previous Authors, Complete List of Code Contributors,
                       and Citations for Specific Modules
    https://github.com/psi4/psi4/blob/master/codemeta.json
    https://github.com/psi4/psi4/graphs/contributors
    http://psicode.org/psi4manual/master/introduction.html#citing-psifour

    -----------------------------------------------------------------------


    Psi4 started on: Monday, 01 November 2021 07:22AM

    Process ID: 975
    Host:       n085
    PSIDATADIR: /opt/psi/4/master/share/psi4
    Memory:     500.0 MiB
    Threads:    1
    
  ==> Input File <==

--------------------------------------------------------------------------
import os
memory 14 GB 
 
molecule {
 C   -2.5627967986    1.0360802447   -0.0000000100
 O   -1.1394010833   -1.2768801779    0.0000000100
 C    1.3718030289   -0.9357185160    0.0000000000
 O    2.4400888185    1.0676536704   -0.0000000002
 H   -2.1266816861    2.1501042267   -1.6760477417
 H   -4.5360606864    0.4711216046    0.0000000200
 H   -2.1266816661    2.1501042667    1.6760477017
 H    2.3140448831   -2.7722121192   -0.0000000699
units bohr
}

basis {

assign 6-31g_2dfp_

[ 6-31g_2dfp_ ]

spherical

!----------------------------------------------------------------------
! Basis Set Exchange
! Version v0.8.13
! https://www.basissetexchange.org
!----------------------------------------------------------------------
!   Basis set: 6-31G(2df,p)
! Description: 6-31G(2df,p)
!        Role: orbital
!     Version: 0  (Data from the original Basis Set Exchange)
!----------------------------------------------------------------------


****
H     0
S    3   1.00
     18.7311370              0.03349460
      2.8253937              0.23472695
      0.6401217              0.81375733
S    1   1.00
      0.1612778              1.00000000
P    1   1.00
      1.5000000              1.0000000
P    1   1.00
      0.3750000              1.0000000
****
B     0
S    6   1.00
   2068.8823000              0.0018663
    310.6495700              0.0142515
     70.6830330              0.0695516
     19.8610800              0.2325729
      6.2993048              0.4670787
      2.1270270              0.3634314
SP   3   1.00
      4.7279710             -0.1303938              0.0745976
      1.1903377             -0.1307889              0.3078467
      0.3594117              1.1309444              0.7434568
SP   1   1.00
      0.1267512              1.0000000              1.0000000
D    1   1.00
      0.8020000              1.0000000
D    1   1.00
      0.2005000              1.0000000
F    1   1.00
      0.5000000              1.0000000
****
C     0
S    6   1.00
   3047.5249000              0.0018347
    457.3695100              0.0140373
    103.9486900              0.0688426
     29.2101550              0.2321844
      9.2866630              0.4679413
      3.1639270              0.3623120
SP   3   1.00
      7.8682724             -0.1193324              0.0689991
      1.8812885             -0.1608542              0.3164240
      0.5442493              1.1434564              0.7443083
SP   1   1.00
      0.1687144              1.0000000              1.0000000
D    1   1.00
      1.2520000              1.0000000
D    1   1.00
      0.3130000              1.0000000
F    1   1.00
      0.8000000              1.0000000
****
N     0
S    6   1.00
   4173.5110000              0.0018348
    627.4579000              0.0139950
    142.9021000              0.0685870
     40.2343300              0.2322410
     12.8202100              0.4690700
      4.3904370              0.3604550
SP   3   1.00
     11.6263580             -0.1149610              0.0675800
      2.7162800             -0.1691180              0.3239070
      0.7722180              1.1458520              0.7408950
SP   1   1.00
      0.2120313              1.0000000              1.0000000
D    1   1.00
      1.8260000              1.0000000
D    1   1.00
      0.4565000              1.0000000
F    1   1.00
      1.0000000              1.0000000
****
O     0
S    6   1.00
   5484.6717000              0.0018311
    825.2349500              0.0139501
    188.0469600              0.0684451
     52.9645000              0.2327143
     16.8975700              0.4701930
      5.7996353              0.3585209
SP   3   1.00
     15.5396160             -0.1107775              0.0708743
      3.5999336             -0.1480263              0.3397528
      1.0137618              1.1307670              0.7271586
SP   1   1.00
      0.2700058              1.0000000              1.0000000
D    1   1.00
      2.5840000              1.0000000
D    1   1.00
      0.6460000              1.0000000
F    1   1.00
      1.4000000              1.0000000
****
F     0
S    6   1.00
   7001.7130900              0.0018196169
   1051.3660900              0.0139160796
    239.2856900              0.0684053245
     67.3974453              0.233185760
     21.5199573              0.471267439
      7.40310130             0.356618546
SP   3   1.00
     20.8479528             -0.108506975            0.0716287243
      4.80830834            -0.146451658            0.3459121030
      1.34406986             1.128688580            0.7224699570
SP   1   1.00
      0.358151393            1.0000000              1.0000000
D    1   1.00
      3.5000000              1.0000000
D    1   1.00
      0.8750000              1.0000000
F    1   1.00
      1.8500000              1.0000000
****
Al     0
S    6   1.00
  13983.1000000              0.00194267
   2098.7500000              0.0148599
    477.7050000              0.0728494
    134.3600000              0.2468300
     42.8709000              0.4872580
     14.5189000              0.3234960
SP   6   1.00
    239.6680000             -0.00292619             0.00460285
     57.4419000             -0.0374080              0.0331990
     18.2859000             -0.1144870              0.1362820
      6.5991400              0.1156350              0.3304760
      2.4904900              0.6125950              0.4491460
      0.9445400              0.3937990              0.2657040
SP   3   1.00
      1.2779000             -0.2276060             -0.0175130
      0.3975900              0.00144583             0.2445330
      0.1600950              1.0927900              0.8049340
SP   1   1.00
      0.0556577              1.0000000              1.0000000
D    1   1.00
      0.6500000              1.0000000
D    1   1.00
      0.1625000              1.0000000
F    1   1.00
      0.2500000              1.0000000
****
Si     0
S    6   1.00
  16115.9000000              0.00195948
   2425.5800000              0.01492880
    553.8670000              0.07284780
    156.3400000              0.24613000
     50.0683000              0.48591400
     17.0178000              0.32500200
SP   6   1.00
    292.7180000             -0.00278094             0.00443826
     69.8731000             -0.03571460             0.03266790
     22.3363000             -0.11498500             0.13472100
      8.1503900              0.09356340             0.32867800
      3.1345800              0.60301700             0.44964000
      1.2254300              0.41895900             0.26137200
SP   3   1.00
      1.7273800             -0.24463000            -0.01779510
      0.5729220              0.00431572             0.25353900
      0.2221920              1.09818000             0.80066900
SP   1   1.00
      0.0778369              1.00000000             1.00000000
D    1   1.00
      0.9000000              1.0000000
D    1   1.00
      0.2250000              1.0000000
F    1   1.00
      0.3200000              1.0000000
****
P     0
S    6   1.00
  19413.3000000              0.0018516
   2909.4200000              0.0142062
    661.3640000              0.0699995
    185.7590000              0.2400790
     59.1943000              0.4847620
     20.0310000              0.3352000
SP   6   1.00
    339.4780000             -0.00278217             0.00456462
     81.0101000             -0.0360499              0.03369360
     25.8780000             -0.1166310              0.13975500
      9.4522100              0.0968328              0.33936200
      3.6656600              0.6144180              0.45092100
      1.4674600              0.4037980              0.23858600
SP   3   1.00
      2.1562300             -0.2529230             -0.01776530
      0.7489970              0.0328517              0.27405800
      0.2831450              1.0812500              0.78542100
SP   1   1.00
      0.0998317              1.0000000              1.00000000
D    1   1.00
      1.1000000              1.0000000
D    1   1.00
      0.2750000              1.0000000
F    1   1.00
      0.4500000              1.0000000
****
S     0
S    6   1.00
  21917.1000000              0.0018690
   3301.4900000              0.0142300
    754.1460000              0.0696960
    212.7110000              0.2384870
     67.9896000              0.4833070
     23.0515000              0.3380740
SP   6   1.00
    423.7350000             -0.0023767              0.0040610
    100.7100000             -0.0316930              0.0306810
     32.1599000             -0.1133170              0.1304520
     11.8079000              0.0560900              0.3272050
      4.6311000              0.5922550              0.4528510
      1.8702500              0.4550060              0.2560420
SP   3   1.00
      2.6158400             -0.2503740             -0.0145110
      0.9221670              0.0669570              0.3102630
      0.3412870              1.0545100              0.7544830
SP   1   1.00
      0.1171670              1.0000000              1.0000000
D    1   1.00
      1.3000000              1.0000000
D    1   1.00
      0.3250000              1.0000000
F    1   1.00
      0.5500000              1.0000000
****
Cl     0
S    6   1.00
  25180.1000000              0.0018330
   3780.3500000              0.0140340
    860.4740000              0.0690970
    242.1450000              0.2374520
     77.3349000              0.4830340
     26.2470000              0.3398560
SP   6   1.00
    491.7650000             -0.0022974              0.0039894
    116.9840000             -0.0307140              0.0303180
     37.4153000             -0.1125280              0.1298800
     13.7834000              0.0450160              0.3279510
      5.4521500              0.5893530              0.4535270
      2.2258800              0.4652060              0.2521540
SP   3   1.00
      3.1864900             -0.2518300             -0.0142990
      1.1442700              0.0615890              0.3235720
      0.4203770              1.0601800              0.7435070
SP   1   1.00
      0.1426570              1.0000000              1.0000000
D    1   1.00
      1.5000000              1.0000000
D    1   1.00
      0.3750000              1.0000000
F    1   1.00
      0.7000000              1.0000000
****
}


set {
reference rhf                          
freeze_core true
e_convergence 10                       
d_convergence 10                      
dft_spherical_points 1202
dft_radial_points 99
}

e = energy('b3lyp')

print_out('Grab this energy {0}'.format(e))
--------------------------------------------------------------------------

  Memory set to  13.039 GiB by Python driver.

Scratch directory: /tmp/

*** tstart() called on n085
*** at Mon Nov  1 07:22:17 2021

   => Loading Basis Set <=

    Name: ANONYMOUSDEF654CB
    Role: ORBITAL
    Keyword: BASIS
    atoms 1, 3 entry C          line    48 inputblock 6-31g_2dfp_ 
    atoms 2, 4 entry O          line    90 inputblock 6-31g_2dfp_ 
    atoms 5-8  entry H          line    15 inputblock 6-31g_2dfp_ 


         ---------------------------------------------------------
                                   SCF
               by Justin Turney, Rob Parrish, Andy Simmonett
                          and Daniel G. A. Smith
                              RKS Reference
                        1 Threads,  13351 MiB Core
         ---------------------------------------------------------

  ==> Geometry <==

    Molecular point group: c1
    Full point group: C1

    Geometry (in Bohr), charge = 0, multiplicity = 1:

       Center              X                  Y                   Z               Mass       
    ------------   -----------------  -----------------  -----------------  -----------------
         C           -2.562570458786     1.038203800840    -0.000000009103    12.000000000000
         O           -1.139174743486    -1.274756621760     0.000000010897    15.994914619570
         C            1.372029368714    -0.933594959860     0.000000000897    12.000000000000
         O            2.440315158314     1.069777226540     0.000000000697    15.994914619570
         H           -2.126455346286     2.152227782840    -1.676047740803     1.007825032230
         H           -4.535834346586     0.473245160740     0.000000020897     1.007825032230
         H           -2.126455326286     2.152227822840     1.676047702597     1.007825032230
         H            2.314271222914    -2.770088563060    -0.000000069003     1.007825032230

  Running in c1 symmetry.

  Rotational constants: A =      0.66410  B =      0.23305  C =      0.17830 [cm^-1]
  Rotational constants: A =  19909.27817  B =   6986.75464  C =   5345.27932 [MHz]
  Nuclear repulsion =  122.553009862691411

  Charge       = 0
  Multiplicity = 1
  Electrons    = 32
  Nalpha       = 16
  Nbeta        = 16

  ==> Algorithm <==

  SCF Algorithm Type is DF.
  DIIS enabled.
  MOM disabled.
  Fractional occupation disabled.
  Guess Type is SAD.
  Energy threshold   = 1.00e-10
  Density threshold  = 1.00e-10
  Integral threshold = 0.00e+00

  ==> Primary Basis <==

  Basis Set: ANONYMOUSDEF654CB
    Blend: 6-31G_2DFP_
    Number of shells: 48
    Number of basis function: 136
    Number of Cartesian functions: 156
    Spherical Harmonics?: true
    Max angular momentum: 3

  ==> DFT Potential <==

   => Composite Functional: B3LYP <= 

    B3LYP Hyb-GGA Exchange-Correlation Functional

    P. J. Stephens, F. J. Devlin, C. F. Chabalowski, and M. J. Frisch, J. Phys. Chem. 98, 11623 (1994)

    Deriv               =              1
    GGA                 =           TRUE
    Meta                =          FALSE

    Exchange Hybrid     =           TRUE
    MP2 Hybrid          =          FALSE

   => Exchange Functionals <=

    0.0800   Slater exchange
    0.7200         Becke 88

   => Exact (HF) Exchange <=

    0.2000               HF 

   => Correlation Functionals <=

    0.1900   Vosko, Wilk & Nusair (VWN5_RPA)
    0.8100   Lee, Yang & Parr

   => Molecular Quadrature <=

    Radial Scheme          =       TREUTLER
    Pruning Scheme         =           NONE
    Nuclear Scheme         =       TREUTLER

    BS radius alpha        =              1
    Pruning alpha          =              1
    Radial Points          =             99
    Spherical Points       =           1202
    Total Points           =         894591
    Total Blocks           =           6118
    Max Points             =            256
    Max Functions          =            136
    Weights Tolerance      =       1.00E-15

   => Loading Basis Set <=

    Name: (ANONYMOUSDEF654CB AUX)
    Role: JKFIT
    Keyword: DF_BASIS_SCF
    atoms 1, 3 entry C          line   198 file /opt/psi/4/master/share/psi4/basis/def2-universal-jkfit.gbs 
    atoms 2, 4 entry O          line   318 file /opt/psi/4/master/share/psi4/basis/def2-universal-jkfit.gbs 
    atoms 5-8  entry H          line    18 file /opt/psi/4/master/share/psi4/basis/def2-universal-jkfit.gbs 

  ==> Integral Setup <==

  DFHelper Memory: AOs need 0.056 GiB; user supplied 6.949 GiB. Using in-core AOs.

  ==> MemDFJK: Density-Fitted J/K Matrices <==

    J tasked:                   Yes
    K tasked:                   Yes
    wK tasked:                   No
    OpenMP threads:               1
    Memory [MiB]:              7115
    Algorithm:                 Core
    Schwarz Cutoff:           1E-12
    Mask sparsity (%):       1.1246
    Fitting Condition:        1E-10

   => Auxiliary Basis Set <=

  Basis Set: (ANONYMOUSDEF654CB AUX)
    Blend: DEF2-UNIVERSAL-JKFIT
    Number of shells: 124
    Number of basis function: 376
    Number of Cartesian functions: 444
    Spherical Harmonics?: true
    Max angular momentum: 4

  Cached 100.0% of DFT collocation blocks in 2.830 [GiB].

  Minimum eigenvalue in the overlap matrix is 2.5264548503E-03.
  Reciprocal condition number of the overlap matrix is 4.8019719654E-04.
    Using symmetric orthogonalization.

  ==> Pre-Iterations <==

  SCF Guess: Superposition of Atomic Densities via on-the-fly atomic UHF (no occupation information).

   -------------------------
    Irrep   Nso     Nmo    
   -------------------------
     A        136     136 
   -------------------------
    Total     136     136
   -------------------------

  ==> Iterations <==

                           Total Energy        Delta E     RMS |[F,P]|

   @DF-RKS iter SAD:  -228.52375279947256   -2.28524e+02   0.00000e+00 
   @DF-RKS iter   1:  -228.88256889183972   -3.58816e-01   4.96282e-03 DIIS
   @DF-RKS iter   2:  -228.63778254752242    2.44786e-01   7.65573e-03 DIIS
   @DF-RKS iter   3:  -229.04810530455410   -4.10323e-01   1.88272e-03 DIIS
   @DF-RKS iter   4:  -229.07426190417928   -2.61566e-02   4.79821e-04 DIIS
   @DF-RKS iter   5:  -229.07563630969779   -1.37441e-03   1.89235e-04 DIIS
   @DF-RKS iter   6:  -229.07588460101752   -2.48291e-04   3.76996e-05 DIIS
   @DF-RKS iter   7:  -229.07589456114076   -9.96012e-06   9.02487e-06 DIIS
   @DF-RKS iter   8:  -229.07589519614470   -6.35004e-07   2.31876e-06 DIIS
   @DF-RKS iter   9:  -229.07589523811896   -4.19743e-08   2.78500e-07 DIIS
   @DF-RKS iter  10:  -229.07589523878264   -6.63675e-10   3.77474e-08 DIIS
   @DF-RKS iter  11:  -229.07589523879577   -1.31308e-11   1.30195e-08 DIIS
   @DF-RKS iter  12:  -229.07589523879707   -1.30740e-12   2.42870e-09 DIIS
   @DF-RKS iter  13:  -229.07589523879693    1.42109e-13   1.71777e-10 DIIS
   @DF-RKS iter  14:  -229.07589523879727   -3.41061e-13   3.09178e-11 DIIS
  Energy and wave function converged.


  ==> Post-Iterations <==

    Orbital Energies [Eh]
    ---------------------

    Doubly Occupied:                                                      

       1A    -19.198592     2A    -19.142485     3A    -10.310614  
       4A    -10.239829     5A     -1.109470     6A     -1.023056  
       7A     -0.738753     8A     -0.598342     9A     -0.532644  
      10A     -0.485860    11A     -0.473622    12A     -0.424088  
      13A     -0.397548    14A     -0.366101    15A     -0.311225  
      16A     -0.284240  

    Virtual:                                                              

      17A      0.004265    18A      0.096548    19A      0.113623  
      20A      0.135944    21A      0.152518    22A      0.158977  
      23A      0.266017    24A      0.283167    25A      0.420976  
      26A      0.444451    27A      0.445164    28A      0.477564  
      29A      0.479016    30A      0.519154    31A      0.527485  
      32A      0.577614    33A      0.588703    34A      0.599631  
      35A      0.614758    36A      0.671446    37A      0.709496  
      38A      0.749921    39A      0.801605    40A      0.809882  
      41A      0.811310    42A      0.839227    43A      0.923814  
      44A      0.925374    45A      0.952907    46A      0.970718  
      47A      1.033958    48A      1.035903    49A      1.086419  
      50A      1.118902    51A      1.159109    52A      1.194981  
      53A      1.268408    54A      1.311073    55A      1.329628  
      56A      1.350204    57A      1.389350    58A      1.411017  
      59A      1.471077    60A      1.574834    61A      1.584884  
      62A      1.636218    63A      1.693470    64A      1.736901  
      65A      1.824975    66A      1.833387    67A      1.868493  
      68A      1.874827    69A      1.934704    70A      1.998806  
      71A      2.060734    72A      2.064630    73A      2.270183  
      74A      2.360532    75A      2.531276    76A      2.645361  
      77A      2.872305    78A      2.911509    79A      2.939111  
      80A      2.941242    81A      3.027113    82A      3.041337  
      83A      3.071058    84A      3.142322    85A      3.170089  
      86A      3.197921    87A      3.227749    88A      3.296366  
      89A      3.342793    90A      3.350961    91A      3.367591  
      92A      3.417067    93A      3.430230    94A      3.524281  
      95A      3.606351    96A      3.627473    97A      3.694224  
      98A      3.781747    99A      3.855109   100A      3.978105  
     101A      4.090196   102A      4.110331   103A      4.121868  
     104A      4.266107   105A      4.308061   106A      4.322102  
     107A      4.420339   108A      4.447111   109A      4.877661  
     110A      4.894360   111A      5.029684   112A      5.095474  
     113A      5.098758   114A      5.177066   115A      5.260551  
     116A      5.264589   117A      5.386505   118A      5.455693  
     119A      5.569251   120A      5.667242   121A      5.815646  
     122A      5.828820   123A      5.933164   124A      5.967425  
     125A      6.081608   126A      6.522570   127A      6.800704  
     128A      6.845564   129A      7.034263   130A      7.045458  
     131A      7.081626   132A      7.250256   133A      7.250642  
     134A      7.517016   135A      7.586499   136A      7.636841  

    Final Occupation by Irrep:
              A 
    DOCC [    16 ]

  @DF-RKS Final Energy:  -229.07589523879727

   => Energetics <=

    Nuclear Repulsion Energy =            122.5530098626914111
    One-Electron Energy =                -554.8235090407149528
    Two-Electron Energy =                 227.0826485018529581
    DFT Exchange-Correlation Energy =     -23.8880445626266606
    Empirical Dispersion Energy =           0.0000000000000000
    VV10 Nonlocal Energy =                  0.0000000000000000
    Total Energy =                       -229.0758952387972727

Computation Completed


Properties will be evaluated at   0.000000,   0.000000,   0.000000 [a0]

Properties computed using the SCF density matrix

  Nuclear Dipole Moment: [e a0]
     X:    -3.2086      Y:     0.9954      Z:    -0.0000

  Electronic Dipole Moment: [e a0]
     X:     2.5756      Y:    -1.2504      Z:     0.0000

  Dipole Moment: [e a0]
     X:    -0.6330      Y:    -0.2550      Z:    -0.0000     Total:     0.6824

  Dipole Moment: [D]
     X:    -1.6090      Y:    -0.6481      Z:    -0.0000     Total:     1.7346


*** tstop() called on n085 at Mon Nov  1 07:23:02 2021
Module time:
	user time   =      44.07 seconds =       0.73 minutes
	system time =       0.79 seconds =       0.01 minutes
	total time  =         45 seconds =       0.75 minutes
Total time:
	user time   =      44.07 seconds =       0.73 minutes
	system time =       0.79 seconds =       0.01 minutes
	total time  =         45 seconds =       0.75 minutes
Grab this energy -229.07589523879727
    Psi4 stopped on: Monday, 01 November 2021 07:23AM
    Psi4 wall time for execution: 0:00:44.90

*** Psi4 exiting successfully. Buy a developer a beer!
