
    -----------------------------------------------------------------------
          Psi4: An Open-Source Ab Initio Electronic Structure Package
                               Psi4 1.4a2.dev629 

                         Git: Rev {master} 2938fc2 dirty


    D. G. A. Smith, L. A. Burns, A. C. Simmonett, R. M. Parrish,
    M. C. Schieber, R. Galvelis, P. Kraus, H. Kruse, R. Di Remigio,
    A. Alenaizan, A. M. James, S. Lehtola, J. P. Misiewicz, M. Scheurer,
    R. A. Shaw, J. B. Schriber, Y. Xie, Z. L. Glick, D. A. Sirianni,
    J. S. O'Brien, J. M. Waldrop, A. Kumar, E. G. Hohenstein,
    B. P. Pritchard, B. R. Brooks, H. F. Schaefer III, A. Yu. Sokolov,
    K. Patkowski, A. E. DePrince III, U. Bozkaya, R. A. King,
    F. A. Evangelista, J. M. Turney, T. D. Crawford, C. D. Sherrill,
    J. Chem. Phys. 152(18) 184108 (2020). https://doi.org/10.1063/5.0006002

                            Additional Code Authors
    E. T. Seidl, C. L. Janssen, E. F. Valeev, M. L. Leininger,
    J. F. Gonthier, R. M. Richard, H. R. McAlexander, M. Saitow, X. Wang,
    P. Verma, and M. H. Lechner

             Previous Authors, Complete List of Code Contributors,
                       and Citations for Specific Modules
    https://github.com/psi4/psi4/blob/master/codemeta.json
    https://github.com/psi4/psi4/graphs/contributors
    http://psicode.org/psi4manual/master/introduction.html#citing-psifour

    -----------------------------------------------------------------------


    Psi4 started on: Monday, 01 November 2021 07:17AM

    Process ID: 5331
    Host:       n081
    PSIDATADIR: /opt/psi/4/master/share/psi4
    Memory:     500.0 MiB
    Threads:    1
    
  ==> Input File <==

--------------------------------------------------------------------------
import os
memory 14 GB 
 
molecule {
 C   -2.5651977607    1.0377312463   -0.0010313364
 O   -1.1396503032   -1.2784108880    0.0011669030
 C    1.3759052062   -0.9320432942   -0.0020461336
 O    2.4392640213    1.0735253844    0.0007195097
 H   -2.1257651274    2.1493290329   -1.6761632731
 H   -4.5370008075    0.4715232732    0.0002264901
 H   -2.1259627485    2.1490598151    1.6765681641
 H    2.3127223298   -2.7804613698    0.0005595863
units bohr
}

basis {

assign 6-31g_2dfp_

[ 6-31g_2dfp_ ]

spherical

!----------------------------------------------------------------------
! Basis Set Exchange
! Version v0.8.13
! https://www.basissetexchange.org
!----------------------------------------------------------------------
!   Basis set: 6-31G(2df,p)
! Description: 6-31G(2df,p)
!        Role: orbital
!     Version: 0  (Data from the original Basis Set Exchange)
!----------------------------------------------------------------------


****
H     0
S    3   1.00
     18.7311370              0.03349460
      2.8253937              0.23472695
      0.6401217              0.81375733
S    1   1.00
      0.1612778              1.00000000
P    1   1.00
      1.5000000              1.0000000
P    1   1.00
      0.3750000              1.0000000
****
B     0
S    6   1.00
   2068.8823000              0.0018663
    310.6495700              0.0142515
     70.6830330              0.0695516
     19.8610800              0.2325729
      6.2993048              0.4670787
      2.1270270              0.3634314
SP   3   1.00
      4.7279710             -0.1303938              0.0745976
      1.1903377             -0.1307889              0.3078467
      0.3594117              1.1309444              0.7434568
SP   1   1.00
      0.1267512              1.0000000              1.0000000
D    1   1.00
      0.8020000              1.0000000
D    1   1.00
      0.2005000              1.0000000
F    1   1.00
      0.5000000              1.0000000
****
C     0
S    6   1.00
   3047.5249000              0.0018347
    457.3695100              0.0140373
    103.9486900              0.0688426
     29.2101550              0.2321844
      9.2866630              0.4679413
      3.1639270              0.3623120
SP   3   1.00
      7.8682724             -0.1193324              0.0689991
      1.8812885             -0.1608542              0.3164240
      0.5442493              1.1434564              0.7443083
SP   1   1.00
      0.1687144              1.0000000              1.0000000
D    1   1.00
      1.2520000              1.0000000
D    1   1.00
      0.3130000              1.0000000
F    1   1.00
      0.8000000              1.0000000
****
N     0
S    6   1.00
   4173.5110000              0.0018348
    627.4579000              0.0139950
    142.9021000              0.0685870
     40.2343300              0.2322410
     12.8202100              0.4690700
      4.3904370              0.3604550
SP   3   1.00
     11.6263580             -0.1149610              0.0675800
      2.7162800             -0.1691180              0.3239070
      0.7722180              1.1458520              0.7408950
SP   1   1.00
      0.2120313              1.0000000              1.0000000
D    1   1.00
      1.8260000              1.0000000
D    1   1.00
      0.4565000              1.0000000
F    1   1.00
      1.0000000              1.0000000
****
O     0
S    6   1.00
   5484.6717000              0.0018311
    825.2349500              0.0139501
    188.0469600              0.0684451
     52.9645000              0.2327143
     16.8975700              0.4701930
      5.7996353              0.3585209
SP   3   1.00
     15.5396160             -0.1107775              0.0708743
      3.5999336             -0.1480263              0.3397528
      1.0137618              1.1307670              0.7271586
SP   1   1.00
      0.2700058              1.0000000              1.0000000
D    1   1.00
      2.5840000              1.0000000
D    1   1.00
      0.6460000              1.0000000
F    1   1.00
      1.4000000              1.0000000
****
F     0
S    6   1.00
   7001.7130900              0.0018196169
   1051.3660900              0.0139160796
    239.2856900              0.0684053245
     67.3974453              0.233185760
     21.5199573              0.471267439
      7.40310130             0.356618546
SP   3   1.00
     20.8479528             -0.108506975            0.0716287243
      4.80830834            -0.146451658            0.3459121030
      1.34406986             1.128688580            0.7224699570
SP   1   1.00
      0.358151393            1.0000000              1.0000000
D    1   1.00
      3.5000000              1.0000000
D    1   1.00
      0.8750000              1.0000000
F    1   1.00
      1.8500000              1.0000000
****
Al     0
S    6   1.00
  13983.1000000              0.00194267
   2098.7500000              0.0148599
    477.7050000              0.0728494
    134.3600000              0.2468300
     42.8709000              0.4872580
     14.5189000              0.3234960
SP   6   1.00
    239.6680000             -0.00292619             0.00460285
     57.4419000             -0.0374080              0.0331990
     18.2859000             -0.1144870              0.1362820
      6.5991400              0.1156350              0.3304760
      2.4904900              0.6125950              0.4491460
      0.9445400              0.3937990              0.2657040
SP   3   1.00
      1.2779000             -0.2276060             -0.0175130
      0.3975900              0.00144583             0.2445330
      0.1600950              1.0927900              0.8049340
SP   1   1.00
      0.0556577              1.0000000              1.0000000
D    1   1.00
      0.6500000              1.0000000
D    1   1.00
      0.1625000              1.0000000
F    1   1.00
      0.2500000              1.0000000
****
Si     0
S    6   1.00
  16115.9000000              0.00195948
   2425.5800000              0.01492880
    553.8670000              0.07284780
    156.3400000              0.24613000
     50.0683000              0.48591400
     17.0178000              0.32500200
SP   6   1.00
    292.7180000             -0.00278094             0.00443826
     69.8731000             -0.03571460             0.03266790
     22.3363000             -0.11498500             0.13472100
      8.1503900              0.09356340             0.32867800
      3.1345800              0.60301700             0.44964000
      1.2254300              0.41895900             0.26137200
SP   3   1.00
      1.7273800             -0.24463000            -0.01779510
      0.5729220              0.00431572             0.25353900
      0.2221920              1.09818000             0.80066900
SP   1   1.00
      0.0778369              1.00000000             1.00000000
D    1   1.00
      0.9000000              1.0000000
D    1   1.00
      0.2250000              1.0000000
F    1   1.00
      0.3200000              1.0000000
****
P     0
S    6   1.00
  19413.3000000              0.0018516
   2909.4200000              0.0142062
    661.3640000              0.0699995
    185.7590000              0.2400790
     59.1943000              0.4847620
     20.0310000              0.3352000
SP   6   1.00
    339.4780000             -0.00278217             0.00456462
     81.0101000             -0.0360499              0.03369360
     25.8780000             -0.1166310              0.13975500
      9.4522100              0.0968328              0.33936200
      3.6656600              0.6144180              0.45092100
      1.4674600              0.4037980              0.23858600
SP   3   1.00
      2.1562300             -0.2529230             -0.01776530
      0.7489970              0.0328517              0.27405800
      0.2831450              1.0812500              0.78542100
SP   1   1.00
      0.0998317              1.0000000              1.00000000
D    1   1.00
      1.1000000              1.0000000
D    1   1.00
      0.2750000              1.0000000
F    1   1.00
      0.4500000              1.0000000
****
S     0
S    6   1.00
  21917.1000000              0.0018690
   3301.4900000              0.0142300
    754.1460000              0.0696960
    212.7110000              0.2384870
     67.9896000              0.4833070
     23.0515000              0.3380740
SP   6   1.00
    423.7350000             -0.0023767              0.0040610
    100.7100000             -0.0316930              0.0306810
     32.1599000             -0.1133170              0.1304520
     11.8079000              0.0560900              0.3272050
      4.6311000              0.5922550              0.4528510
      1.8702500              0.4550060              0.2560420
SP   3   1.00
      2.6158400             -0.2503740             -0.0145110
      0.9221670              0.0669570              0.3102630
      0.3412870              1.0545100              0.7544830
SP   1   1.00
      0.1171670              1.0000000              1.0000000
D    1   1.00
      1.3000000              1.0000000
D    1   1.00
      0.3250000              1.0000000
F    1   1.00
      0.5500000              1.0000000
****
Cl     0
S    6   1.00
  25180.1000000              0.0018330
   3780.3500000              0.0140340
    860.4740000              0.0690970
    242.1450000              0.2374520
     77.3349000              0.4830340
     26.2470000              0.3398560
SP   6   1.00
    491.7650000             -0.0022974              0.0039894
    116.9840000             -0.0307140              0.0303180
     37.4153000             -0.1125280              0.1298800
     13.7834000              0.0450160              0.3279510
      5.4521500              0.5893530              0.4535270
      2.2258800              0.4652060              0.2521540
SP   3   1.00
      3.1864900             -0.2518300             -0.0142990
      1.1442700              0.0615890              0.3235720
      0.4203770              1.0601800              0.7435070
SP   1   1.00
      0.1426570              1.0000000              1.0000000
D    1   1.00
      1.5000000              1.0000000
D    1   1.00
      0.3750000              1.0000000
F    1   1.00
      0.7000000              1.0000000
****
}


set {
reference rhf                          
freeze_core true
e_convergence 10                       
d_convergence 10                      
dft_spherical_points 1202
dft_radial_points 99
}

e = energy('b3lyp')

print_out('Grab this energy {0}'.format(e))
--------------------------------------------------------------------------

  Memory set to  13.039 GiB by Python driver.

Scratch directory: /tmp/

*** tstart() called on n081
*** at Mon Nov  1 07:17:17 2021

   => Loading Basis Set <=

    Name: ANONYMOUSA06A9932
    Role: ORBITAL
    Keyword: BASIS
    atoms 1, 3 entry C          line    48 inputblock 6-31g_2dfp_ 
    atoms 2, 4 entry O          line    90 inputblock 6-31g_2dfp_ 
    atoms 5-8  entry H          line    15 inputblock 6-31g_2dfp_ 


         ---------------------------------------------------------
                                   SCF
               by Justin Turney, Rob Parrish, Andy Simmonett
                          and Daniel G. A. Smith
                              RKS Reference
                        1 Threads,  13351 MiB Core
         ---------------------------------------------------------

  ==> Geometry <==

    Molecular point group: c1
    Full point group: C1

    Geometry (in Bohr), charge = 0, multiplicity = 1:

       Center              X                  Y                   Z               Mass       
    ------------   -----------------  -----------------  -----------------  -----------------
         C           -2.565014800021     1.037795431097    -0.000938763281    12.000000000000
         O           -1.139467342521    -1.278346703203     0.001259476119    15.994914619570
         C            1.376088166879    -0.931979109403    -0.001953560481    12.000000000000
         O            2.439446981979     1.073589569197     0.000812082819    15.994914619570
         H           -2.125582166721     2.149393217697    -1.676070699981     1.007825032230
         H           -4.536817846821     0.471587457997     0.000319063219     1.007825032230
         H           -2.125779787821     2.149123999897     1.676660737219     1.007825032230
         H            2.312905290479    -2.780397185003     0.000652159419     1.007825032230

  Running in c1 symmetry.

  Rotational constants: A =      0.66218  B =      0.23285  C =      0.17804 [cm^-1]
  Rotational constants: A =  19851.52919  B =   6980.66806  C =   5337.62081 [MHz]
  Nuclear repulsion =  122.450669643826984

  Charge       = 0
  Multiplicity = 1
  Electrons    = 32
  Nalpha       = 16
  Nbeta        = 16

  ==> Algorithm <==

  SCF Algorithm Type is DF.
  DIIS enabled.
  MOM disabled.
  Fractional occupation disabled.
  Guess Type is SAD.
  Energy threshold   = 1.00e-10
  Density threshold  = 1.00e-10
  Integral threshold = 0.00e+00

  ==> Primary Basis <==

  Basis Set: ANONYMOUSA06A9932
    Blend: 6-31G_2DFP_
    Number of shells: 48
    Number of basis function: 136
    Number of Cartesian functions: 156
    Spherical Harmonics?: true
    Max angular momentum: 3

  ==> DFT Potential <==

   => Composite Functional: B3LYP <= 

    B3LYP Hyb-GGA Exchange-Correlation Functional

    P. J. Stephens, F. J. Devlin, C. F. Chabalowski, and M. J. Frisch, J. Phys. Chem. 98, 11623 (1994)

    Deriv               =              1
    GGA                 =           TRUE
    Meta                =          FALSE

    Exchange Hybrid     =           TRUE
    MP2 Hybrid          =          FALSE

   => Exchange Functionals <=

    0.0800   Slater exchange
    0.7200         Becke 88

   => Exact (HF) Exchange <=

    0.2000               HF 

   => Correlation Functionals <=

    0.1900   Vosko, Wilk & Nusair (VWN5_RPA)
    0.8100   Lee, Yang & Parr

   => Molecular Quadrature <=

    Radial Scheme          =       TREUTLER
    Pruning Scheme         =           NONE
    Nuclear Scheme         =       TREUTLER

    BS radius alpha        =              1
    Pruning alpha          =              1
    Radial Points          =             99
    Spherical Points       =           1202
    Total Points           =         894614
    Total Blocks           =           6089
    Max Points             =            256
    Max Functions          =            136
    Weights Tolerance      =       1.00E-15

   => Loading Basis Set <=

    Name: (ANONYMOUSA06A9932 AUX)
    Role: JKFIT
    Keyword: DF_BASIS_SCF
    atoms 1, 3 entry C          line   198 file /opt/psi/4/master/share/psi4/basis/def2-universal-jkfit.gbs 
    atoms 2, 4 entry O          line   318 file /opt/psi/4/master/share/psi4/basis/def2-universal-jkfit.gbs 
    atoms 5-8  entry H          line    18 file /opt/psi/4/master/share/psi4/basis/def2-universal-jkfit.gbs 

  ==> Integral Setup <==

  DFHelper Memory: AOs need 0.056 GiB; user supplied 6.950 GiB. Using in-core AOs.

  ==> MemDFJK: Density-Fitted J/K Matrices <==

    J tasked:                   Yes
    K tasked:                   Yes
    wK tasked:                   No
    OpenMP threads:               1
    Memory [MiB]:              7117
    Algorithm:                 Core
    Schwarz Cutoff:           1E-12
    Mask sparsity (%):       1.1246
    Fitting Condition:        1E-10

   => Auxiliary Basis Set <=

  Basis Set: (ANONYMOUSA06A9932 AUX)
    Blend: DEF2-UNIVERSAL-JKFIT
    Number of shells: 124
    Number of basis function: 376
    Number of Cartesian functions: 444
    Spherical Harmonics?: true
    Max angular momentum: 4

  Cached 100.0% of DFT collocation blocks in 2.829 [GiB].

  Minimum eigenvalue in the overlap matrix is 2.5335837492E-03.
  Reciprocal condition number of the overlap matrix is 4.8174447101E-04.
    Using symmetric orthogonalization.

  ==> Pre-Iterations <==

  SCF Guess: Superposition of Atomic Densities via on-the-fly atomic UHF (no occupation information).

   -------------------------
    Irrep   Nso     Nmo    
   -------------------------
     A        136     136 
   -------------------------
    Total     136     136
   -------------------------

  ==> Iterations <==

                           Total Energy        Delta E     RMS |[F,P]|

   @DF-RKS iter SAD:  -228.51684491880232   -2.28517e+02   0.00000e+00 
   @DF-RKS iter   1:  -228.88258687673746   -3.65742e-01   4.96317e-03 DIIS
   @DF-RKS iter   2:  -228.63642976845551    2.46157e-01   7.66792e-03 DIIS
   @DF-RKS iter   3:  -229.04814859254017   -4.11719e-01   1.88158e-03 DIIS
   @DF-RKS iter   4:  -229.07426906826291   -2.61205e-02   4.82220e-04 DIIS
   @DF-RKS iter   5:  -229.07565621595376   -1.38715e-03   1.90681e-04 DIIS
   @DF-RKS iter   6:  -229.07590857234754   -2.52356e-04   3.79085e-05 DIIS
   @DF-RKS iter   7:  -229.07591866430707   -1.00920e-05   9.07882e-06 DIIS
   @DF-RKS iter   8:  -229.07591930797997   -6.43673e-07   2.32946e-06 DIIS
   @DF-RKS iter   9:  -229.07591935039841   -4.24184e-08   2.78121e-07 DIIS
   @DF-RKS iter  10:  -229.07591935106296   -6.64556e-10   3.79439e-08 DIIS
   @DF-RKS iter  11:  -229.07591935107629   -1.33298e-11   1.30750e-08 DIIS
   @DF-RKS iter  12:  -229.07591935107789   -1.59162e-12   2.44332e-09 DIIS
   @DF-RKS iter  13:  -229.07591935107803   -1.42109e-13   1.75030e-10 DIIS
   @DF-RKS iter  14:  -229.07591935107712    9.09495e-13   3.16014e-11 DIIS
  Energy and wave function converged.


  ==> Post-Iterations <==

    Orbital Energies [Eh]
    ---------------------

    Doubly Occupied:                                                      

       1A    -19.198184     2A    -19.143187     3A    -10.311235  
       4A    -10.239661     5A     -1.108389     6A     -1.023069  
       7A     -0.738011     8A     -0.597839     9A     -0.531626  
      10A     -0.485288    11A     -0.473479    12A     -0.424027  
      13A     -0.397697    14A     -0.366177    15A     -0.311168  
      16A     -0.284686  

    Virtual:                                                              

      17A      0.003925    18A      0.096391    19A      0.113051  
      20A      0.135344    21A      0.152261    22A      0.158965  
      23A      0.265670    24A      0.281986    25A      0.421158  
      26A      0.444520    27A      0.444964    28A      0.477586  
      29A      0.479289    30A      0.518794    31A      0.526294  
      32A      0.577311    33A      0.589052    34A      0.599396  
      35A      0.614933    36A      0.670949    37A      0.709434  
      38A      0.749409    39A      0.801390    40A      0.808468  
      41A      0.809665    42A      0.838965    43A      0.924111  
      44A      0.924361    45A      0.952815    46A      0.971750  
      47A      1.034023    48A      1.035197    49A      1.086698  
      50A      1.117681    51A      1.159247    52A      1.193956  
      53A      1.266978    54A      1.311677    55A      1.329895  
      56A      1.349770    57A      1.388954    58A      1.409784  
      59A      1.469917    60A      1.574876    61A      1.584404  
      62A      1.635079    63A      1.694618    64A      1.736808  
      65A      1.823931    66A      1.832056    67A      1.867934  
      68A      1.874625    69A      1.933650    70A      1.998103  
      71A      2.056658    72A      2.064551    73A      2.268779  
      74A      2.357713    75A      2.531217    76A      2.642472  
      77A      2.872077    78A      2.911416    79A      2.938592  
      80A      2.940387    81A      3.027575    82A      3.041176  
      83A      3.070654    84A      3.141089    85A      3.169548  
      86A      3.197576    87A      3.224951    88A      3.296337  
      89A      3.342863    90A      3.350857    91A      3.367269  
      92A      3.413851    93A      3.429487    94A      3.522583  
      95A      3.605960    96A      3.629961    97A      3.691303  
      98A      3.782043    99A      3.853409   100A      3.975692  
     101A      4.085394   102A      4.108729   103A      4.120975  
     104A      4.266041   105A      4.307448   106A      4.320835  
     107A      4.414575   108A      4.450233   109A      4.879239  
     110A      4.885924   111A      5.029969   112A      5.094102  
     113A      5.098647   114A      5.176618   115A      5.259415  
     116A      5.263093   117A      5.384600   118A      5.453817  
     119A      5.568679   120A      5.664500   121A      5.811351  
     122A      5.825869   123A      5.930841   124A      5.965582  
     125A      6.075853   126A      6.516117   127A      6.800412  
     128A      6.844741   129A      7.033822   130A      7.044924  
     131A      7.080989   132A      7.247819   133A      7.249844  
     134A      7.514638   135A      7.585726   136A      7.634960  

    Final Occupation by Irrep:
              A 
    DOCC [    16 ]

  @DF-RKS Final Energy:  -229.07591935107712

   => Energetics <=

    Nuclear Repulsion Energy =            122.4506696438269842
    One-Electron Energy =                -554.6262516555639195
    Two-Electron Energy =                 226.9849482948798993
    DFT Exchange-Correlation Energy =     -23.8852856342200788
    Empirical Dispersion Energy =           0.0000000000000000
    VV10 Nonlocal Energy =                  0.0000000000000000
    Total Energy =                       -229.0759193510771183

Computation Completed


Properties will be evaluated at   0.000000,   0.000000,   0.000000 [a0]

Properties computed using the SCF density matrix

  Nuclear Dipole Moment: [e a0]
     X:    -3.2090      Y:     0.9865      Z:     0.0008

  Electronic Dipole Moment: [e a0]
     X:     2.5801      Y:    -1.2391      Z:    -0.0021

  Dipole Moment: [e a0]
     X:    -0.6289      Y:    -0.2525      Z:    -0.0014     Total:     0.6777

  Dipole Moment: [D]
     X:    -1.5985      Y:    -0.6419      Z:    -0.0035     Total:     1.7225


*** tstop() called on n081 at Mon Nov  1 07:18:02 2021
Module time:
	user time   =      43.81 seconds =       0.73 minutes
	system time =       0.76 seconds =       0.01 minutes
	total time  =         45 seconds =       0.75 minutes
Total time:
	user time   =      43.81 seconds =       0.73 minutes
	system time =       0.76 seconds =       0.01 minutes
	total time  =         45 seconds =       0.75 minutes
Grab this energy -229.07591935107712
    Psi4 stopped on: Monday, 01 November 2021 07:18AM
    Psi4 wall time for execution: 0:00:44.88

*** Psi4 exiting successfully. Buy a developer a beer!
