
 Primary working directories    : /tmp/916840.9.gen6.q
 Secondary working directories  : /tmp/916840.9.gen6.q
 Wavefunction directory         : /home/vulcan/lo21740/wfu/
 Main file repository           : /tmp/916840.9.gen6.q/

 ARCHNAME  : Linux/x86_64
 FC        : /opt/intel/compilers_and_libraries_2016.1.150/linux/bin/intel64/ifort
 FCVERSION : 16.0.1
 BLASLIB   : -mkl
 id        : ccgc

 Nodes     nprocs
 n076         1
 ga_uses_ma=false, calling ma_init with nominal heap.
 GA-space will be limited to   8.0 MW (determined by -G option)

 Using customized tuning parameters: mindgm=10; mindgv=16; mindgc=4; mindgr=1; noblas=0; mincuda=1000; minvec=7
 default implementation of scratch files=df  

 ***,Optimization of h2o_2
 memory,1000,m
 gthresh,energy=1.0d-12,orbital=1.0d-10,oneint=1.0d-16,twoint=1.0d-16,optgrad=1.0d-6,compress=1.0d-13
 geomtyp=xyz
 
 bohr
 geometry = {
  O   -2.8075101337   -0.2049756812    0.0004353627
  H   -3.5543080078    1.4421822945   -0.0008265158
  H   -1.0127362165    0.1068816919   -0.0010741008
  O    2.6767142935    0.1981711538   -0.0035922904
  H    3.3279243953   -0.6991866203   -1.4362991947
  H    3.3349036772   -0.7031190848    1.4413567390
 }
 
 basis=aug-cc-pvdz, H=cc-pvdz
 {rhf;maxit,200}
 {ccsd(t);maxit,200}

 Variables initialized (661), CPU time= 0.00 sec
 Commands  initialized (458), CPU time= 0.01 sec, 486 directives.
 Default parameters read. Elapsed time= 0.04 sec

 Checking input...
 Passed
1


                                         ***  PROGRAM SYSTEM MOLPRO  ***
                         Copyright, University College Cardiff Consultants Limited, 2008

                                    Version 2010.1 linked May 16 2016 07:17:05


 **********************************************************************************************************************************
 LABEL *   Optimization of h2o_2                                                         
 Linux-4.4.3/n076(x86_64) 64 bit mpp version                                             DATE: 18-Jul-23          TIME: 11:08:56  
 **********************************************************************************************************************************

 SHA1:             9e8077add272b0f3cad6f7df79ec5211205f459d
 **********************************************************************************************************************************

 THRESHOLDS:

 ZERO    =  1.00D-12  ONEINT  =  1.00D-16  TWOINT  =  1.00D-16  PREFAC  =  1.00D-14  LOCALI  =  1.00D-09  EORDER  =  1.00D-04
 ENERGY  =  1.00D-12  ETEST   =  0.00D+00  EDENS   =  0.00D+00  THRDEDEF=  1.00D-06  GRADIENT=  1.00D-02  STEP    =  1.00D-03
 ORBITAL =  1.00D-10  CIVEC   =  1.00D-05  COEFF   =  1.00D-04  PRINTCI =  5.00D-02  PUNCHCI =  9.90D+01  OPTGRAD =  1.00D-06
 OPTENERG=  1.00D-06  OPTSTEP =  3.00D-04  THRGRAD =  1.00D-10  COMPRESS=  1.00D-13  VARMIN  =  1.00D-07  VARMAX  =  1.00D-03
 THRDOUB =  0.00D+00  THRDIV  =  1.00D-05  THRRED  =  1.00D-07  THRPSP  =  1.00D+00  THRDC   =  1.00D-10  THRCS   =  1.00D-10
 THRNRM  =  1.00D-08  THREQ   =  0.00D+00  THRDE   =  1.00D+00  THRREF  =  1.00D-05  SPARFAC =  1.00D+00  THRDLP  =  1.00D-07
 THRDIA  =  1.00D-10  THRDLS  =  1.00D-07  THRGPS  =  0.00D+00  THRKEX  =  0.00D+00  THRDIS  =  2.00D-01  THRVAR  =  1.00D-10
 THRLOC  =  1.00D-06  THRGAP  =  1.00D-06  THRLOCT = -1.00D+00  THRGAPT = -1.00D+00  THRORB  =  1.00D-06  THRMLTP =  0.00D+00
 THRCPQCI=  1.00D-10  KEXTA   =  0.00D+00  THRCOARS=  0.00D+00  SYMTOL  =  1.00D-06  GRADTOL =  1.00D-06  THROVL  =  1.00D-08
 THRORTH =  1.00D-08  GRID    =  1.00D-06  GRIDMAX =  1.00D-03  DTMAX   =  0.00D+00

 SETTING GEOMTYP        =    XYZ
 ZUNIT=BOHR
 

 Variable memory set to 1000000000 words,  buffer space   230000 words

 SETTING BASIS          =    AUG-CC-PVDZ,H=CC-PVDZ


 Recomputing integrals since basis changed


 Using spherical harmonics

 Library entry O      S aug-cc-pVDZ          selected for orbital group  1
 Library entry O      P aug-cc-pVDZ          selected for orbital group  1
 Library entry O      D aug-cc-pVDZ          selected for orbital group  1
 Library entry H      S cc-pVDZ              selected for orbital group  2
 Library entry H      P cc-pVDZ              selected for orbital group  2

1PROGRAM * SEWARD (Integral evaluation for generally contracted gaussian basis sets)     Author: Roland Lindh, 1990

 Geometry written to block  1 of record 700


 Point group  C1  



 ATOMIC COORDINATES

 NR  ATOM    CHARGE       X              Y              Z

   1  O       8.00   -2.807510134   -0.204975681    0.000435363
   2  H       1.00   -3.554308008    1.442182295   -0.000826516
   3  H       1.00   -1.012736217    0.106881692   -0.001074101
   4  O       8.00    2.676714293    0.198171154   -0.003592290
   5  H       1.00    3.327924395   -0.699186620   -1.436299195
   6  H       1.00    3.334903677   -0.703119085    1.441356739

 Bond lengths in Bohr (Angstrom)

 1-2  1.808545840  1-3  1.821667015  4-5  1.811622103  4-6  1.825764239
     ( 0.957041240)     ( 0.963984667)     ( 0.958669128)     ( 0.966152824)

 Bond angles

  2-1-3  104.53160046   5-4-6  104.58291930

 NUCLEAR CHARGE:                   20
 NUMBER OF PRIMITIVE AOS:         102
 NUMBER OF SYMMETRY AOS:           98
 NUMBER OF CONTRACTIONS:           66   (  66A   )
 NUMBER OF CORE ORBITALS:           2   (   2A   )
 NUMBER OF VALENCE ORBITALS:       12   (  12A   )


 NUCLEAR REPULSION ENERGY   36.60574940


 Eigenvalues of metric

         1 0.609E-02 0.778E-02 0.120E-01 0.129E-01 0.165E-01 0.165E-01 0.207E-01 0.284E-01


 Contracted 2-electron integrals neglected if value below      1.0D-16
 AO integral compression algorithm  1   Integral accuracy      1.0D-16

     22.282 MB (compressed) written to integral file ( 87.7%)

     Node minimum: 22.282 MB, node maximum: 22.282 MB


 NUMBER OF SORTED TWO-ELECTRON INTEGRALS:    2445366.     BUFFER LENGTH:  32768
 NUMBER OF SEGMENTS:   1  SEGMENT LENGTH:    2445366      RECORD LENGTH: 524288

 Memory used in sort:       3.00 MW

 SORT1 READ     3139200. AND WROTE     2377520. INTEGRALS IN      7 RECORDS. CPU TIME:     0.03 SEC, REAL TIME:     0.04 SEC
 SORT2 READ     2377520. AND WROTE     2445366. INTEGRALS IN     85 RECORDS. CPU TIME:     0.04 SEC, REAL TIME:     0.05 SEC

 FILE SIZES:   FILE 1:    20.3 MBYTE,  FILE 4:    29.4 MBYTE,   TOTAL:     49.7 MBYTE

 OPERATOR DM      FOR CENTER  0  COORDINATES:    0.000000    0.000000    0.000000


 **********************************************************************************************************************************
 DATASETS  * FILE   NREC   LENGTH (MB)   RECORD NAMES
              1      19       20.33       500      610      700      900      950      970     1000      129      960     1100   
                                          VAR    BASINP    GEOM    SYMINP    ZMAT    AOBASIS   BASIS     P2S    ABASIS      S 
                                         1400     1410     1200     1210     1080     1600     1650     1300     1700   
                                           T        V       H0       H01     AOSYM     SMH    MOLCAS    ERIS     OPER   

 PROGRAMS   *        TOTAL       INT
 CPU TIMES  *         0.28      0.24
 REAL TIME  *         0.51 SEC
 DISK USED  *        72.58 MB      
 GA USED    *         0.00 MB       (max)       0.00 MB       (current)
 **********************************************************************************************************************************

1PROGRAM * RHF-SCF (CLOSED SHELL)       Authors: W. Meyer, H.-J. Werner


 NUMBER OF ELECTRONS:      10+   10-    SPACE SYMMETRY=1    SPIN SYMMETRY: Singlet 
 CONVERGENCE THRESHOLDS:    1.00E-10 (Density)    1.00E-13 (Energy)
 MAX. NUMBER OF ITERATIONS:      200
 INTERPOLATION TYPE:            DIIS
 INTERPOLATION STEPS:              2 (START)      1 (STEP)
 LEVEL SHIFTS:                  0.00 (CLOSED)  0.00 (OPEN) 



 Orbital guess generated from atomic densities. Full valence occupancy:   14

 Molecular orbital dump at record        2100.2

 ITERATION    DDIFF          GRAD             ENERGY        2-EL.EN.            DIPOLE MOMENTS         DIIS
    1      0.000D+00      0.000D+00      -152.02086249    191.374873    1.36882    0.08986    0.00711    0
    2      0.000D+00      0.119D-01      -152.07039718    184.909725    1.02392    0.03189    0.00232    1
    3      0.225D-01      0.665D-02      -152.08715091    187.683735    1.08309    0.05642    0.00290    2
    4      0.766D-02      0.747D-03      -152.08754042    187.461671    1.06949    0.05474    0.00245    3
    5      0.127D-02      0.178D-03      -152.08756963    187.482984    1.06560    0.05572    0.00228    4
    6      0.355D-03      0.358D-04      -152.08757109    187.485360    1.06480    0.05525    0.00224    5
    7      0.863D-04      0.147D-04      -152.08757122    187.484536    1.06460    0.05555    0.00223    6
    8      0.211D-04      0.361D-05      -152.08757124    187.484519    1.06449    0.05550    0.00222    7
    9      0.922D-05      0.518D-06      -152.08757124    187.484524    1.06447    0.05551    0.00222    6
   10      0.123D-05      0.980D-07      -152.08757124    187.484522    1.06447    0.05551    0.00222    6
   11      0.234D-06      0.255D-07      -152.08757124    187.484525    1.06447    0.05551    0.00222    6
   12      0.533D-07      0.738D-08      -152.08757124    187.484523    1.06447    0.05551    0.00222    6
   13      0.184D-07      0.230D-08      -152.08757124    187.484524    1.06447    0.05551    0.00222    6
   14      0.430D-08      0.780D-09      -152.08757124    187.484524    1.06447    0.05551    0.00222    7
   15      0.147D-08      0.208D-09      -152.08757124    187.484524    1.06447    0.05551    0.00222    7
   16      0.391D-09      0.105D-09      -152.08757124    187.484524    1.06447    0.05551    0.00222    7
   17      0.159D-09      0.276D-10      -152.08757124    187.484524    1.06447    0.05551    0.00222    8
   18      0.749D-10      0.300D-11      -152.08757124    187.484524    1.06447    0.05551    0.00222    8
   19      0.555D-11      0.117D-11      -152.08757124    187.484524    1.06447    0.05551    0.00222    7
   20      0.279D-11      0.184D-12      -152.08757124    187.484524    1.06447    0.05551    0.00222    6
   21      0.455D-12      0.402D-13      -152.08757124    187.484524    1.06447    0.05551    0.00222    6
   22      0.129D-12      0.168D-13      -152.08757124    187.484524    1.06447    0.05551    0.00222    0

 Final occupancy:  10

 !RHF STATE 1.1 Energy               -152.087571237493
 Nuclear energy                        36.60574940
 One-electron energy                 -282.43558265
 Two-electron energy                   93.74226201
 Virial quotient                       -1.00157316
 !RHF STATE 1.1 Dipole moment           1.06446616     0.05550744     0.00222327
 Dipole moment /Debye                   2.70542590     0.14107660     0.00565062

 Orbital energies:

         1.1          2.1          3.1          4.1          5.1          6.1          7.1          8.1          9.1         10.1
    -20.602562   -20.545449    -1.381114    -1.325343    -0.741520    -0.695797    -0.614187    -0.559445    -0.529936    -0.480176

        11.1         12.1
      0.112455     0.152746


 **********************************************************************************************************************************
 DATASETS  * FILE   NREC   LENGTH (MB)   RECORD NAMES
              1      19       20.33       500      610      700      900      950      970     1000      129      960     1100   
                                          VAR    BASINP    GEOM    SYMINP    ZMAT    AOBASIS   BASIS     P2S    ABASIS      S 
                                         1400     1410     1200     1210     1080     1600     1650     1300     1700   
                                           T        V       H0       H01     AOSYM     SMH    MOLCAS    ERIS     OPER   

              2       3        0.44       700     1000     2100   
                                         GEOM     BASIS     RHF  

 PROGRAMS   *        TOTAL       RHF       INT
 CPU TIMES  *         0.62      0.34      0.24
 REAL TIME  *         0.91 SEC
 DISK USED  *        72.58 MB      
 GA USED    *         0.00 MB       (max)       0.00 MB       (current)
 **********************************************************************************************************************************


1PROGRAM * CCSD (Closed-shell coupled cluster)     Authors: C. Hampel, H.-J. Werner, 1991, M. Deegan, P.J. Knowles, 1992


 Convergence thresholds:  THRVAR = 1.00D-08  THRDEN = 1.00D-12

 CCSD(T)     terms to be evaluated (factor= 1.000)


 Number of core orbitals:           2 (   2 )
 Number of closed-shell orbitals:   8 (   8 )
 Number of external orbitals:      56 (  56 )

 Molecular orbitals read from record     2100.2  Type=RHF/CANONICAL (state 1.1)

 Number of N-1 electron functions:               8
 Number of N-2 electron functions:              36
 Number of singly external CSFs:               448
 Number of doubly external CSFs:            100576
 Total number of CSFs:                      101025

 Length of J-op  integral file:               0.00 MB
 Length of K-op  integral file:               0.33 MB
 Length of 3-ext integral record:             0.00 MB

 Memory could be reduced to 2.44 Mwords without degradation in triples

 Integral transformation finished. Total CPU:   0.06 sec, npass=  1  Memory used:   1.72 MW

 Reference energy:                   -152.08757124

 MP2 singlet pair energy:              -0.26997532
 MP2 triplet pair energy:              -0.16850415
 MP2 correlation energy:               -0.43847946
 MP2 total energy:                   -152.52605070

 SCS-MP2 correlation energy:           -0.42881741   (PS=  1.200000  PT=  0.333333)
 SCS-MP2 total energy:               -152.51638864

 ITER.      SQ.NORM     CORR.ENERGY   TOTAL ENERGY   ENERGY CHANGE        DEN1      VAR(S)    VAR(P)  DIIS     TIME
   1      1.12042409    -0.45218651  -152.53975775    -0.01370705    -0.00451033  0.23D-02  0.17D-02  1  1     0.16
   2      1.12846663    -0.45351588  -152.54108711    -0.00132936    -0.00866320  0.16D-04  0.26D-03  2  2     0.27
   3      1.13124655    -0.45376804  -152.54133928    -0.00025216    -0.00157868  0.34D-04  0.91D-05  3  3     0.38
   4      1.13212285    -0.45370916  -152.54128040     0.00005888    -0.00038161  0.14D-05  0.86D-06  4  4     0.49
   5      1.13235492    -0.45369744  -152.54126868     0.00001172    -0.00007166  0.19D-06  0.53D-07  5  5     0.60
   6      1.13240166    -0.45369384  -152.54126508     0.00000360    -0.00000651  0.18D-07  0.49D-08  6  6     0.72
   7      1.13241306    -0.45369246  -152.54126369     0.00000139    -0.00000108  0.13D-08  0.89D-09  6  2     0.83
   8      1.13241560    -0.45369244  -152.54126368     0.00000001    -0.00000005  0.15D-09  0.74D-10  6  1     0.94
   9      1.13241613    -0.45369239  -152.54126363     0.00000005     0.00000018  0.12D-10  0.87D-11  6  4     1.05
  10      1.13241640    -0.45369237  -152.54126361     0.00000002    -0.00000004  0.19D-11  0.68D-12  6  3     1.16
  11      1.13241636    -0.45369238  -152.54126362    -0.00000001     0.00000004  0.32D-12  0.96D-13  6  5     1.28
  12      1.13241634    -0.45369238  -152.54126362    -0.00000000     0.00000001  0.60D-13  0.14D-13  6  6     1.39
  13      1.13241632    -0.45369239  -152.54126362    -0.00000000     0.00000001  0.76D-14  0.26D-14  6  1     1.51
  14      1.13241631    -0.45369239  -152.54126362    -0.00000000     0.00000000  0.13D-14  0.34D-15  6  2     1.62
  15      1.13241631    -0.45369239  -152.54126362    -0.00000000     0.00000000  0.25D-15  0.55D-16  6  4     1.74
  16      1.13241631    -0.45369239  -152.54126362    -0.00000000    -0.00000000  0.33D-16  0.11D-16  6  3     1.85
  17      1.13241631    -0.45369239  -152.54126362     0.00000000    -0.00000000  0.28D-17  0.17D-17  6  6     1.97
  18      1.13241631    -0.45369239  -152.54126362    -0.00000000     0.00000000  0.29D-18  0.13D-18  6  5     2.08
  19      1.13241631    -0.45369239  -152.54126362     0.00000000    -0.00000000  0.69D-19  0.22D-19  6  2     2.19
  20      1.13241631    -0.45369239  -152.54126362     0.00000000    -0.00000000  0.11D-19  0.37D-20  6  1     2.30

 Norm of t1 vector:      0.06772632      S-energy:    -0.00000000      T1 diagnostic:  0.01197244
                                                                       D1 diagnostic:  0.02655930


 Total CPU time for triples:      0.74 sec


 RESULTS
 =======

  Reference energy                   -152.087571237493
  CCSD singlet pair energy             -0.304282552895
  CCSD triplet pair energy             -0.149409832970
  CCSD correlation energy              -0.453692385867

  Triples (T) contribution             -0.010242217980
  Total correlation energy             -0.463934603847

  CCSD total energy                  -152.541263623359
  CCSD[T] energy                     -152.552229984720
  CCSD-T energy                      -152.551221197647
 !CCSD(T) total energy               -152.551505841340

 Timing summary (sec):

 STEP                 CPU(USER)    SYS     CPU(TOT)    WALL
 Transformation          0.06      0.01      0.07      0.07
 CCSD iterations         2.24      0.11      2.35      2.38
 Triples                 0.74      0.01      0.75      0.74

 Program statistics:

 Available memory in ccsd:               999999644
 Min. memory needed in ccsd:                333849
 Max. memory used in ccsd:                  413833
 Max. memory used in cckext:                383006 (20 integral passes)



 **********************************************************************************************************************************
 DATASETS  * FILE   NREC   LENGTH (MB)   RECORD NAMES
              1      20       28.03       500      610      700      900      950      970     1000      129      960     1100   
                                          VAR    BASINP    GEOM    SYMINP    ZMAT    AOBASIS   BASIS     P2S    ABASIS      S 
                                         1400     1410     1200     1210     1080     1600     1650     1300     1700     1380   
                                           T        V       H0       H01     AOSYM     SMH    MOLCAS    ERIS     OPER     JKOP   

              2       3        0.44       700     1000     2100   
                                         GEOM     BASIS     RHF  

 PROGRAMS   *        TOTAL   CCSD(T)       RHF       INT
 CPU TIMES  *         3.66      3.04      0.34      0.24
 REAL TIME  *         4.13 SEC
 DISK USED  *        72.58 MB      
 GA USED    *         0.00 MB       (max)       0.00 MB       (current)
 **********************************************************************************************************************************

        CCSD(T)         RHF-SCF 
   -152.55150584   -152.08757124
 **********************************************************************************************************************************
 Variable memory released
