
 Primary working directories    : /tmp/1049102.691.gen6.q
 Secondary working directories  : /tmp/1049102.691.gen6.q
 Wavefunction directory         : /home/vulcan/mel64643/wfu/
 Main file repository           : /tmp/1049102.691.gen6.q/

 ARCHNAME  : Linux/x86_64
 FC        : /opt/intel/compilers_and_libraries_2016.1.150/linux/bin/intel64/ifort
 FCVERSION : 16.0.1
 BLASLIB   : -mkl
 id        : ccgc

 Nodes     nprocs
 n074         1
 ga_uses_ma=false, calling ma_init with nominal heap.
 GA-space will be limited to   8.0 MW (determined by -G option)

 Using customized tuning parameters: mindgm=10; mindgv=16; mindgc=4; mindgr=1; noblas=0; mincuda=1000; minvec=7
 default implementation of scratch files=df  

 ***,Optimization of h2o_3
 memory,1000,m
 gthresh,energy=1.0d-12,orbital=1.0d-10,oneint=1.0d-16,twoint=1.0d-16,optgrad=1.0d-6,compress=1.0d-13
 geomtyp=xyz
 
 
 
 bohr
 geometry = {
  C    0.9152886411    1.4067081920   -2.2722149325
  C    0.7391105134    2.7104027622    0.0193012536
  C    0.9977713192    1.4069893496    2.3033001082
  C    1.4310120941   -1.2001711037    2.2957838774
  C    1.6079174558   -2.5033741143    0.0043099438
  C    1.3493150628   -1.1997370402   -2.2794847712
  H    0.7057095765    2.4159457351   -4.0419997886
  H    0.3895488960    4.7180371138    0.0251405466
  H    0.8559805389    2.4169224484    4.0796356798
  H    1.6288590995   -2.2104719207    4.0667274641
  H    1.9416884453   -4.5243094859   -0.0015516432
  H    1.4846715317   -2.2152190265   -4.0649818318
  N   -5.4428894747   -0.3569375049   -0.0704201105
  H   -5.5913054513   -1.5682879041   -1.5509257250
  H   -6.0694893613   -1.3151943564    1.4691437607
  H   -3.5622570201   -0.0730927423    0.1983138456
 }
 
 basis=aug-cc-pvdz, H=cc-pvdz
 {rhf;maxit,200}
 {ccsd(t)}

 Variables initialized (661), CPU time= 0.00 sec
 Commands  initialized (458), CPU time= 0.00 sec, 486 directives.
 Default parameters read. Elapsed time= 0.04 sec

 Checking input...
 Passed
1


                                         ***  PROGRAM SYSTEM MOLPRO  ***
                         Copyright, University College Cardiff Consultants Limited, 2008

                                    Version 2010.1 linked May 16 2016 07:17:05


 **********************************************************************************************************************************
 LABEL *   Optimization of h2o_3                                                         
 Linux-4.4.3/n074(x86_64) 64 bit mpp version                                             DATE: 19-Mar-24          TIME: 17:23:52  
 **********************************************************************************************************************************

 SHA1:             9e8077add272b0f3cad6f7df79ec5211205f459d
 **********************************************************************************************************************************

 THRESHOLDS:

 ZERO    =  1.00D-12  ONEINT  =  1.00D-16  TWOINT  =  1.00D-16  PREFAC  =  1.00D-14  LOCALI  =  1.00D-09  EORDER  =  1.00D-04
 ENERGY  =  1.00D-12  ETEST   =  0.00D+00  EDENS   =  0.00D+00  THRDEDEF=  1.00D-06  GRADIENT=  1.00D-02  STEP    =  1.00D-03
 ORBITAL =  1.00D-10  CIVEC   =  1.00D-05  COEFF   =  1.00D-04  PRINTCI =  5.00D-02  PUNCHCI =  9.90D+01  OPTGRAD =  1.00D-06
 OPTENERG=  1.00D-06  OPTSTEP =  3.00D-04  THRGRAD =  1.00D-10  COMPRESS=  1.00D-13  VARMIN  =  1.00D-07  VARMAX  =  1.00D-03
 THRDOUB =  0.00D+00  THRDIV  =  1.00D-05  THRRED  =  1.00D-07  THRPSP  =  1.00D+00  THRDC   =  1.00D-10  THRCS   =  1.00D-10
 THRNRM  =  1.00D-08  THREQ   =  0.00D+00  THRDE   =  1.00D+00  THRREF  =  1.00D-05  SPARFAC =  1.00D+00  THRDLP  =  1.00D-07
 THRDIA  =  1.00D-10  THRDLS  =  1.00D-07  THRGPS  =  0.00D+00  THRKEX  =  0.00D+00  THRDIS  =  2.00D-01  THRVAR  =  1.00D-10
 THRLOC  =  1.00D-06  THRGAP  =  1.00D-06  THRLOCT = -1.00D+00  THRGAPT = -1.00D+00  THRORB  =  1.00D-06  THRMLTP =  0.00D+00
 THRCPQCI=  1.00D-10  KEXTA   =  0.00D+00  THRCOARS=  0.00D+00  SYMTOL  =  1.00D-06  GRADTOL =  1.00D-06  THROVL  =  1.00D-08
 THRORTH =  1.00D-08  GRID    =  1.00D-06  GRIDMAX =  1.00D-03  DTMAX   =  0.00D+00

 SETTING GEOMTYP        =    XYZ
 ZUNIT=BOHR
 

 Variable memory set to 1000000000 words,  buffer space   230000 words

 SETTING BASIS          =    AUG-CC-PVDZ,H=CC-PVDZ


 Recomputing integrals since basis changed


 Using spherical harmonics

 Library entry C      S aug-cc-pVDZ          selected for orbital group  1
 Library entry C      P aug-cc-pVDZ          selected for orbital group  1
 Library entry C      D aug-cc-pVDZ          selected for orbital group  1
 Library entry H      S cc-pVDZ              selected for orbital group  2
 Library entry H      P cc-pVDZ              selected for orbital group  2
 Library entry N      S aug-cc-pVDZ          selected for orbital group  3
 Library entry N      P aug-cc-pVDZ          selected for orbital group  3
 Library entry N      D aug-cc-pVDZ          selected for orbital group  3

1PROGRAM * SEWARD (Integral evaluation for generally contracted gaussian basis sets)     Author: Roland Lindh, 1990

 Geometry written to block  1 of record 700


 Point group  C1  



 ATOMIC COORDINATES

 NR  ATOM    CHARGE       X              Y              Z

   1  C       6.00    0.915288641    1.406708192   -2.272214932
   2  C       6.00    0.739110513    2.710402762    0.019301254
   3  C       6.00    0.997771319    1.406989350    2.303300108
   4  C       6.00    1.431012094   -1.200171104    2.295783877
   5  C       6.00    1.607917456   -2.503374114    0.004309944
   6  C       6.00    1.349315063   -1.199737040   -2.279484771
   7  H       1.00    0.705709576    2.415945735   -4.041999789
   8  H       1.00    0.389548896    4.718037114    0.025140547
   9  H       1.00    0.855980539    2.416922448    4.079635680
  10  H       1.00    1.628859100   -2.210471921    4.066727464
  11  H       1.00    1.941688445   -4.524309486   -0.001551643
  12  H       1.00    1.484671532   -2.215219026   -4.064981832
  13  N       7.00   -5.442889475   -0.356937505   -0.070420110
  14  H       1.00   -5.591305451   -1.568287904   -1.550925725
  15  H       1.00   -6.069489361   -1.315194356    1.469143761
  16  H       1.00   -3.562257020   -0.073092742    0.198313846

 Bond lengths in Bohr (Angstrom)

 1-2  2.642291562  1-6  2.642345271  1-7  2.048077694  2-3  2.642431211  2-8  2.037847666
     ( 1.398240474)     ( 1.398268896)     ( 1.083796038)     ( 1.398314373)     ( 1.078382540)

  3- 4  2.642922566   3- 9  2.048276727   4- 5  2.642061010   4-10  2.048436566   5- 6  2.642359385
       ( 1.398574387)       ( 1.083901362)       ( 1.398118471)       ( 1.083985945)       ( 1.398276364)

  5-11  2.048320582   6-12  2.058524907  13-14  1.918669843  13-15  1.918629856  13-16  1.920823838
       ( 1.083924569)       ( 1.089324465)       ( 1.015316352)       ( 1.015295192)       ( 1.016456198)

 Bond angles

  1- 2- 3  119.98067289   1- 2- 8  120.00017328   1- 6- 5  120.02353257   1- 6-12  119.98613454

  2-1-6  120.00199096   2-1-7  119.96358325   2-3-4  120.01167859   2-3-9  119.97429914

  3- 2- 8  120.01747683   3- 4- 5  120.00136324   3- 4-10  119.99378358   4- 3- 9  120.01369054

  4- 5- 6  119.98073380   4- 5-11  120.00333308   5- 4-10  120.00484846   5- 6-12  119.99031835

  6- 1- 7  120.03368589   6- 5-11  120.01581911  14-13-15  106.17607583  14-13-16  106.08043224

 15-13-16  106.33745550

 NUCLEAR CHARGE:                   52
 NUMBER OF PRIMITIVE AOS:         322
 NUMBER OF SYMMETRY AOS:          308
 NUMBER OF CONTRACTIONS:          206   ( 206A   )
 NUMBER OF CORE ORBITALS:           7   (   7A   )
 NUMBER OF VALENCE ORBITALS:       37   (  37A   )


 NUCLEAR REPULSION ENERGY  273.71054990


 Eigenvalues of metric

         1 0.861E-05 0.184E-04 0.228E-04 0.532E-04 0.643E-04 0.644E-04 0.107E-03 0.107E-03


 Contracted 2-electron integrals neglected if value below      1.0D-16
 AO integral compression algorithm  1   Integral accuracy      1.0D-16

     1892.155 MB (compressed) written to integral file ( 94.5%)

     Node minimum: 1892.155 MB, node maximum: 1892.155 MB


 NUMBER OF SORTED TWO-ELECTRON INTEGRALS:  227303181.     BUFFER LENGTH:  32768
 NUMBER OF SEGMENTS:  15  SEGMENT LENGTH:   15999503      RECORD LENGTH: 524288

 Memory used in sort:      16.56 MW

 SORT1 READ   250230346. AND WROTE   226407819. INTEGRALS IN    654 RECORDS. CPU TIME:     2.18 SEC, REAL TIME:     3.58 SEC
 SORT2 READ   226407819. AND WROTE   227303181. INTEGRALS IN   7218 RECORDS. CPU TIME:     1.49 SEC, REAL TIME:     2.34 SEC

 FILE SIZES:   FILE 1:  1743.1 MBYTE,  FILE 4:  2743.1 MBYTE,   TOTAL:   4486.2 MBYTE

 OPERATOR DM      FOR CENTER  0  COORDINATES:    0.000000    0.000000    0.000000


 **********************************************************************************************************************************
 DATASETS  * FILE   NREC   LENGTH (MB)   RECORD NAMES
              1      19     1743.61       500      610      700      900      950      970     1000      129      960     1100   
                                          VAR    BASINP    GEOM    SYMINP    ZMAT    AOBASIS   BASIS     P2S    ABASIS      S 
                                         1400     1410     1200     1210     1080     1600     1650     1300     1700   
                                           T        V       H0       H01     AOSYM     SMH    MOLCAS    ERIS     OPER   

 PROGRAMS   *        TOTAL       INT
 CPU TIMES  *        12.58     12.55
 REAL TIME  *        15.89 SEC
 DISK USED  *         6.38 GB      
 GA USED    *         0.01 MB       (max)       0.00 MB       (current)
 **********************************************************************************************************************************

1PROGRAM * RHF-SCF (CLOSED SHELL)       Authors: W. Meyer, H.-J. Werner


 NUMBER OF ELECTRONS:      26+   26-    SPACE SYMMETRY=1    SPIN SYMMETRY: Singlet 
 CONVERGENCE THRESHOLDS:    1.00E-10 (Density)    1.00E-13 (Energy)
 MAX. NUMBER OF ITERATIONS:      200
 INTERPOLATION TYPE:            DIIS
 INTERPOLATION STEPS:              2 (START)      1 (STEP)
 LEVEL SHIFTS:                  0.00 (CLOSED)  0.00 (OPEN) 



 Orbital guess generated from atomic densities. Full valence occupancy:   44

 Molecular orbital dump at record        2100.2

 ITERATION    DDIFF          GRAD             ENERGY        2-EL.EN.            DIPOLE MOMENTS         DIIS
    1      0.000D+00      0.000D+00      -286.85320115    740.883360    0.52066   -0.77497    0.13212    0
    2      0.000D+00      0.322D-02      -286.92076286    735.092386    0.43472   -0.38098    0.06431    1
    3      0.826D-02      0.133D-02      -286.93009544    737.724272    0.45173   -0.52270    0.09251    2
    4      0.218D-02      0.381D-03      -286.93131398    737.204858    0.45006   -0.49436    0.08567    3
    5      0.783D-03      0.528D-04      -286.93133788    737.193330    0.45595   -0.50490    0.08937    4
    6      0.135D-03      0.179D-04      -286.93134036    737.208281    0.45478   -0.49918    0.08746    5
    7      0.513D-04      0.557D-05      -286.93134064    737.205260    0.45543   -0.50143    0.08814    6
    8      0.151D-04      0.129D-05      -286.93134066    737.204238    0.45559   -0.50108    0.08802    7
    9      0.418D-05      0.542D-06      -286.93134066    737.204697    0.45562   -0.50117    0.08805    7
   10      0.149D-05      0.143D-06      -286.93134066    737.204646    0.45562   -0.50117    0.08805    7
   11      0.517D-06      0.410D-07      -286.93134066    737.204631    0.45563   -0.50117    0.08805    7
   12      0.142D-06      0.174D-07      -286.93134066    737.204645    0.45563   -0.50117    0.08805    8
   13      0.609D-07      0.759D-08      -286.93134066    737.204640    0.45563   -0.50117    0.08805    8
   14      0.336D-07      0.362D-08      -286.93134066    737.204642    0.45563   -0.50117    0.08805    8
   15      0.201D-07      0.138D-08      -286.93134066    737.204641    0.45563   -0.50117    0.08805    8
   16      0.715D-08      0.457D-09      -286.93134066    737.204641    0.45563   -0.50117    0.08805    9
   17      0.213D-08      0.126D-09      -286.93134066    737.204641    0.45563   -0.50117    0.08805    9
   18      0.399D-09      0.380D-10      -286.93134066    737.204641    0.45563   -0.50117    0.08805    8
   19      0.221D-09      0.140D-10      -286.93134066    737.204641    0.45563   -0.50117    0.08805    8
   20      0.296D-09      0.669D-11      -286.93134066    737.204641    0.45563   -0.50117    0.08805    8
   21      0.261D-09      0.359D-11      -286.93134066    737.204641    0.45563   -0.50117    0.08805    9
   22      0.122D-09      0.120D-11      -286.93134066    737.204641    0.45563   -0.50117    0.08805    9
   23      0.104D-09      0.678D-12      -286.93134066    737.204641    0.45563   -0.50117    0.08805    9
   24      0.587D-10      0.643D-12      -286.93134066    737.204641    0.45563   -0.50117    0.08805    9
   25      0.638D-10      0.517D-12      -286.93134066    737.204641    0.45563   -0.50117    0.08805    9
   26      0.315D-10      0.580D-12      -286.93134066    737.204641    0.45563   -0.50117    0.08805    9
   27      0.278D-10      0.773D-12      -286.93134066    737.204641    0.45563   -0.50117    0.08805    0

 Final occupancy:  26

 !RHF STATE 1.1 Energy               -286.931340661060
 Nuclear energy                       273.71054990
 One-electron energy                 -929.24421115
 Two-electron energy                  368.60232059
 Virial quotient                       -1.00146485
 !RHF STATE 1.1 Dipole moment           0.45563108    -0.50117090     0.08804855
 Dipole moment /Debye                   1.15802284    -1.27376593     0.22378244

 Orbital energies:

         1.1          2.1          3.1          4.1          5.1          6.1          7.1          8.1          9.1         10.1
    -15.535007   -11.250783   -11.250233   -11.249580   -11.248813   -11.248713   -11.247519    -1.157505    -1.125561    -1.022137

        11.1         12.1         13.1         14.1         15.1         16.1         17.1         18.1         19.1         20.1
     -1.021874    -0.830861    -0.830323    -0.714505    -0.650463    -0.623923    -0.611682    -0.609820    -0.593824    -0.593211

        21.1         22.1         23.1         24.1         25.1         26.1         27.1         28.1
     -0.504905    -0.500318    -0.499816    -0.413438    -0.342969    -0.342000     0.063904     0.066442


 **********************************************************************************************************************************
 DATASETS  * FILE   NREC   LENGTH (MB)   RECORD NAMES
              1      19     1743.61       500      610      700      900      950      970     1000      129      960     1100   
                                          VAR    BASINP    GEOM    SYMINP    ZMAT    AOBASIS   BASIS     P2S    ABASIS      S 
                                         1400     1410     1200     1210     1080     1600     1650     1300     1700   
                                           T        V       H0       H01     AOSYM     SMH    MOLCAS    ERIS     OPER   

              2       3        1.40       700     1000     2100   
                                         GEOM     BASIS     RHF  

 PROGRAMS   *        TOTAL       RHF       INT
 CPU TIMES  *        53.25     40.67     12.55
 REAL TIME  *        60.87 SEC
 DISK USED  *         6.38 GB      
 GA USED    *         0.01 MB       (max)       0.00 MB       (current)
 **********************************************************************************************************************************


1PROGRAM * CCSD (Closed-shell coupled cluster)     Authors: C. Hampel, H.-J. Werner, 1991, M. Deegan, P.J. Knowles, 1992


 Convergence thresholds:  THRVAR = 1.00D-08  THRDEN = 1.00D-12

 CCSD(T)     terms to be evaluated (factor= 1.000)


 Number of core orbitals:           7 (   7 )
 Number of closed-shell orbitals:  19 (  19 )
 Number of external orbitals:     180 ( 180 )

 Molecular orbitals read from record     2100.2  Type=RHF/CANONICAL (state 1.1)

 Number of N-1 electron functions:              19
 Number of N-2 electron functions:             190
 Number of singly external CSFs:              3420
 Number of doubly external CSFs:           5849910
 Total number of CSFs:                     5853331

 Length of J-op  integral file:               0.00 MB
 Length of K-op  integral file:               2.96 MB
 Length of 3-ext integral record:             0.00 MB

 Memory could be reduced to 140.12 Mwords without degradation in triples

 Integral transformation finished. Total CPU:  10.52 sec, npass=  1  Memory used: 101.90 MW

 Reference energy:                   -286.93134066

 MP2 singlet pair energy:              -0.62063136
 MP2 triplet pair energy:              -0.38983313
 MP2 correlation energy:               -1.01046449
 MP2 total energy:                   -287.94180516

 SCS-MP2 correlation energy:           -0.98732047   (PS=  1.200000  PT=  0.333333)
 SCS-MP2 total energy:               -287.91866113

 ITER.      SQ.NORM     CORR.ENERGY   TOTAL ENERGY   ENERGY CHANGE        DEN1      VAR(S)    VAR(P)  DIIS     TIME
   1      1.38488285    -1.05475705  -287.98609771    -0.04429256    -0.01721389  0.36D-02  0.80D-02  1  1    43.57
   2      1.41439585    -1.06061974  -287.99196040    -0.00586269    -0.02705296  0.63D-04  0.10D-02  2  2    77.00
   3      1.42352704    -1.06071548  -287.99205614    -0.00009574    -0.00464353  0.27D-04  0.84D-04  3  3   110.47
   4      1.42746437    -1.06088423  -287.99222489    -0.00016874    -0.00121416  0.22D-05  0.11D-04  4  4   143.91
   5      1.42867793    -1.06091518  -287.99225584    -0.00003095    -0.00027320  0.27D-06  0.13D-05  5  5   177.41
   6      1.42898049    -1.06090494  -287.99224561     0.00001023    -0.00004348  0.23D-07  0.79D-07  6  6   210.89
   7      1.42902123    -1.06090657  -287.99224724    -0.00000163    -0.00000103  0.35D-08  0.82D-08  6  2   244.41
   8      1.42903042    -1.06090643  -287.99224709     0.00000014    -0.00000117  0.75D-09  0.76D-09  6  1   277.91
   9      1.42903025    -1.06090657  -287.99224723    -0.00000014     0.00000123  0.21D-09  0.92D-10  6  4   311.42
  10      1.42903144    -1.06090658  -287.99224724    -0.00000001    -0.00000018  0.57D-10  0.15D-10  6  3   344.94
  11      1.42903139    -1.06090660  -287.99224726    -0.00000002     0.00000013  0.14D-10  0.37D-11  6  5   378.45
  12      1.42903135    -1.06090660  -287.99224726    -0.00000000     0.00000003  0.15D-11  0.10D-11  6  6   411.94
  13      1.42903117    -1.06090660  -287.99224726    -0.00000000     0.00000006  0.69D-13  0.20D-12  6  2   445.45
  14      1.42903107    -1.06090660  -287.99224726    -0.00000000     0.00000002  0.81D-14  0.40D-13  6  1   478.94
  15      1.42903101    -1.06090660  -287.99224726    -0.00000000     0.00000001  0.89D-15  0.53D-14  6  3   512.42
  16      1.42903099    -1.06090660  -287.99224726    -0.00000000     0.00000000  0.12D-15  0.37D-15  6  4   545.89
  17      1.42903099    -1.06090660  -287.99224726    -0.00000000     0.00000000  0.31D-16  0.44D-16  6  5   579.41
  18      1.42903099    -1.06090660  -287.99224726    -0.00000000     0.00000000  0.82D-17  0.70D-17  6  6   612.90
  19      1.42903099    -1.06090660  -287.99224726    -0.00000000     0.00000000  0.24D-17  0.77D-18  6  2   646.40
  20      1.42903099    -1.06090660  -287.99224726    -0.00000000     0.00000000  0.76D-18  0.18D-18  6  1   679.92
  21      1.42903099    -1.06090660  -287.99224726    -0.00000000     0.00000000  0.29D-18  0.77D-19  6  3   713.41
  22      1.42903099    -1.06090660  -287.99224726    -0.00000000     0.00000000  0.12D-18  0.38D-19  6  4   746.93
  23      1.42903099    -1.06090660  -287.99224726    -0.00000000     0.00000000  0.51D-19  0.21D-19  6  6   780.46

 Norm of t1 vector:      0.08385608      S-energy:    -0.00000000      T1 diagnostic:  0.00961895
                                                                       D1 diagnostic:  0.02619518

 Doubles amplitudes (print threshold =  0.500E-01):

         I         J         SYM. A    SYM. B    A         B      T(IJ, AB)

        18        18         1         1         6         6     -0.05100442
        19        19         1         1         7         7     -0.05447296


 Total CPU time for triples:    680.51 sec


 RESULTS
 =======

  Reference energy                   -286.931340661060
  CCSD singlet pair energy             -0.711155851067
  CCSD triplet pair energy             -0.349750752071
  CCSD correlation energy              -1.060906603138

  Triples (T) contribution             -0.045602718718
  Total correlation energy             -1.106509321856

  CCSD total energy                  -287.992247264198
  CCSD[T] energy                     -288.038720197281
  CCSD-T energy                      -288.037461438598
 !CCSD(T) total energy               -288.037849982916

 Timing summary (sec):

 STEP                 CPU(USER)    SYS     CPU(TOT)    WALL
 Transformation         10.85      0.78     11.63     11.63
 CCSD iterations       769.63     11.40    781.03    782.87
 Triples               680.51     10.58    691.09    691.20

 Program statistics:

 Available memory in ccsd:               999998456
 Min. memory needed in ccsd:              14392275
 Max. memory used in ccsd:                19775697
 Max. memory used in cckext:              16737545 (23 integral passes)



 **********************************************************************************************************************************
 DATASETS  * FILE   NREC   LENGTH (MB)   RECORD NAMES
              1      20     2287.21       500      610      700      900      950      970     1000      129      960     1100   
                                          VAR    BASINP    GEOM    SYMINP    ZMAT    AOBASIS   BASIS     P2S    ABASIS      S 
                                         1400     1410     1200     1210     1080     1600     1650     1300     1700     1380   
                                           T        V       H0       H01     AOSYM     SMH    MOLCAS    ERIS     OPER     JKOP   

              2       3        1.40       700     1000     2100   
                                         GEOM     BASIS     RHF  

 PROGRAMS   *        TOTAL   CCSD(T)       RHF       INT
 CPU TIMES  *      1514.25   1461.00     40.67     12.55
 REAL TIME  *      1546.67 SEC
 DISK USED  *         6.38 GB      
 GA USED    *         0.01 MB       (max)       0.00 MB       (current)
 **********************************************************************************************************************************

        CCSD(T)         RHF-SCF 
   -288.03784998   -286.93134066
 **********************************************************************************************************************************
 Variable memory released
