
 Primary working directories    : /tmp/1049102.983.gen4.q
 Secondary working directories  : /tmp/1049102.983.gen4.q
 Wavefunction directory         : /home/vulcan/mel64643/wfu/
 Main file repository           : /tmp/1049102.983.gen4.q/

 ARCHNAME  : Linux/x86_64
 FC        : /opt/intel/compilers_and_libraries_2016.1.150/linux/bin/intel64/ifort
 FCVERSION : 16.0.1
 BLASLIB   : -mkl
 id        : ccgc

 Nodes     nprocs
 n066         1
 ga_uses_ma=false, calling ma_init with nominal heap.
 GA-space will be limited to   8.0 MW (determined by -G option)

 Using customized tuning parameters: mindgm=10; mindgv=16; mindgc=4; mindgr=1; noblas=0; mincuda=1000; minvec=7
 default implementation of scratch files=df  

 ***,Optimization of h2o_3
 memory,1000,m
 gthresh,energy=1.0d-12,orbital=1.0d-10,oneint=1.0d-16,twoint=1.0d-16,optgrad=1.0d-6,compress=1.0d-13
 geomtyp=xyz
 
 
 
 bohr
 geometry = {
  C    0.9173303180    1.4058056236   -2.2730025470
  C    0.7411313220    2.7094989445    0.0185127552
  C    0.9998571470    1.4060985060    2.3025116598
  C    1.4331837827   -1.2010476814    2.2949964111
  C    1.6101099707   -2.5042493436    0.0035233284
  C    1.3514425783   -1.2006253154   -2.2802714620
  H    0.6994603785    2.4136310340   -4.0425908811
  H    0.3815559033    4.7255221069    0.0245286902
  H    0.8498057817    2.4146377389    4.0789605774
  H    1.6228310123   -2.2126998377    4.0660656393
  H    1.9356956789   -4.5265199758   -0.0021902011
  H    1.4779081894   -2.2125363045   -4.0569247472
  N   -5.4331560990   -0.3540210250   -0.0701219679
  H   -5.5834949377   -1.5674046419   -1.5540609616
  H   -6.0625902831   -1.3137633257    1.4724505788
  H   -3.5601388762   -0.0741161010    0.1976908048
 }
 
 basis=aug-cc-pvdz, H=cc-pvdz
 {rhf;maxit,200}
 {ccsd(t)}

 Variables initialized (661), CPU time= 0.00 sec
 Commands  initialized (458), CPU time= 0.00 sec, 486 directives.
 Default parameters read. Elapsed time= 0.05 sec

 Checking input...
 Passed
1


                                         ***  PROGRAM SYSTEM MOLPRO  ***
                         Copyright, University College Cardiff Consultants Limited, 2008

                                    Version 2010.1 linked May 16 2016 07:17:05


 **********************************************************************************************************************************
 LABEL *   Optimization of h2o_3                                                         
 Linux-4.4.3/n066(x86_64) 64 bit mpp version                                             DATE: 20-Mar-24          TIME: 06:33:07  
 **********************************************************************************************************************************

 SHA1:             9e8077add272b0f3cad6f7df79ec5211205f459d
 **********************************************************************************************************************************

 THRESHOLDS:

 ZERO    =  1.00D-12  ONEINT  =  1.00D-16  TWOINT  =  1.00D-16  PREFAC  =  1.00D-14  LOCALI  =  1.00D-09  EORDER  =  1.00D-04
 ENERGY  =  1.00D-12  ETEST   =  0.00D+00  EDENS   =  0.00D+00  THRDEDEF=  1.00D-06  GRADIENT=  1.00D-02  STEP    =  1.00D-03
 ORBITAL =  1.00D-10  CIVEC   =  1.00D-05  COEFF   =  1.00D-04  PRINTCI =  5.00D-02  PUNCHCI =  9.90D+01  OPTGRAD =  1.00D-06
 OPTENERG=  1.00D-06  OPTSTEP =  3.00D-04  THRGRAD =  1.00D-10  COMPRESS=  1.00D-13  VARMIN  =  1.00D-07  VARMAX  =  1.00D-03
 THRDOUB =  0.00D+00  THRDIV  =  1.00D-05  THRRED  =  1.00D-07  THRPSP  =  1.00D+00  THRDC   =  1.00D-10  THRCS   =  1.00D-10
 THRNRM  =  1.00D-08  THREQ   =  0.00D+00  THRDE   =  1.00D+00  THRREF  =  1.00D-05  SPARFAC =  1.00D+00  THRDLP  =  1.00D-07
 THRDIA  =  1.00D-10  THRDLS  =  1.00D-07  THRGPS  =  0.00D+00  THRKEX  =  0.00D+00  THRDIS  =  2.00D-01  THRVAR  =  1.00D-10
 THRLOC  =  1.00D-06  THRGAP  =  1.00D-06  THRLOCT = -1.00D+00  THRGAPT = -1.00D+00  THRORB  =  1.00D-06  THRMLTP =  0.00D+00
 THRCPQCI=  1.00D-10  KEXTA   =  0.00D+00  THRCOARS=  0.00D+00  SYMTOL  =  1.00D-06  GRADTOL =  1.00D-06  THROVL  =  1.00D-08
 THRORTH =  1.00D-08  GRID    =  1.00D-06  GRIDMAX =  1.00D-03  DTMAX   =  0.00D+00

 SETTING GEOMTYP        =    XYZ
 ZUNIT=BOHR
 

 Variable memory set to 1000000000 words,  buffer space   230000 words

 SETTING BASIS          =    AUG-CC-PVDZ,H=CC-PVDZ


 Recomputing integrals since basis changed


 Using spherical harmonics

 Library entry C      S aug-cc-pVDZ          selected for orbital group  1
 Library entry C      P aug-cc-pVDZ          selected for orbital group  1
 Library entry C      D aug-cc-pVDZ          selected for orbital group  1
 Library entry H      S cc-pVDZ              selected for orbital group  2
 Library entry H      P cc-pVDZ              selected for orbital group  2
 Library entry N      S aug-cc-pVDZ          selected for orbital group  3
 Library entry N      P aug-cc-pVDZ          selected for orbital group  3
 Library entry N      D aug-cc-pVDZ          selected for orbital group  3

1PROGRAM * SEWARD (Integral evaluation for generally contracted gaussian basis sets)     Author: Roland Lindh, 1990

 Geometry written to block  1 of record 700


 Point group  C1  



 ATOMIC COORDINATES

 NR  ATOM    CHARGE       X              Y              Z

   1  C       6.00    0.917330318    1.405805624   -2.273002547
   2  C       6.00    0.741131322    2.709498944    0.018512755
   3  C       6.00    0.999857147    1.406098506    2.302511660
   4  C       6.00    1.433183783   -1.201047681    2.294996411
   5  C       6.00    1.610109971   -2.504249344    0.003523328
   6  C       6.00    1.351442578   -1.200625315   -2.280271462
   7  H       1.00    0.699460378    2.413631034   -4.042590881
   8  H       1.00    0.381555903    4.725522107    0.024528690
   9  H       1.00    0.849805782    2.414637739    4.078960577
  10  H       1.00    1.622831012   -2.212699838    4.066065639
  11  H       1.00    1.935695679   -4.526519976   -0.002190201
  12  H       1.00    1.477908189   -2.212536304   -4.056924747
  13  N       7.00   -5.433156099   -0.354021025   -0.070121968
  14  H       1.00   -5.583494938   -1.567404642   -1.554060962
  15  H       1.00   -6.062590283   -1.313763326    1.472450579
  16  H       1.00   -3.560138876   -0.074116101    0.197690805

 Bond lengths in Bohr (Angstrom)

 1-2  2.642291570  1-6  2.642345271  1-7  2.048077694  2-3  2.642431220  2-8  2.047847666
     ( 1.398240478)     ( 1.398268896)     ( 1.083796038)     ( 1.398314378)     ( 1.083674313)

  3- 4  2.642922567   3- 9  2.048276728   4- 5  2.642061002   4-10  2.048436567   5- 6  2.642359376
       ( 1.398574388)       ( 1.083901362)       ( 1.398118467)       ( 1.083985945)       ( 1.398276360)

  5-11  2.048320582   6-12  2.048524907  13-14  1.922752325  13-15  1.922712339  13-16  1.912658873
       ( 1.083924569)       ( 1.084032693)       ( 1.017476709)       ( 1.017455549)       ( 1.012135484)

 Bond angles

  1- 2- 3  119.98067062   1- 2- 8  119.99893693   1- 6- 5  120.02353163   1- 6-12  119.98576999

  2-1-6  120.00199246   2-1-7  119.96266821   2-3-4  120.01168043   2-3-9  119.97359505

  3- 2- 8  120.01624048   3- 4- 5  120.00136192   3- 4-10  119.99345764   4- 3- 9  120.01298641

  4- 5- 6  119.98073500   4- 5-11  120.00280596   5- 4-10  120.00452248   5- 6-12  119.98995376

  6- 1- 7  120.03277079   6- 5-11  120.01529200  14-13-15  106.17607434  14-13-16  106.08043248

 15-13-16  106.33745584

 NUCLEAR CHARGE:                   52
 NUMBER OF PRIMITIVE AOS:         322
 NUMBER OF SYMMETRY AOS:          308
 NUMBER OF CONTRACTIONS:          206   ( 206A   )
 NUMBER OF CORE ORBITALS:           7   (   7A   )
 NUMBER OF VALENCE ORBITALS:       37   (  37A   )


 NUCLEAR REPULSION ENERGY  273.76400644


 Eigenvalues of metric

         1 0.861E-05 0.184E-04 0.228E-04 0.532E-04 0.643E-04 0.644E-04 0.107E-03 0.108E-03


 Contracted 2-electron integrals neglected if value below      1.0D-16
 AO integral compression algorithm  1   Integral accuracy      1.0D-16

     1892.680 MB (compressed) written to integral file ( 94.5%)

     Node minimum: 1892.680 MB, node maximum: 1892.680 MB


 NUMBER OF SORTED TWO-ELECTRON INTEGRALS:  227303181.     BUFFER LENGTH:  32768
 NUMBER OF SEGMENTS:  15  SEGMENT LENGTH:   15999503      RECORD LENGTH: 524288

 Memory used in sort:      16.56 MW

 SORT1 READ   250231075. AND WROTE   226416416. INTEGRALS IN    654 RECORDS. CPU TIME:     2.43 SEC, REAL TIME:     4.46 SEC
 SORT2 READ   226416416. AND WROTE   227303181. INTEGRALS IN   7220 RECORDS. CPU TIME:     1.49 SEC, REAL TIME:     2.50 SEC

 FILE SIZES:   FILE 1:  1743.6 MBYTE,  FILE 4:  2743.1 MBYTE,   TOTAL:   4486.7 MBYTE

 OPERATOR DM      FOR CENTER  0  COORDINATES:    0.000000    0.000000    0.000000


 **********************************************************************************************************************************
 DATASETS  * FILE   NREC   LENGTH (MB)   RECORD NAMES
              1      19     1744.07       500      610      700      900      950      970     1000      129      960     1100   
                                          VAR    BASINP    GEOM    SYMINP    ZMAT    AOBASIS   BASIS     P2S    ABASIS      S 
                                         1400     1410     1200     1210     1080     1600     1650     1300     1700   
                                           T        V       H0       H01     AOSYM     SMH    MOLCAS    ERIS     OPER   

 PROGRAMS   *        TOTAL       INT
 CPU TIMES  *        14.68     14.64
 REAL TIME  *        18.84 SEC
 DISK USED  *         6.38 GB      
 GA USED    *         0.01 MB       (max)       0.00 MB       (current)
 **********************************************************************************************************************************

1PROGRAM * RHF-SCF (CLOSED SHELL)       Authors: W. Meyer, H.-J. Werner


 NUMBER OF ELECTRONS:      26+   26-    SPACE SYMMETRY=1    SPIN SYMMETRY: Singlet 
 CONVERGENCE THRESHOLDS:    1.00E-10 (Density)    1.00E-13 (Energy)
 MAX. NUMBER OF ITERATIONS:      200
 INTERPOLATION TYPE:            DIIS
 INTERPOLATION STEPS:              2 (START)      1 (STEP)
 LEVEL SHIFTS:                  0.00 (CLOSED)  0.00 (OPEN) 



 Orbital guess generated from atomic densities. Full valence occupancy:   44

 Molecular orbital dump at record        2100.2

 ITERATION    DDIFF          GRAD             ENERGY        2-EL.EN.            DIPOLE MOMENTS         DIIS
    1      0.000D+00      0.000D+00      -286.85318225    741.000910    0.50763   -0.77230    0.13574    0
    2      0.000D+00      0.322D-02      -286.92076039    735.196908    0.42559   -0.38532    0.06251    1
    3      0.827D-02      0.133D-02      -286.93010151    737.833620    0.44205   -0.52485    0.09235    2
    4      0.218D-02      0.381D-03      -286.93132099    737.312493    0.44076   -0.49766    0.08464    3
    5      0.784D-03      0.527D-04      -286.93134488    737.301327    0.44664   -0.50789    0.08858    4
    6      0.135D-03      0.177D-04      -286.93134733    737.316165    0.44549   -0.50231    0.08651    5
    7      0.512D-04      0.556D-05      -286.93134761    737.313111    0.44615   -0.50454    0.08725    6
    8      0.150D-04      0.130D-05      -286.93134763    737.312098    0.44631   -0.50418    0.08711    7
    9      0.419D-05      0.542D-06      -286.93134763    737.312558    0.44634   -0.50427    0.08714    7
   10      0.148D-05      0.143D-06      -286.93134763    737.312506    0.44635   -0.50427    0.08714    7
   11      0.517D-06      0.410D-07      -286.93134763    737.312491    0.44636   -0.50427    0.08714    7
   12      0.142D-06      0.176D-07      -286.93134763    737.312505    0.44635   -0.50427    0.08714    8
   13      0.619D-07      0.775D-08      -286.93134763    737.312500    0.44635   -0.50427    0.08714    8
   14      0.348D-07      0.367D-08      -286.93134763    737.312502    0.44635   -0.50427    0.08714    8
   15      0.205D-07      0.138D-08      -286.93134763    737.312502    0.44635   -0.50427    0.08714    8
   16      0.712D-08      0.457D-09      -286.93134763    737.312502    0.44635   -0.50427    0.08714    9
   17      0.211D-08      0.126D-09      -286.93134763    737.312502    0.44635   -0.50427    0.08714    9
   18      0.394D-09      0.391D-10      -286.93134763    737.312502    0.44635   -0.50427    0.08714    9
   19      0.238D-09      0.160D-10      -286.93134763    737.312502    0.44635   -0.50427    0.08714    9
   20      0.144D-09      0.849D-11      -286.93134763    737.312502    0.44635   -0.50427    0.08714    9
   21      0.116D-09      0.418D-11      -286.93134763    737.312502    0.44635   -0.50427    0.08714    9
   22      0.191D-09      0.134D-11      -286.93134763    737.312502    0.44635   -0.50427    0.08714    9
   23      0.143D-09      0.758D-12      -286.93134763    737.312502    0.44635   -0.50427    0.08714    9
   24      0.764D-10      0.799D-12      -286.93134763    737.312502    0.44635   -0.50427    0.08714    9
   25      0.102D-09      0.699D-12      -286.93134763    737.312502    0.44635   -0.50427    0.08714    9
   26      0.637D-10      0.565D-12      -286.93134763    737.312502    0.44635   -0.50427    0.08714    0

 Final occupancy:  26

 !RHF STATE 1.1 Energy               -286.931347628857
 Nuclear energy                       273.76400644
 One-electron energy                 -929.35160491
 Two-electron energy                  368.65625084
 Virial quotient                       -1.00146487
 !RHF STATE 1.1 Dipole moment           0.44635399    -0.50427404     0.08713962
 Dipole moment /Debye                   1.13444437    -1.28165282     0.22147232

 Orbital energies:

         1.1          2.1          3.1          4.1          5.1          6.1          7.1          8.1          9.1         10.1
    -15.535114   -11.250603   -11.249998   -11.249640   -11.248774   -11.248629   -11.247795    -1.157476    -1.125646    -1.022026

        11.1         12.1         13.1         14.1         15.1         16.1         17.1         18.1         19.1         20.1
     -1.021919    -0.830608    -0.830509    -0.714469    -0.650425    -0.623890    -0.612533    -0.609114    -0.593548    -0.593423

        21.1         22.1         23.1         24.1         25.1         26.1         27.1         28.1
     -0.504908    -0.500071    -0.499993    -0.413548    -0.342945    -0.341949     0.063945     0.066435


 **********************************************************************************************************************************
 DATASETS  * FILE   NREC   LENGTH (MB)   RECORD NAMES
              1      19     1744.07       500      610      700      900      950      970     1000      129      960     1100   
                                          VAR    BASINP    GEOM    SYMINP    ZMAT    AOBASIS   BASIS     P2S    ABASIS      S 
                                         1400     1410     1200     1210     1080     1600     1650     1300     1700   
                                           T        V       H0       H01     AOSYM     SMH    MOLCAS    ERIS     OPER   

              2       3        1.40       700     1000     2100   
                                         GEOM     BASIS     RHF  

 PROGRAMS   *        TOTAL       RHF       INT
 CPU TIMES  *        60.31     45.63     14.64
 REAL TIME  *        69.34 SEC
 DISK USED  *         6.38 GB      
 GA USED    *         0.01 MB       (max)       0.00 MB       (current)
 **********************************************************************************************************************************


1PROGRAM * CCSD (Closed-shell coupled cluster)     Authors: C. Hampel, H.-J. Werner, 1991, M. Deegan, P.J. Knowles, 1992


 Convergence thresholds:  THRVAR = 1.00D-08  THRDEN = 1.00D-12

 CCSD(T)     terms to be evaluated (factor= 1.000)


 Number of core orbitals:           7 (   7 )
 Number of closed-shell orbitals:  19 (  19 )
 Number of external orbitals:     180 ( 180 )

 Molecular orbitals read from record     2100.2  Type=RHF/CANONICAL (state 1.1)

 Number of N-1 electron functions:              19
 Number of N-2 electron functions:             190
 Number of singly external CSFs:              3420
 Number of doubly external CSFs:           5849910
 Total number of CSFs:                     5853331

 Length of J-op  integral file:               0.00 MB
 Length of K-op  integral file:               2.96 MB
 Length of 3-ext integral record:             0.00 MB

 Memory could be reduced to 140.12 Mwords without degradation in triples

 Integral transformation finished. Total CPU:  13.93 sec, npass=  1  Memory used: 101.90 MW

 Reference energy:                   -286.93134763

 MP2 singlet pair energy:              -0.62063639
 MP2 triplet pair energy:              -0.38983430
 MP2 correlation energy:               -1.01047069
 MP2 total energy:                   -287.94181832

 SCS-MP2 correlation energy:           -0.98732723   (PS=  1.200000  PT=  0.333333)
 SCS-MP2 total energy:               -287.91867486

 ITER.      SQ.NORM     CORR.ENERGY   TOTAL ENERGY   ENERGY CHANGE        DEN1      VAR(S)    VAR(P)  DIIS     TIME
   1      1.38488700    -1.05476512  -287.98611275    -0.04429443    -0.01721462  0.36D-02  0.80D-02  1  1    50.89
   2      1.41440180    -1.06062854  -287.99197616    -0.00586341    -0.02705366  0.63D-04  0.10D-02  2  2    88.32
   3      1.42353490    -1.06072446  -287.99207209    -0.00009592    -0.00464449  0.27D-04  0.84D-04  3  3   125.76
   4      1.42747338    -1.06089321  -287.99224084    -0.00016876    -0.00121456  0.22D-05  0.11D-04  4  4   163.22
   5      1.42868722    -1.06092416  -287.99227179    -0.00003095    -0.00027327  0.27D-06  0.13D-05  5  5   200.73
   6      1.42898968    -1.06091393  -287.99226156     0.00001023    -0.00004344  0.23D-07  0.79D-07  6  6   238.24
   7      1.42903039    -1.06091556  -287.99226319    -0.00000163    -0.00000101  0.35D-08  0.82D-08  6  2   275.78
   8      1.42903957    -1.06091542  -287.99226305     0.00000014    -0.00000117  0.75D-09  0.76D-09  6  1   313.26
   9      1.42903940    -1.06091555  -287.99226318    -0.00000014     0.00000123  0.21D-09  0.92D-10  6  4   350.79
  10      1.42904060    -1.06091556  -287.99226319    -0.00000001    -0.00000018  0.57D-10  0.15D-10  6  3   388.33
  11      1.42904055    -1.06091558  -287.99226321    -0.00000002     0.00000013  0.14D-10  0.37D-11  6  5   425.89
  12      1.42904050    -1.06091558  -287.99226321    -0.00000000     0.00000003  0.15D-11  0.10D-11  6  6   463.41
  13      1.42904033    -1.06091559  -287.99226321    -0.00000000     0.00000006  0.69D-13  0.20D-12  6  2   500.92
  14      1.42904023    -1.06091559  -287.99226322    -0.00000000     0.00000002  0.81D-14  0.40D-13  6  1   538.43
  15      1.42904017    -1.06091559  -287.99226322    -0.00000000     0.00000001  0.89D-15  0.53D-14  6  3   575.91
  16      1.42904015    -1.06091559  -287.99226322    -0.00000000     0.00000000  0.12D-15  0.37D-15  6  4   613.44
  17      1.42904014    -1.06091559  -287.99226322    -0.00000000     0.00000000  0.31D-16  0.44D-16  6  5   650.94
  18      1.42904014    -1.06091559  -287.99226322    -0.00000000     0.00000000  0.81D-17  0.70D-17  6  6   688.50
  19      1.42904014    -1.06091559  -287.99226322    -0.00000000     0.00000000  0.23D-17  0.76D-18  6  2   726.02
  20      1.42904014    -1.06091559  -287.99226322    -0.00000000     0.00000000  0.76D-18  0.18D-18  6  1   763.51
  21      1.42904014    -1.06091559  -287.99226322    -0.00000000     0.00000000  0.28D-18  0.73D-19  6  3   801.03
  22      1.42904014    -1.06091559  -287.99226322    -0.00000000     0.00000000  0.12D-18  0.37D-19  6  4   838.56
  23      1.42904014    -1.06091559  -287.99226322    -0.00000000     0.00000000  0.47D-19  0.19D-19  6  6   876.07

 Norm of t1 vector:      0.08386520      S-energy:    -0.00000000      T1 diagnostic:  0.00962000
                                                                       D1 diagnostic:  0.02619558

 Doubles amplitudes (print threshold =  0.500E-01):

         I         J         SYM. A    SYM. B    A         B      T(IJ, AB)

        18        18         1         1         6         6     -0.05075387
        19        19         1         1         7         7     -0.05428067


 Total CPU time for triples:    733.62 sec


 RESULTS
 =======

  Reference energy                   -286.931347628858
  CCSD singlet pair energy             -0.711163701979
  CCSD triplet pair energy             -0.349751885219
  CCSD correlation energy              -1.060915587199

  Triples (T) contribution             -0.045603186070
  Total correlation energy             -1.106518773269

  CCSD total energy                  -287.992263216057
  CCSD[T] energy                     -288.038736686882
  CCSD-T energy                      -288.037477804253
 !CCSD(T) total energy               -288.037866402126

 Timing summary (sec):

 STEP                 CPU(USER)    SYS     CPU(TOT)    WALL
 Transformation         14.34      0.89     15.23     15.22
 CCSD iterations       861.75     12.44    874.19    874.41
 Triples               733.62     11.48    745.10    745.20

 Program statistics:

 Available memory in ccsd:               999998456
 Min. memory needed in ccsd:              14392275
 Max. memory used in ccsd:                19775697
 Max. memory used in cckext:              16737545 (23 integral passes)



 **********************************************************************************************************************************
 DATASETS  * FILE   NREC   LENGTH (MB)   RECORD NAMES
              1      20     2287.67       500      610      700      900      950      970     1000      129      960     1100   
                                          VAR    BASINP    GEOM    SYMINP    ZMAT    AOBASIS   BASIS     P2S    ABASIS      S 
                                         1400     1410     1200     1210     1080     1600     1650     1300     1700     1380   
                                           T        V       H0       H01     AOSYM     SMH    MOLCAS    ERIS     OPER     JKOP   

              2       3        1.40       700     1000     2100   
                                         GEOM     BASIS     RHF  

 PROGRAMS   *        TOTAL   CCSD(T)       RHF       INT
 CPU TIMES  *      1670.03   1609.72     45.63     14.64
 REAL TIME  *      1704.29 SEC
 DISK USED  *         6.38 GB      
 GA USED    *         0.01 MB       (max)       0.00 MB       (current)
 **********************************************************************************************************************************

        CCSD(T)         RHF-SCF 
   -288.03786640   -286.93134763
 **********************************************************************************************************************************
 Variable memory released
