
 Primary working directories    : /tmp/1059987.1297.gen4.q
 Secondary working directories  : /tmp/1059987.1297.gen4.q
 Wavefunction directory         : /home/vulcan/jj04645/wfu/
 Main file repository           : /tmp/1059987.1297.gen4.q/

 ARCHNAME  : Linux/x86_64
 FC        : /opt/intel/compilers_and_libraries_2016.1.150/linux/bin/intel64/ifort
 FCVERSION : 16.0.1
 BLASLIB   : -mkl
 id        : ccgc

 Nodes     nprocs
 n065         1
 ga_uses_ma=false, calling ma_init with nominal heap.
 GA-space will be limited to   8.0 MW (determined by -G option)

 Using customized tuning parameters: mindgm=10; mindgv=16; mindgc=4; mindgr=1; noblas=0; mincuda=1000; minvec=7
 default implementation of scratch files=df  

 ***,Optimization of 1_4_cyclohexadiene
 memory,1000,m
 gthresh,energy=1.0d-12,orbital=1.0d-10,oneint=1.0d-16,twoint=1.0d-16,optgrad=1.0d-6,compress=1.0d-13
 geomtyp=xyz
 
 bohr
 geometry = {
  H    4.0951870277    0.0000052280   -1.6551985707
  C    2.8410724209    0.0000036270   -0.0036647132
  C   -1.2651144170    2.3673516348    0.0028946255
  C   -1.2651083726   -2.3673548649    0.0028946255
  C   -2.8410724209   -0.0000036270   -0.0036647132
  C    1.2651144170   -2.3673516348    0.0028946255
  C    1.2651083726    2.3673548649    0.0028946255
  H   -2.2684217779    4.1561062677   -0.0024038089
  H    2.2684111663    4.1560552340    0.0181052855
  H   -4.0951870277   -0.0000052280   -1.6551985707
  H    2.2684217779   -4.1561062677   -0.0024038089
  H   -2.2684111663   -4.1560552340    0.0181052855
  H    4.1088911029    0.0000052455    1.6373725562
  H   -4.1088911029   -0.0000052455    1.6373725562
 }
 
 basis=VDZ
 {rhf;maxit,200}
 {ccsd(t);maxit,200}

 Variables initialized (661), CPU time= 0.01 sec
 Commands  initialized (458), CPU time= 0.00 sec, 486 directives.
 Default parameters read. Elapsed time= 0.05 sec

 Checking input...
 Passed
1


                                         ***  PROGRAM SYSTEM MOLPRO  ***
                         Copyright, University College Cardiff Consultants Limited, 2008

                                    Version 2010.1 linked May 16 2016 07:17:05


 **********************************************************************************************************************************
 LABEL *   Optimization of 1_4_cyclohexadiene                                            
 Linux-4.4.3/n065(x86_64) 64 bit mpp version                                             DATE: 06-May-24          TIME: 17:02:37  
 **********************************************************************************************************************************

 SHA1:             9e8077add272b0f3cad6f7df79ec5211205f459d
 **********************************************************************************************************************************

 THRESHOLDS:

 ZERO    =  1.00D-12  ONEINT  =  1.00D-16  TWOINT  =  1.00D-16  PREFAC  =  1.00D-14  LOCALI  =  1.00D-09  EORDER  =  1.00D-04
 ENERGY  =  1.00D-12  ETEST   =  0.00D+00  EDENS   =  0.00D+00  THRDEDEF=  1.00D-06  GRADIENT=  1.00D-02  STEP    =  1.00D-03
 ORBITAL =  1.00D-10  CIVEC   =  1.00D-05  COEFF   =  1.00D-04  PRINTCI =  5.00D-02  PUNCHCI =  9.90D+01  OPTGRAD =  1.00D-06
 OPTENERG=  1.00D-06  OPTSTEP =  3.00D-04  THRGRAD =  1.00D-10  COMPRESS=  1.00D-13  VARMIN  =  1.00D-07  VARMAX  =  1.00D-03
 THRDOUB =  0.00D+00  THRDIV  =  1.00D-05  THRRED  =  1.00D-07  THRPSP  =  1.00D+00  THRDC   =  1.00D-10  THRCS   =  1.00D-10
 THRNRM  =  1.00D-08  THREQ   =  0.00D+00  THRDE   =  1.00D+00  THRREF  =  1.00D-05  SPARFAC =  1.00D+00  THRDLP  =  1.00D-07
 THRDIA  =  1.00D-10  THRDLS  =  1.00D-07  THRGPS  =  0.00D+00  THRKEX  =  0.00D+00  THRDIS  =  2.00D-01  THRVAR  =  1.00D-10
 THRLOC  =  1.00D-06  THRGAP  =  1.00D-06  THRLOCT = -1.00D+00  THRGAPT = -1.00D+00  THRORB  =  1.00D-06  THRMLTP =  0.00D+00
 THRCPQCI=  1.00D-10  KEXTA   =  0.00D+00  THRCOARS=  0.00D+00  SYMTOL  =  1.00D-06  GRADTOL =  1.00D-06  THROVL  =  1.00D-08
 THRORTH =  1.00D-08  GRID    =  1.00D-06  GRIDMAX =  1.00D-03  DTMAX   =  0.00D+00

 SETTING GEOMTYP        =    XYZ
 ZUNIT=BOHR
 

 Variable memory set to 1000000000 words,  buffer space   230000 words

 SETTING BASIS          =    VDZ


 Recomputing integrals since basis changed


 Using spherical harmonics

 Library entry H      S cc-pVDZ              selected for orbital group  1
 Library entry H      P cc-pVDZ              selected for orbital group  1
 Library entry C      S cc-pVDZ              selected for orbital group  2
 Library entry C      P cc-pVDZ              selected for orbital group  2
 Library entry C      D cc-pVDZ              selected for orbital group  2

1PROGRAM * SEWARD (Integral evaluation for generally contracted gaussian basis sets)     Author: Roland Lindh, 1990

 Geometry written to block  1 of record 700


 Point group  C2  



 ATOMIC COORDINATES

 NR  ATOM    CHARGE       X              Y              Z

   1  H       1.00    4.095187028    0.000005228   -1.655198571
   2  H       1.00   -4.095187028   -0.000005228   -1.655198571
   3  C       6.00    2.841072421    0.000003627   -0.003664713
   4  C       6.00   -2.841072421   -0.000003627   -0.003664713
   5  C       6.00   -1.265114417    2.367351635    0.002894625
   6  C       6.00    1.265114417   -2.367351635    0.002894625
   7  C       6.00   -1.265108373   -2.367354865    0.002894625
   8  C       6.00    1.265108373    2.367354865    0.002894625
   9  H       1.00   -2.268421778    4.156106268   -0.002403809
  10  H       1.00    2.268421778   -4.156106268   -0.002403809
  11  H       1.00    2.268411166    4.156055234    0.018105285
  12  H       1.00   -2.268411166   -4.156055234    0.018105285
  13  H       1.00    4.108891103    0.000005246    1.637372556
  14  H       1.00   -4.108891103   -0.000005246    1.637372556

 Bond lengths in Bohr (Angstrom)

  1- 3  2.073732753   2- 4  2.073732753   3- 6  2.843951053   3- 8  2.843951053   3-13  2.073732753
       ( 1.097372110)       ( 1.097372110)       ( 1.504954081)       ( 1.504954081)       ( 1.097372110)

  4- 5  2.843951053   4- 7  2.843951053   4-14  2.073732753   5- 8  2.530222790   5- 9  2.050925857
       ( 1.504954081)       ( 1.504954081)       ( 1.097372110)       ( 1.338936234)       ( 1.085303221)

  6- 7  2.530222790   6-10  2.050925857   7-12  2.050925857   8-11  2.050925857
       ( 1.338936234)       ( 1.085303221)       ( 1.085303221)       ( 1.085303221)

 Bond angles

  1- 3- 6  109.69192644   1- 3- 8  109.69192644   1- 3-13  105.09963504   2- 4- 5  109.69192644

  2- 4- 7  109.69192644   2- 4-14  105.09963504   3- 6- 7  123.65183911   3- 6-10  117.05963136

  3- 8- 5  123.65183911   3- 8-11  117.05963136   4- 5- 8  123.65183911   4- 5- 9  117.05963136

  4- 7- 6  123.65183911   4- 7-12  117.05963136   5- 4- 7  112.69566103   5- 4-14  109.69192643

  5- 8-11  119.28776194   6- 3- 8  112.69566103   6- 3-13  109.69192643   6- 7-12  119.28776194

  7- 4-14  109.69192643   7- 6-10  119.28776195   8- 3-13  109.69192643   8- 5- 9  119.28776195

 NUCLEAR CHARGE:                   44
 NUMBER OF PRIMITIVE AOS:         218
 NUMBER OF SYMMETRY AOS:          212
 NUMBER OF CONTRACTIONS:          124   (  62A   +  62B   )
 NUMBER OF CORE ORBITALS:           6   (   3A   +   3B   )
 NUMBER OF VALENCE ORBITALS:       32   (  16A   +  16B   )


 NUCLEAR REPULSION ENERGY  217.75807465


 Eigenvalues of metric

         1 0.169E-02 0.345E-02 0.432E-02 0.143E-01 0.182E-01 0.273E-01 0.312E-01 0.356E-01
         2 0.670E-03 0.315E-02 0.562E-02 0.163E-01 0.227E-01 0.257E-01 0.259E-01 0.320E-01


 Contracted 2-electron integrals neglected if value below      1.0D-16
 AO integral compression algorithm  1   Integral accuracy      1.0D-16

     142.082 MB (compressed) written to integral file ( 97.9%)

     Node minimum: 142.082 MB, node maximum: 142.082 MB


 NUMBER OF SORTED TWO-ELECTRON INTEGRALS:   15258789.     BUFFER LENGTH:  32768
 NUMBER OF SEGMENTS:   1  SEGMENT LENGTH:   15258789      RECORD LENGTH: 524288

 Memory used in sort:      15.82 MW

 SORT1 READ    18181080. AND WROTE    14921699. INTEGRALS IN     43 RECORDS. CPU TIME:     0.17 SEC, REAL TIME:     0.27 SEC
 SORT2 READ    14921699. AND WROTE    15258789. INTEGRALS IN    542 RECORDS. CPU TIME:     0.17 SEC, REAL TIME:     0.24 SEC

 FILE SIZES:   FILE 1:   124.2 MBYTE,  FILE 4:   180.4 MBYTE,   TOTAL:    304.6 MBYTE

 OPERATOR DM      FOR CENTER  0  COORDINATES:    0.000000    0.000000    0.000000


 **********************************************************************************************************************************
 DATASETS  * FILE   NREC   LENGTH (MB)   RECORD NAMES
              1      19      124.31       500      610      700      900      950      970     1000      129      960     1100   
                                          VAR    BASINP    GEOM    SYMINP    ZMAT    AOBASIS   BASIS     P2S    ABASIS      S 
                                         1400     1410     1200     1210     1080     1600     1650     1300     1700   
                                           T        V       H0       H01     AOSYM     SMH    MOLCAS    ERIS     OPER   

 PROGRAMS   *        TOTAL       INT
 CPU TIMES  *         2.60      2.55
 REAL TIME  *         3.01 SEC
 DISK USED  *       447.62 MB      
 GA USED    *         0.00 MB       (max)       0.00 MB       (current)
 **********************************************************************************************************************************

1PROGRAM * RHF-SCF (CLOSED SHELL)       Authors: W. Meyer, H.-J. Werner


 NUMBER OF ELECTRONS:      22+   22-
 CONVERGENCE THRESHOLDS:    1.00E-10 (Density)    1.00E-13 (Energy)
 MAX. NUMBER OF ITERATIONS:      200
 INTERPOLATION TYPE:            DIIS
 INTERPOLATION STEPS:              2 (START)      1 (STEP)
 LEVEL SHIFTS:                  0.00 (CLOSED)  0.00 (OPEN) 



 Orbital guess generated from atomic densities. Full valence occupancy:   19  19

 Molecular orbital dump at record        2100.2

 Initial alpha occupancy:  11  11
 Initial beta  occupancy:  11  11
 Wave function symmetry:    1

 ITERATION    DDIFF          GRAD             ENERGY        2-EL.EN.            DIPOLE MOMENTS         DIIS
    1      0.000D+00      0.000D+00      -231.78151315    590.482299    0.00000    0.00000   -0.00226    0
    2      0.000D+00      0.638D-02      -231.84386525    585.626280    0.00000    0.00000   -0.00079    1
    3      0.127D-01      0.251D-02      -231.85141921    587.950990    0.00000    0.00000   -0.00101    2
    4      0.475D-02      0.854D-03      -231.85266222    587.340537    0.00000    0.00000   -0.00088    3
    5      0.175D-02      0.870D-04      -231.85268056    587.345646    0.00000    0.00000   -0.00087    4
    6      0.324D-03      0.186D-04      -231.85268115    587.342539    0.00000    0.00000   -0.00087    5
    7      0.451D-04      0.618D-05      -231.85268121    587.343584    0.00000    0.00000   -0.00087    6
    8      0.176D-04      0.121D-05      -231.85268122    587.343468    0.00000    0.00000   -0.00087    7
    9      0.416D-05      0.247D-06      -231.85268122    587.343506    0.00000    0.00000   -0.00087    6
   10      0.926D-06      0.516D-07      -231.85268122    587.343499    0.00000    0.00000   -0.00087    6
   11      0.196D-06      0.790D-08      -231.85268122    587.343502    0.00000    0.00000   -0.00087    6
   12      0.225D-07      0.222D-08      -231.85268122    587.343500    0.00000    0.00000   -0.00087    6
   13      0.638D-08      0.871D-09      -231.85268122    587.343501    0.00000    0.00000   -0.00087    6
   14      0.193D-08      0.330D-09      -231.85268122    587.343501    0.00000    0.00000   -0.00087    7
   15      0.949D-09      0.918D-10      -231.85268122    587.343501    0.00000    0.00000   -0.00087    7
   16      0.241D-09      0.347D-10      -231.85268122    587.343501    0.00000    0.00000   -0.00087    7
   17      0.841D-10      0.870D-11      -231.85268122    587.343501    0.00000    0.00000   -0.00087    7
   18      0.265D-10      0.153D-11      -231.85268122    587.343501    0.00000    0.00000   -0.00087    8
   19      0.574D-11      0.319D-12      -231.85268122    587.343501    0.00000    0.00000   -0.00087    0

 Final occupancy:  11  11

 !RHF STATE 1.1 Energy               -231.852681217524
 Nuclear energy                       217.75807465
 One-electron energy                 -743.28250630
 Two-electron energy                  293.67175043
 Virial quotient                       -1.00115583
 !RHF STATE 1.1 Dipole moment           0.00000000     0.00000000    -0.00087366
 Dipole moment /Debye                   0.00000000     0.00000000    -0.00222048

 Orbital energies:

         1.1          2.1          3.1          4.1          5.1          6.1          7.1          8.1          9.1         10.1
    -11.233778   -11.229228   -11.227660    -1.122177    -0.861947    -0.784627    -0.678371    -0.595264    -0.490811    -0.445804

        11.1         12.1         13.1
     -0.329767     0.174478     0.180780

         1.2          2.2          3.2          4.2          5.2          6.2          7.2          8.2          9.2         10.2
    -11.233778   -11.229289   -11.227626    -1.008408    -1.004919    -0.654609    -0.597608    -0.561788    -0.561453    -0.531809

        11.2         12.2         13.2
     -0.358784     0.193445     0.217556


 **********************************************************************************************************************************
 DATASETS  * FILE   NREC   LENGTH (MB)   RECORD NAMES
              1      19      124.31       500      610      700      900      950      970     1000      129      960     1100   
                                          VAR    BASINP    GEOM    SYMINP    ZMAT    AOBASIS   BASIS     P2S    ABASIS      S 
                                         1400     1410     1200     1210     1080     1600     1650     1300     1700   
                                           T        V       H0       H01     AOSYM     SMH    MOLCAS    ERIS     OPER   

              2       3        0.65       700     1000     2100   
                                         GEOM     BASIS     RHF  

 PROGRAMS   *        TOTAL       RHF       INT
 CPU TIMES  *         3.89      1.28      2.55
 REAL TIME  *         4.58 SEC
 DISK USED  *       447.62 MB      
 GA USED    *         0.00 MB       (max)       0.00 MB       (current)
 **********************************************************************************************************************************


1PROGRAM * CCSD (Closed-shell coupled cluster)     Authors: C. Hampel, H.-J. Werner, 1991, M. Deegan, P.J. Knowles, 1992


 Convergence thresholds:  THRVAR = 1.00D-08  THRDEN = 1.00D-12

 CCSD(T)     terms to be evaluated (factor= 1.000)


 Number of core orbitals:           6 (   3   3 )
 Number of closed-shell orbitals:  16 (   8   8 )
 Number of external orbitals:     102 (  51  51 )

 Molecular orbitals read from record     2100.2  Type=RHF/CANONICAL (state 1.1)

 Number of N-1 electron functions:              16
 Number of N-2 electron functions:             136
 Number of singly external CSFs:               816
 Number of doubly external CSFs:            666672
 Total number of CSFs:                      667489

 Length of J-op  integral file:               0.00 MB
 Length of K-op  integral file:               0.57 MB
 Length of 3-ext integral record:             0.00 MB

 Memory could be reduced to 11.72 Mwords without degradation in triples

 Integral transformation finished. Total CPU:   0.67 sec, npass=  1  Memory used:   7.35 MW

 Reference energy:                   -231.85268122

 MP2 singlet pair energy:              -0.50639776
 MP2 triplet pair energy:              -0.29378179
 MP2 correlation energy:               -0.80017955
 MP2 total energy:                   -232.65286077

 SCS-MP2 correlation energy:           -0.79047487   (PS=  1.200000  PT=  0.333333)
 SCS-MP2 total energy:               -232.64315609

 ITER.      SQ.NORM     CORR.ENERGY   TOTAL ENERGY   ENERGY CHANGE        DEN1      VAR(S)    VAR(P)  DIIS     TIME
   1      1.31822416    -0.85463322  -232.70731444    -0.05445367    -0.03136134  0.31D-02  0.54D-02  1  1     1.69
   2      1.34642415    -0.86045995  -232.71314117    -0.00582673    -0.02420819  0.68D-04  0.70D-03  2  2     2.79
   3      1.35481458    -0.86077220  -232.71345342    -0.00031225    -0.00386870  0.20D-04  0.69D-04  3  3     3.89
   4      1.35836187    -0.86089314  -232.71357436    -0.00012094    -0.00107898  0.10D-05  0.67D-05  4  4     5.00
   5      1.35919491    -0.86090506  -232.71358628    -0.00001192    -0.00017692  0.50D-07  0.65D-06  5  5     6.09
   6      1.35935130    -0.86089742  -232.71357864     0.00000764    -0.00002547  0.49D-08  0.36D-07  6  6     7.20
   7      1.35936658    -0.86089809  -232.71357931    -0.00000067     0.00000114  0.17D-08  0.32D-08  6  2     8.31
   8      1.35937125    -0.86089796  -232.71357917     0.00000014    -0.00000095  0.56D-10  0.35D-09  6  1     9.40
   9      1.35937130    -0.86089803  -232.71357924    -0.00000007     0.00000044  0.18D-10  0.52D-10  6  3    10.50
  10      1.35937123    -0.86089806  -232.71357928    -0.00000004     0.00000016  0.80D-12  0.82D-11  6  4    11.61
  11      1.35937067    -0.86089809  -232.71357931    -0.00000003     0.00000022  0.85D-13  0.11D-11  6  6    12.70
  12      1.35937056    -0.86089810  -232.71357932    -0.00000001     0.00000005  0.20D-13  0.98D-13  6  5    13.79
  13      1.35937056    -0.86089810  -232.71357932     0.00000000    -0.00000000  0.76D-14  0.15D-13  6  2    14.90
  14      1.35937058    -0.86089810  -232.71357932     0.00000000    -0.00000001  0.55D-15  0.13D-14  6  1    15.99
  15      1.35937058    -0.86089810  -232.71357932     0.00000000    -0.00000000  0.17D-15  0.15D-15  6  3    17.09
  16      1.35937059    -0.86089810  -232.71357932     0.00000000    -0.00000000  0.19D-16  0.24D-16  6  4    18.18
  17      1.35937058    -0.86089810  -232.71357932    -0.00000000     0.00000000  0.35D-17  0.38D-17  6  6    19.28
  18      1.35937058    -0.86089810  -232.71357932    -0.00000000     0.00000000  0.23D-18  0.65D-18  6  5    20.38
  19      1.35937058    -0.86089810  -232.71357932     0.00000000     0.00000000  0.29D-19  0.15D-18  6  2    21.47
  20      1.35937058    -0.86089810  -232.71357932     0.00000000    -0.00000000  0.70D-21  0.26D-19  6  1    22.56
  21      1.35937058    -0.86089810  -232.71357932     0.00000000    -0.00000000  0.15D-21  0.18D-20  6  4    23.66
  22      1.35937058    -0.86089810  -232.71357932     0.00000000    -0.00000000  0.17D-22  0.86D-22  6  3    24.76

 Norm of t1 vector:      0.07885083      S-energy:    -0.00000000      T1 diagnostic:  0.00985635
                                                                       D1 diagnostic:  0.02884855

 Doubles amplitudes (print threshold =  0.500E-01):

         I         J         SYM. A    SYM. B    A         B      T(IJ, AB)

         8         8         2         2         1         1     -0.05813852
        16        16         1         1         1         1     -0.07466410
        16         8         1         2         1         1     -0.06105492


 Total CPU time for triples:     20.02 sec


 RESULTS
 =======

  Reference energy                   -231.852681217524
  CCSD singlet pair energy             -0.593574675839
  CCSD triplet pair energy             -0.267323424154
  CCSD correlation energy              -0.860898099993

  Triples (T) contribution             -0.032225574256
  Total correlation energy             -0.893123674250

  CCSD total energy                  -232.713579317518
  CCSD[T] energy                     -232.746538208280
  CCSD-T energy                      -232.745486101380
 !CCSD(T) total energy               -232.745804891774

 Timing summary (sec):

 STEP                 CPU(USER)    SYS     CPU(TOT)    WALL
 Transformation          0.69      0.07      0.76      0.76
 CCSD iterations        24.08      1.05     25.13     25.17
 Triples                20.02      0.64     20.66     20.67

 Program statistics:

 Available memory in ccsd:               999998876
 Min. memory needed in ccsd:               1756075
 Max. memory used in ccsd:                 2339371
 Max. memory used in cckext:               2447048 (22 integral passes)



 **********************************************************************************************************************************
 DATASETS  * FILE   NREC   LENGTH (MB)   RECORD NAMES
              1      20      171.48       500      610      700      900      950      970     1000      129      960     1100   
                                          VAR    BASINP    GEOM    SYMINP    ZMAT    AOBASIS   BASIS     P2S    ABASIS      S 
                                         1400     1410     1200     1210     1080     1600     1650     1300     1700     1380   
                                           T        V       H0       H01     AOSYM     SMH    MOLCAS    ERIS     OPER     JKOP   

              2       3        0.65       700     1000     2100   
                                         GEOM     BASIS     RHF  

 PROGRAMS   *        TOTAL   CCSD(T)       RHF       INT
 CPU TIMES  *        48.69     44.80      1.28      2.55
 REAL TIME  *        51.22 SEC
 DISK USED  *       447.62 MB      
 GA USED    *         0.00 MB       (max)       0.00 MB       (current)
 **********************************************************************************************************************************

        CCSD(T)         RHF-SCF 
   -232.74580489   -231.85268122
 **********************************************************************************************************************************
 Variable memory released
