
 Primary working directories    : /tmp/1221498.9.gen6.q
 Secondary working directories  : /tmp/1221498.9.gen6.q
 Wavefunction directory         : /home/vulcan/mel64643/wfu/
 Main file repository           : /tmp/1221498.9.gen6.q/

 ARCHNAME  : Linux/x86_64
 FC        : /opt/intel/compilers_and_libraries_2016.1.150/linux/bin/intel64/ifort
 FCVERSION : 16.0.1
 BLASLIB   : -mkl
 id        : ccgc

 Nodes     nprocs
 n081         1
 ga_uses_ma=false, calling ma_init with nominal heap.
 GA-space will be limited to   8.0 MW (determined by -G option)

 Using customized tuning parameters: mindgm=10; mindgv=16; mindgc=4; mindgr=1; noblas=0; mincuda=1000; minvec=7
 default implementation of scratch files=df  

 ***,Optimization of min3
 memory,1000,m
 gthresh,energy=1.0d-12,orbital=1.0d-10,oneint=1.0d-16,twoint=1.0d-16,optgrad=1.0d-6,compress=1.0d-13
 geomtyp=xyz
 
 
 
  bohr
  geometry = {
  H    0.0552529323    2.8452201393    0.0000000000
  C    0.1881783156    0.7808387537    0.0000000000
  O    2.1205734965   -0.4008839121    0.0000000000
  O   -2.1466917598   -0.2376623371    0.0000000000
  H   -1.9253781294   -2.0473119751   -0.0000000000
 }
 
 basis=aug-cc-pvtz
 {rhf;maxit,200}
 {ccsd(t);maxit,200}

 Variables initialized (661), CPU time= 0.00 sec
 Commands  initialized (458), CPU time= 0.01 sec, 486 directives.
 Default parameters read. Elapsed time= 0.03 sec

 Checking input...
 Passed
1


                                         ***  PROGRAM SYSTEM MOLPRO  ***
                         Copyright, University College Cardiff Consultants Limited, 2008

                                    Version 2010.1 linked May 16 2016 07:17:05


 **********************************************************************************************************************************
 LABEL *   Optimization of min3                                                          
 Linux-4.4.3/n081(x86_64) 64 bit mpp version                                             DATE: 08-Feb-25          TIME: 16:31:59  
 **********************************************************************************************************************************

 SHA1:             9e8077add272b0f3cad6f7df79ec5211205f459d
 **********************************************************************************************************************************

 THRESHOLDS:

 ZERO    =  1.00D-12  ONEINT  =  1.00D-16  TWOINT  =  1.00D-16  PREFAC  =  1.00D-14  LOCALI  =  1.00D-09  EORDER  =  1.00D-04
 ENERGY  =  1.00D-12  ETEST   =  0.00D+00  EDENS   =  0.00D+00  THRDEDEF=  1.00D-06  GRADIENT=  1.00D-02  STEP    =  1.00D-03
 ORBITAL =  1.00D-10  CIVEC   =  1.00D-05  COEFF   =  1.00D-04  PRINTCI =  5.00D-02  PUNCHCI =  9.90D+01  OPTGRAD =  1.00D-06
 OPTENERG=  1.00D-06  OPTSTEP =  3.00D-04  THRGRAD =  1.00D-10  COMPRESS=  1.00D-13  VARMIN  =  1.00D-07  VARMAX  =  1.00D-03
 THRDOUB =  0.00D+00  THRDIV  =  1.00D-05  THRRED  =  1.00D-07  THRPSP  =  1.00D+00  THRDC   =  1.00D-10  THRCS   =  1.00D-10
 THRNRM  =  1.00D-08  THREQ   =  0.00D+00  THRDE   =  1.00D+00  THRREF  =  1.00D-05  SPARFAC =  1.00D+00  THRDLP  =  1.00D-07
 THRDIA  =  1.00D-10  THRDLS  =  1.00D-07  THRGPS  =  0.00D+00  THRKEX  =  0.00D+00  THRDIS  =  2.00D-01  THRVAR  =  1.00D-10
 THRLOC  =  1.00D-06  THRGAP  =  1.00D-06  THRLOCT = -1.00D+00  THRGAPT = -1.00D+00  THRORB  =  1.00D-06  THRMLTP =  0.00D+00
 THRCPQCI=  1.00D-10  KEXTA   =  0.00D+00  THRCOARS=  0.00D+00  SYMTOL  =  1.00D-06  GRADTOL =  1.00D-06  THROVL  =  1.00D-08
 THRORTH =  1.00D-08  GRID    =  1.00D-06  GRIDMAX =  1.00D-03  DTMAX   =  0.00D+00

 SETTING GEOMTYP        =    XYZ
 ZUNIT=BOHR
 

 Variable memory set to 1000000000 words,  buffer space   230000 words

 SETTING BASIS          =    AUG-CC-PVTZ


 Recomputing integrals since basis changed


 Using spherical harmonics

 Library entry H      S aug-cc-pVTZ          selected for orbital group  1
 Library entry H      P aug-cc-pVTZ          selected for orbital group  1
 Library entry H      D aug-cc-pVTZ          selected for orbital group  1
 Library entry C      S aug-cc-pVTZ          selected for orbital group  2
 Library entry C      P aug-cc-pVTZ          selected for orbital group  2
 Library entry C      D aug-cc-pVTZ          selected for orbital group  2
 Library entry C      F aug-cc-pVTZ          selected for orbital group  2
 Library entry O      S aug-cc-pVTZ          selected for orbital group  3
 Library entry O      P aug-cc-pVTZ          selected for orbital group  3
 Library entry O      D aug-cc-pVTZ          selected for orbital group  3
 Library entry O      F aug-cc-pVTZ          selected for orbital group  3

1PROGRAM * SEWARD (Integral evaluation for generally contracted gaussian basis sets)     Author: Roland Lindh, 1990

 Geometry written to block  1 of record 700


 Point group  Cs  



 ATOMIC COORDINATES

 NR  ATOM    CHARGE       X              Y              Z

   1  H       1.00    0.055252932    2.845220139    0.000000000
   2  C       6.00    0.188178316    0.780838754    0.000000000
   3  O       8.00    2.120573497   -0.400883912    0.000000000
   4  O       8.00   -2.146691760   -0.237662337    0.000000000
   5  H       1.00   -1.925378129   -2.047311975    0.000000000

 Bond lengths in Bohr (Angstrom)

 1-2  2.068656487  2-3  2.265087105  2-4  2.547344253  4-5  1.823132342
     ( 1.094685866)     ( 1.198632472)     ( 1.347996522)     ( 0.964760084)

 Bond angles

  1-2-3  125.13133122   1-2-4  109.88327847   2-4-5  106.59501994   3-2-4  124.98539030

 NUCLEAR CHARGE:                   24
 NUMBER OF PRIMITIVE AOS:         255
 NUMBER OF SYMMETRY AOS:          224
 NUMBER OF CONTRACTIONS:          184   ( 122A'  +  62A"  )
 NUMBER OF CORE ORBITALS:           3   (   3A'  +   0A"  )
 NUMBER OF VALENCE ORBITALS:       14   (  11A'  +   3A"  )


 NUCLEAR REPULSION ENERGY   70.22108586


 Eigenvalues of metric

         1 0.689E-04 0.167E-03 0.302E-03 0.391E-03 0.476E-03 0.755E-03 0.925E-03 0.127E-02
         2 0.351E-02 0.434E-02 0.661E-02 0.104E-01 0.141E-01 0.206E-01 0.273E-01 0.310E-01


 Contracted 2-electron integrals neglected if value below      1.0D-16
 AO integral compression algorithm  1   Integral accuracy      1.0D-16

     705.954 MB (compressed) written to integral file (100.0%)

     Node minimum: 705.954 MB, node maximum: 705.954 MB


 NUMBER OF SORTED TWO-ELECTRON INTEGRALS:   74019414.     BUFFER LENGTH:  32768
 NUMBER OF SEGMENTS:   5  SEGMENT LENGTH:   15997996      RECORD LENGTH: 524288

 Memory used in sort:      16.56 MW

 SORT1 READ    87886196. AND WROTE    73257001. INTEGRALS IN    212 RECORDS. CPU TIME:     0.76 SEC, REAL TIME:     1.20 SEC
 SORT2 READ    73257001. AND WROTE    74019414. INTEGRALS IN   2693 RECORDS. CPU TIME:     0.54 SEC, REAL TIME:     0.83 SEC

 FILE SIZES:   FILE 1:   603.8 MBYTE,  FILE 4:   889.2 MBYTE,   TOTAL:   1493.0 MBYTE

 OPERATOR DM      FOR CENTER  0  COORDINATES:    0.000000    0.000000    0.000000


 **********************************************************************************************************************************
 DATASETS  * FILE   NREC   LENGTH (MB)   RECORD NAMES
              1      19      603.96       500      610      700      900      950      970     1000      129      960     1100   
                                          VAR    BASINP    GEOM    SYMINP    ZMAT    AOBASIS   BASIS     P2S    ABASIS      S 
                                         1400     1410     1200     1210     1080     1600     1650     1300     1700   
                                           T        V       H0       H01     AOSYM     SMH    MOLCAS    ERIS     OPER   

 PROGRAMS   *        TOTAL       INT
 CPU TIMES  *         5.02      4.97
 REAL TIME  *         6.76 SEC
 DISK USED  *         2.20 GB      
 GA USED    *         0.00 MB       (max)       0.00 MB       (current)
 **********************************************************************************************************************************

1PROGRAM * RHF-SCF (CLOSED SHELL)       Authors: W. Meyer, H.-J. Werner


 NUMBER OF ELECTRONS:      12+   12-
 CONVERGENCE THRESHOLDS:    1.00E-10 (Density)    1.00E-13 (Energy)
 MAX. NUMBER OF ITERATIONS:      200
 INTERPOLATION TYPE:            DIIS
 INTERPOLATION STEPS:              2 (START)      1 (STEP)
 LEVEL SHIFTS:                  0.00 (CLOSED)  0.00 (OPEN) 



 Orbital guess generated from atomic densities. Full valence occupancy:   14   3

 Molecular orbital dump at record        2100.2

 Initial alpha occupancy:  10   2
 Initial beta  occupancy:  10   2
 Wave function symmetry:    1

 ITERATION    DDIFF          GRAD             ENERGY        2-EL.EN.            DIPOLE MOMENTS         DIIS
    1      0.000D+00      0.000D+00      -188.76280542    279.035835   -1.09558    0.18438    0.00000    0
    2      0.000D+00      0.648D-02      -188.80934468    276.922131   -0.42137   -0.06303    0.00000    1
    3      0.108D-01      0.468D-02      -188.84320228    278.141662   -0.71016    0.16784    0.00000    2
    4      0.440D-02      0.564D-03      -188.84412433    278.073157   -0.64275    0.15261    0.00000    3
    5      0.788D-03      0.266D-03      -188.84432378    278.048124   -0.65337    0.16137    0.00000    4
    6      0.349D-03      0.796D-04      -188.84436090    278.077410   -0.64563    0.16243    0.00000    5
    7      0.141D-03      0.337D-04      -188.84436923    278.067468   -0.64377    0.16185    0.00000    6
    8      0.806D-04      0.119D-04      -188.84437015    278.072155   -0.64310    0.16127    0.00000    7
    9      0.298D-04      0.363D-05      -188.84437022    278.071151   -0.64290    0.16118    0.00000    8
   10      0.875D-05      0.937D-06      -188.84437023    278.071273   -0.64282    0.16110    0.00000    7
   11      0.244D-05      0.272D-06      -188.84437023    278.071271   -0.64280    0.16110    0.00000    8
   12      0.734D-06      0.559D-07      -188.84437023    278.071262   -0.64279    0.16110    0.00000    8
   13      0.108D-06      0.201D-07      -188.84437023    278.071265   -0.64279    0.16110    0.00000    8
   14      0.388D-07      0.474D-08      -188.84437023    278.071265   -0.64279    0.16110    0.00000    7
   15      0.102D-07      0.172D-08      -188.84437023    278.071265   -0.64279    0.16110    0.00000    7
   16      0.273D-08      0.628D-09      -188.84437023    278.071265   -0.64279    0.16110    0.00000    7
   17      0.101D-08      0.242D-09      -188.84437023    278.071265   -0.64279    0.16110    0.00000    7
   18      0.448D-09      0.789D-10      -188.84437023    278.071265   -0.64279    0.16110    0.00000    7
   19      0.190D-09      0.235D-10      -188.84437023    278.071265   -0.64279    0.16110    0.00000    8
   20      0.627D-10      0.867D-11      -188.84437023    278.071265   -0.64279    0.16110    0.00000    0

 Final occupancy:  10   2

 !RHF STATE 1.1 Energy               -188.844370229973
 Nuclear energy                        70.22108586
 One-electron energy                 -398.10108878
 Two-electron energy                  139.03563269
 Virial quotient                       -1.00174241
 !RHF STATE 1.1 Dipole moment          -0.64279186     0.16109922     0.00000000
 Dipole moment /Debye                  -1.63370694     0.40944656     0.00000000

 Orbital energies:

         1.1          2.1          3.1          4.1          5.1          6.1          7.1          8.1          9.1         10.1
    -20.628545   -20.569174   -11.397823    -1.478698    -1.380412    -0.897338    -0.726038    -0.715338    -0.607827    -0.475754

        11.1         12.1
      0.029523     0.037463

         1.2          2.2          3.2          4.2
     -0.638611    -0.499352     0.074130     0.144114


 **********************************************************************************************************************************
 DATASETS  * FILE   NREC   LENGTH (MB)   RECORD NAMES
              1      19      603.96       500      610      700      900      950      970     1000      129      960     1100   
                                          VAR    BASINP    GEOM    SYMINP    ZMAT    AOBASIS   BASIS     P2S    ABASIS      S 
                                         1400     1410     1200     1210     1080     1600     1650     1300     1700   
                                           T        V       H0       H01     AOSYM     SMH    MOLCAS    ERIS     OPER   

              2       3        0.73       700     1000     2100   
                                         GEOM     BASIS     RHF  

 PROGRAMS   *        TOTAL       RHF       INT
 CPU TIMES  *        10.82      5.81      4.97
 REAL TIME  *        13.94 SEC
 DISK USED  *         2.20 GB      
 GA USED    *         0.00 MB       (max)       0.00 MB       (current)
 **********************************************************************************************************************************


1PROGRAM * CCSD (Closed-shell coupled cluster)     Authors: C. Hampel, H.-J. Werner, 1991, M. Deegan, P.J. Knowles, 1992


 Convergence thresholds:  THRVAR = 1.00D-08  THRDEN = 1.00D-12

 CCSD(T)     terms to be evaluated (factor= 1.000)


 Number of core orbitals:           3 (   3   0 )
 Number of closed-shell orbitals:   9 (   7   2 )
 Number of external orbitals:     172 ( 112  60 )

 Molecular orbitals read from record     2100.2  Type=RHF/CANONICAL (state 1.1)

 Number of N-1 electron functions:               9
 Number of N-2 electron functions:              45
 Number of singly external CSFs:               904
 Number of doubly external CSFs:            616750
 Total number of CSFs:                      617655

 Length of J-op  integral file:               0.00 MB
 Length of K-op  integral file:               1.33 MB
 Length of 3-ext integral record:             0.00 MB

 Memory could be reduced to 31.84 Mwords without degradation in triples

 Integral transformation finished. Total CPU:   1.17 sec, npass=  1  Memory used:   9.53 MW

 Reference energy:                   -188.84437023

 MP2 singlet pair energy:              -0.39645590
 MP2 triplet pair energy:              -0.24582858
 MP2 correlation energy:               -0.64228448
 MP2 total energy:                   -189.48665471

 SCS-MP2 correlation energy:           -0.62870708   (PS=  1.200000  PT=  0.333333)
 SCS-MP2 total energy:               -189.47307731

 ITER.      SQ.NORM     CORR.ENERGY   TOTAL ENERGY   ENERGY CHANGE        DEN1      VAR(S)    VAR(P)  DIIS     TIME
   1      1.15805590    -0.64577897  -189.49014920    -0.00349450     0.01536869  0.50D-02  0.34D-02  1  1     2.42
   2      1.16982852    -0.64540318  -189.48977341     0.00037579    -0.01461427  0.10D-03  0.48D-03  2  2     3.79
   3      1.17555077    -0.64569246  -189.49006269    -0.00028928    -0.00271857  0.11D-03  0.26D-04  3  3     5.14
   4      1.17809162    -0.64556413  -189.48993436     0.00012833    -0.00095824  0.11D-04  0.48D-05  4  4     6.51
   5      1.17925084    -0.64554015  -189.48991038     0.00002399    -0.00027324  0.14D-05  0.44D-06  5  5     7.89
   6      1.17953543    -0.64551739  -189.48988762     0.00002275    -0.00002993  0.11D-06  0.53D-07  6  6     9.26
   7      1.17959288    -0.64551398  -189.48988421     0.00000342    -0.00000651  0.15D-07  0.10D-07  6  2    10.63
   8      1.17959789    -0.64551420  -189.48988443    -0.00000022     0.00000191  0.36D-08  0.12D-08  6  1    11.99
   9      1.17960163    -0.64551386  -189.48988409     0.00000034     0.00000030  0.61D-09  0.19D-09  6  3    13.36
  10      1.17960145    -0.64551400  -189.48988423    -0.00000014     0.00000017  0.13D-09  0.34D-10  6  5    14.73
  11      1.17960192    -0.64551403  -189.48988426    -0.00000003     0.00000008  0.15D-10  0.57D-11  6  4    16.10
  12      1.17960195    -0.64551403  -189.48988426     0.00000000    -0.00000002  0.26D-11  0.80D-12  6  6    17.48
  13      1.17960180    -0.64551405  -189.48988428    -0.00000002     0.00000003  0.30D-12  0.17D-12  6  1    18.85
  14      1.17960175    -0.64551405  -189.48988428     0.00000000     0.00000001  0.46D-13  0.23D-13  6  2    20.22
  15      1.17960171    -0.64551405  -189.48988428    -0.00000000     0.00000001  0.98D-14  0.32D-14  6  3    21.60
  16      1.17960171    -0.64551405  -189.48988428    -0.00000000     0.00000000  0.22D-14  0.65D-15  6  5    22.97
  17      1.17960171    -0.64551405  -189.48988428     0.00000000    -0.00000000  0.36D-15  0.15D-15  6  4    24.32
  18      1.17960171    -0.64551405  -189.48988428     0.00000000    -0.00000000  0.67D-16  0.23D-16  6  6    25.69
  19      1.17960171    -0.64551405  -189.48988428     0.00000000    -0.00000000  0.14D-16  0.34D-17  6  1    27.05
  20      1.17960171    -0.64551405  -189.48988428     0.00000000     0.00000000  0.35D-17  0.99D-18  6  2    28.43
  21      1.17960171    -0.64551405  -189.48988428    -0.00000000     0.00000000  0.29D-18  0.14D-18  6  4    29.81
  22      1.17960171    -0.64551405  -189.48988428     0.00000000     0.00000000  0.36D-19  0.24D-19  6  3    31.16
  23      1.17960171    -0.64551405  -189.48988428    -0.00000000     0.00000000  0.43D-20  0.35D-20  6  5    32.54
  24      1.17960171    -0.64551405  -189.48988428     0.00000000    -0.00000000  0.15D-20  0.34D-21  6  6    33.92
  25      1.17960171    -0.64551405  -189.48988428    -0.00000000     0.00000000  0.47D-21  0.11D-21  6  1    35.28

 Norm of t1 vector:      0.09936117      S-energy:     0.00000000      T1 diagnostic:  0.01656019
                                                                       D1 diagnostic:  0.05301690


 Total CPU time for triples:     22.24 sec


 RESULTS
 =======

  Reference energy                   -188.844370229974
  CCSD singlet pair energy             -0.429110404397
  CCSD triplet pair energy             -0.216403646510
  CCSD correlation energy              -0.645514050905

  Triples (T) contribution             -0.027813963387
  Total correlation energy             -0.673328014292

  CCSD total energy                  -189.489884280879
  CCSD[T] energy                     -189.519403296180
  CCSD-T energy                      -189.517000783860
 !CCSD(T) total energy               -189.517698244266

 Timing summary (sec):

 STEP                 CPU(USER)    SYS     CPU(TOT)    WALL
 Transformation          1.19      0.16      1.35      1.36
 CCSD iterations        34.09      2.22     36.31     36.81
 Triples                22.24      0.49     22.73     22.76

 Program statistics:

 Available memory in ccsd:               999999576
 Min. memory needed in ccsd:               1814795
 Max. memory used in ccsd:                 2349055
 Max. memory used in cckext:               2687966 (25 integral passes)



 **********************************************************************************************************************************
 DATASETS  * FILE   NREC   LENGTH (MB)   RECORD NAMES
              1      20      708.10       500      610      700      900      950      970     1000      129      960     1100   
                                          VAR    BASINP    GEOM    SYMINP    ZMAT    AOBASIS   BASIS     P2S    ABASIS      S 
                                         1400     1410     1200     1210     1080     1600     1650     1300     1700     1380   
                                           T        V       H0       H01     AOSYM     SMH    MOLCAS    ERIS     OPER     JKOP   

              2       3        0.73       700     1000     2100   
                                         GEOM     BASIS     RHF  

 PROGRAMS   *        TOTAL   CCSD(T)       RHF       INT
 CPU TIMES  *        68.34     57.52      5.81      4.97
 REAL TIME  *        74.91 SEC
 DISK USED  *         2.20 GB      
 GA USED    *         0.00 MB       (max)       0.00 MB       (current)
 **********************************************************************************************************************************

        CCSD(T)         RHF-SCF 
   -189.51769824   -188.84437023
 **********************************************************************************************************************************
 Variable memory released
