
 Primary working directories    : /tmp/984874.496.gen6.q
 Secondary working directories  : /tmp/984874.496.gen6.q
 Wavefunction directory         : /home/vulcan/mel64643/wfu/
 Main file repository           : /tmp/984874.496.gen6.q/

 ARCHNAME  : Linux/x86_64
 FC        : /opt/intel/compilers_and_libraries_2016.1.150/linux/bin/intel64/ifort
 FCVERSION : 16.0.1
 BLASLIB   : -mkl
 id        : ccgc

 Nodes     nprocs
 n090         1
 ga_uses_ma=false, calling ma_init with nominal heap.
 GA-space will be limited to   8.0 MW (determined by -G option)

 Using customized tuning parameters: mindgm=10; mindgv=16; mindgc=4; mindgr=1; noblas=0; mincuda=1000; minvec=7
 default implementation of scratch files=df  

 ***,Optimization of formic acid
 memory,1000,m
 gthresh,energy=1.0d-12,orbital=1.0d-10,oneint=1.0d-16,twoint=1.0d-16,optgrad=1.0d-6,compress=1.0d-13
 geomtyp=xyz
 
 
 
 bohr
 geometry = {
  C   -3.4956734341   -0.8359732409    0.0000000000
  O   -3.1067634418    1.6202918303   -0.0000000000
  O   -1.8688262748   -2.4749664183    0.0000000000
  H   -5.5139939672   -1.2827594154    0.0000000000
  H   -1.2569862298    1.9647281695   -0.0000000000
  C    3.5054545136    0.8255406911    0.0000000000
  O    3.0818477356   -1.6249789231   -0.0000000000
  O    1.9019481275    2.4873762983    0.0000000000
  H    5.5256083758    1.2639628994    0.0000000000
  H    1.2273845952   -1.9432218909   -0.0000000000
 }
 
 basis=VTZ
 {rhf;maxit,200}
 {ccsd(t);maxit,200}

 Variables initialized (661), CPU time= 0.00 sec
 Commands  initialized (458), CPU time= 0.01 sec, 486 directives.
 Default parameters read. Elapsed time= 0.05 sec

 Checking input...
 Passed
1


                                         ***  PROGRAM SYSTEM MOLPRO  ***
                         Copyright, University College Cardiff Consultants Limited, 2008

                                    Version 2010.1 linked May 16 2016 07:17:05


 **********************************************************************************************************************************
 LABEL *   Optimization of formic acid                                                   
 Linux-4.4.3/n090(x86_64) 64 bit mpp version                                             DATE: 24-Jan-24          TIME: 18:39:45  
 **********************************************************************************************************************************

 SHA1:             9e8077add272b0f3cad6f7df79ec5211205f459d
 **********************************************************************************************************************************

 THRESHOLDS:

 ZERO    =  1.00D-12  ONEINT  =  1.00D-16  TWOINT  =  1.00D-16  PREFAC  =  1.00D-14  LOCALI  =  1.00D-09  EORDER  =  1.00D-04
 ENERGY  =  1.00D-12  ETEST   =  0.00D+00  EDENS   =  0.00D+00  THRDEDEF=  1.00D-06  GRADIENT=  1.00D-02  STEP    =  1.00D-03
 ORBITAL =  1.00D-10  CIVEC   =  1.00D-05  COEFF   =  1.00D-04  PRINTCI =  5.00D-02  PUNCHCI =  9.90D+01  OPTGRAD =  1.00D-06
 OPTENERG=  1.00D-06  OPTSTEP =  3.00D-04  THRGRAD =  1.00D-10  COMPRESS=  1.00D-13  VARMIN  =  1.00D-07  VARMAX  =  1.00D-03
 THRDOUB =  0.00D+00  THRDIV  =  1.00D-05  THRRED  =  1.00D-07  THRPSP  =  1.00D+00  THRDC   =  1.00D-10  THRCS   =  1.00D-10
 THRNRM  =  1.00D-08  THREQ   =  0.00D+00  THRDE   =  1.00D+00  THRREF  =  1.00D-05  SPARFAC =  1.00D+00  THRDLP  =  1.00D-07
 THRDIA  =  1.00D-10  THRDLS  =  1.00D-07  THRGPS  =  0.00D+00  THRKEX  =  0.00D+00  THRDIS  =  2.00D-01  THRVAR  =  1.00D-10
 THRLOC  =  1.00D-06  THRGAP  =  1.00D-06  THRLOCT = -1.00D+00  THRGAPT = -1.00D+00  THRORB  =  1.00D-06  THRMLTP =  0.00D+00
 THRCPQCI=  1.00D-10  KEXTA   =  0.00D+00  THRCOARS=  0.00D+00  SYMTOL  =  1.00D-06  GRADTOL =  1.00D-06  THROVL  =  1.00D-08
 THRORTH =  1.00D-08  GRID    =  1.00D-06  GRIDMAX =  1.00D-03  DTMAX   =  0.00D+00

 SETTING GEOMTYP        =    XYZ
 ZUNIT=BOHR
 

 Variable memory set to 1000000000 words,  buffer space   230000 words

 SETTING BASIS          =    VTZ


 Recomputing integrals since basis changed


 Using spherical harmonics

 Library entry C      S cc-pVTZ              selected for orbital group  1
 Library entry C      P cc-pVTZ              selected for orbital group  1
 Library entry C      D cc-pVTZ              selected for orbital group  1
 Library entry C      F cc-pVTZ              selected for orbital group  1
 Library entry O      S cc-pVTZ              selected for orbital group  2
 Library entry O      P cc-pVTZ              selected for orbital group  2
 Library entry O      D cc-pVTZ              selected for orbital group  2
 Library entry O      F cc-pVTZ              selected for orbital group  2
 Library entry H      S cc-pVTZ              selected for orbital group  3
 Library entry H      P cc-pVTZ              selected for orbital group  3
 Library entry H      D cc-pVTZ              selected for orbital group  3

1PROGRAM * SEWARD (Integral evaluation for generally contracted gaussian basis sets)     Author: Roland Lindh, 1990

 Geometry written to block  1 of record 700


 Point group  Cs  



 ATOMIC COORDINATES

 NR  ATOM    CHARGE       X              Y              Z

   1  C       6.00   -3.495673434   -0.835973241    0.000000000
   2  O       8.00   -3.106763442    1.620291830    0.000000000
   3  O       8.00   -1.868826275   -2.474966418    0.000000000
   4  H       1.00   -5.513993967   -1.282759415    0.000000000
   5  H       1.00   -1.256986230    1.964728170    0.000000000
   6  C       6.00    3.505454514    0.825540691    0.000000000
   7  O       8.00    3.081847736   -1.624978923    0.000000000
   8  O       8.00    1.901948128    2.487376298    0.000000000
   9  H       1.00    5.525608376    1.263962899    0.000000000
  10  H       1.00    1.227384595   -1.943221891    0.000000000

 Bond lengths in Bohr (Angstrom)

 1-2  2.486863302  1-3  2.309313819  1-4  2.067180607  2-5  1.881571717  6-7  2.486863302
     ( 1.315991381)     ( 1.222036242)     ( 1.093904864)     ( 0.995684870)     ( 1.315991381)

  6- 8  2.309313819   6- 9  2.067180606   7-10  1.881571717
       ( 1.222036242)       ( 1.093904864)       ( 0.995684870)

 Bond angles

  1-2-5  109.54509197   2-1-3  126.21591402   2-1-4  111.47918717   3-1-4  122.30489881

  6- 7-10  109.54509197   7- 6- 8  126.21591402   7- 6- 9  112.05214497   8- 6- 9  121.73194101

 NUCLEAR CHARGE:                   48
 NUMBER OF PRIMITIVE AOS:         350
 NUMBER OF SYMMETRY AOS:          316
 NUMBER OF CONTRACTIONS:          236   ( 160A'  +  76A"  )
 NUMBER OF CORE ORBITALS:           6   (   6A'  +   0A"  )
 NUMBER OF VALENCE ORBITALS:       28   (  22A'  +   6A"  )


 NUCLEAR REPULSION ENERGY  235.53330619


 Eigenvalues of metric

         1 0.132E-02 0.141E-02 0.159E-02 0.160E-02 0.224E-02 0.268E-02 0.353E-02 0.361E-02
         2 0.289E-01 0.290E-01 0.387E-01 0.392E-01 0.431E-01 0.439E-01 0.715E-01 0.758E-01


 Contracted 2-electron integrals neglected if value below      1.0D-16
 AO integral compression algorithm  1   Integral accuracy      1.0D-16

     1240.990 MB (compressed) written to integral file ( 72.2%)

     Node minimum: 1240.990 MB, node maximum: 1240.990 MB


 NUMBER OF SORTED TWO-ELECTRON INTEGRALS:  200296481.     BUFFER LENGTH:  32768
 NUMBER OF SEGMENTS:  13  SEGMENT LENGTH:   15999503      RECORD LENGTH: 524288

 Memory used in sort:      16.56 MW

 SORT1 READ   214780019. AND WROTE   182053045. INTEGRALS IN    528 RECORDS. CPU TIME:     2.46 SEC, REAL TIME:     3.53 SEC
 SORT2 READ   182053045. AND WROTE   200296481. INTEGRALS IN   4734 RECORDS. CPU TIME:     1.59 SEC, REAL TIME:     2.24 SEC

 FILE SIZES:   FILE 1:  1207.5 MBYTE,  FILE 4:  2214.6 MBYTE,   TOTAL:   3422.2 MBYTE

 OPERATOR DM      FOR CENTER  0  COORDINATES:    0.000000    0.000000    0.000000


 **********************************************************************************************************************************
 DATASETS  * FILE   NREC   LENGTH (MB)   RECORD NAMES
              1      19     1207.88       500      610      700      900      950      970     1000      129      960     1100   
                                          VAR    BASINP    GEOM    SYMINP    ZMAT    AOBASIS   BASIS     P2S    ABASIS      S 
                                         1400     1410     1200     1210     1080     1600     1650     1300     1700   
                                           T        V       H0       H01     AOSYM     SMH    MOLCAS    ERIS     OPER   

 PROGRAMS   *        TOTAL       INT
 CPU TIMES  *        17.81     17.76
 REAL TIME  *        20.35 SEC
 DISK USED  *         4.66 GB      
 GA USED    *         0.01 MB       (max)       0.00 MB       (current)
 **********************************************************************************************************************************

1PROGRAM * RHF-SCF (CLOSED SHELL)       Authors: W. Meyer, H.-J. Werner


 NUMBER OF ELECTRONS:      24+   24-
 CONVERGENCE THRESHOLDS:    1.00E-10 (Density)    1.00E-13 (Energy)
 MAX. NUMBER OF ITERATIONS:      200
 INTERPOLATION TYPE:            DIIS
 INTERPOLATION STEPS:              2 (START)      1 (STEP)
 LEVEL SHIFTS:                  0.00 (CLOSED)  0.00 (OPEN) 



 Orbital guess generated from atomic densities. Full valence occupancy:   28   6

 Molecular orbital dump at record        2100.2

 Initial alpha occupancy:  20   4
 Initial beta  occupancy:  20   4
 Wave function symmetry:    1

 ITERATION    DDIFF          GRAD             ENERGY        2-EL.EN.            DIPOLE MOMENTS         DIIS
    1      0.000D+00      0.000D+00      -377.56177413    747.262951   -0.03864   -0.00945    0.00000    0
    2      0.000D+00      0.668D-02      -377.64938972    744.197397   -0.03563   -0.00336    0.00000    1
    3      0.108D-01      0.436D-02      -377.69893567    746.522919   -0.03427   -0.00797    0.00000    2
    4      0.424D-02      0.581D-03      -377.70047492    746.208260   -0.03342   -0.00701    0.00000    3
    5      0.800D-03      0.255D-03      -377.70075207    746.246395   -0.03314   -0.00739    0.00000    4
    6      0.333D-03      0.738D-04      -377.70079985    746.290762   -0.03301   -0.00728    0.00000    5
    7      0.128D-03      0.319D-04      -377.70081096    746.273242   -0.03297   -0.00729    0.00000    6
    8      0.704D-04      0.103D-04      -377.70081227    746.279057   -0.03296   -0.00727    0.00000    7
    9      0.270D-04      0.330D-05      -377.70081239    746.277569   -0.03296   -0.00728    0.00000    8
   10      0.802D-05      0.992D-06      -377.70081240    746.277769   -0.03296   -0.00727    0.00000    7
   11      0.268D-05      0.296D-06      -377.70081240    746.277719   -0.03296   -0.00728    0.00000    8
   12      0.814D-06      0.658D-07      -377.70081240    746.277722   -0.03296   -0.00727    0.00000    8
   13      0.139D-06      0.385D-07      -377.70081240    746.277718   -0.03296   -0.00727    0.00000    8
   14      0.458D-07      0.901D-08      -377.70081240    746.277720   -0.03296   -0.00727    0.00000    8
   15      0.218D-07      0.277D-08      -377.70081240    746.277720   -0.03296   -0.00727    0.00000    8
   16      0.552D-08      0.127D-08      -377.70081240    746.277719   -0.03296   -0.00727    0.00000    8
   17      0.212D-08      0.289D-09      -377.70081240    746.277719   -0.03296   -0.00727    0.00000    8
   18      0.466D-09      0.997D-10      -377.70081240    746.277719   -0.03296   -0.00727    0.00000    8
   19      0.154D-09      0.237D-10      -377.70081240    746.277719   -0.03296   -0.00727    0.00000    8
   20      0.461D-10      0.944D-11      -377.70081240    746.277719   -0.03296   -0.00727    0.00000    0

 Final occupancy:  20   4

 !RHF STATE 1.1 Energy               -377.700812399616
 Nuclear energy                       235.53330619
 One-electron energy                 -986.37297824
 Two-electron energy                  373.13885965
 Virial quotient                       -1.00167652
 !RHF STATE 1.1 Dipole moment          -0.03295961    -0.00727089     0.00000000
 Dipole moment /Debye                  -0.08376949    -0.01847954     0.00000000

 Orbital energies:

         1.1          2.1          3.1          4.1          5.1          6.1          7.1          8.1          9.1         10.1
    -20.615132   -20.612259   -20.574510   -20.572191   -11.407364   -11.405021    -1.482818    -1.469806    -1.384776    -1.370498

        11.1         12.1         13.1         14.1         15.1         16.1         17.1         18.1         19.1         20.1
     -0.917199    -0.881388    -0.766814    -0.731426    -0.722339    -0.692845    -0.619453    -0.578673    -0.495753    -0.473109

        21.1         22.1
      0.163610     0.165055

         1.2          2.2          3.2          4.2          5.2          6.2
     -0.643341    -0.632852    -0.504861    -0.493202     0.146873     0.154340


 **********************************************************************************************************************************
 DATASETS  * FILE   NREC   LENGTH (MB)   RECORD NAMES
              1      19     1207.88       500      610      700      900      950      970     1000      129      960     1100   
                                          VAR    BASINP    GEOM    SYMINP    ZMAT    AOBASIS   BASIS     P2S    ABASIS      S 
                                         1400     1410     1200     1210     1080     1600     1650     1300     1700   
                                           T        V       H0       H01     AOSYM     SMH    MOLCAS    ERIS     OPER   

              2       3        1.08       700     1000     2100   
                                         GEOM     BASIS     RHF  

 PROGRAMS   *        TOTAL       RHF       INT
 CPU TIMES  *        39.10     21.30     17.76
 REAL TIME  *        43.93 SEC
 DISK USED  *         4.66 GB      
 GA USED    *         0.01 MB       (max)       0.00 MB       (current)
 **********************************************************************************************************************************


1PROGRAM * CCSD (Closed-shell coupled cluster)     Authors: C. Hampel, H.-J. Werner, 1991, M. Deegan, P.J. Knowles, 1992


 Convergence thresholds:  THRVAR = 1.00D-08  THRDEN = 1.00D-12

 CCSD(T)     terms to be evaluated (factor= 1.000)


 Number of core orbitals:           6 (   6   0 )
 Number of closed-shell orbitals:  18 (  14   4 )
 Number of external orbitals:     212 ( 140  72 )

 Molecular orbitals read from record     2100.2  Type=RHF/CANONICAL (state 1.1)

 Number of N-1 electron functions:              18
 Number of N-2 electron functions:             171
 Number of singly external CSFs:              2248
 Number of doubly external CSFs:           3757972
 Total number of CSFs:                     3760221

 Length of J-op  integral file:               0.00 MB
 Length of K-op  integral file:               2.20 MB
 Length of 3-ext integral record:             0.00 MB

 Memory could be reduced to 109.30 Mwords without degradation in triples

 Integral transformation finished. Total CPU:   6.72 sec, npass=  1  Memory used:  37.15 MW

 Reference energy:                   -377.70081240

 MP2 singlet pair energy:              -0.77626606
 MP2 triplet pair energy:              -0.49231770
 MP2 correlation energy:               -1.26858376
 MP2 total energy:                   -378.96939616

 SCS-MP2 correlation energy:           -1.23785028   (PS=  1.200000  PT=  0.333333)
 SCS-MP2 total energy:               -378.93866268

 ITER.      SQ.NORM     CORR.ENERGY   TOTAL ENERGY   ENERGY CHANGE        DEN1      VAR(S)    VAR(P)  DIIS     TIME
   1      1.30949559    -1.27597360  -378.97678600    -0.00738984     0.02987184  0.10D-01  0.65D-02  1  1    18.49
   2      1.33258857    -1.27529355  -378.97610595     0.00068005    -0.02907977  0.23D-03  0.93D-03  2  2    30.49
   3      1.34378910    -1.27587124  -378.97668364    -0.00057769    -0.00516129  0.24D-03  0.46D-04  3  3    42.51
   4      1.34905754    -1.27562068  -378.97643308     0.00025056    -0.00196047  0.24D-04  0.88D-05  4  4    54.53
   5      1.35146224    -1.27556940  -378.97638180     0.00005128    -0.00054348  0.25D-05  0.83D-06  5  5    66.55
   6      1.35204572    -1.27551993  -378.97633233     0.00004947    -0.00005466  0.14D-06  0.80D-07  6  6    78.59
   7      1.35213730    -1.27551506  -378.97632746     0.00000487    -0.00000876  0.12D-07  0.12D-07  6  2    90.67
   8      1.35213314    -1.27551631  -378.97632871    -0.00000124     0.00000755  0.26D-08  0.13D-08  6  3   102.71
   9      1.35214241    -1.27551493  -378.97632733     0.00000137    -0.00000278  0.23D-09  0.13D-09  6  1   114.76
  10      1.35214178    -1.27551504  -378.97632744    -0.00000011     0.00000021  0.57D-10  0.25D-10  6  5   126.79
  11      1.35214196    -1.27551507  -378.97632747    -0.00000003     0.00000005  0.13D-10  0.43D-11  6  4   138.82
  12      1.35214169    -1.27551509  -378.97632749    -0.00000002     0.00000010  0.28D-11  0.72D-12  6  6   150.87
  13      1.35214149    -1.27551513  -378.97632752    -0.00000003     0.00000009  0.64D-12  0.16D-12  6  2   162.92
  14      1.35214141    -1.27551513  -378.97632753    -0.00000000     0.00000001  0.86D-13  0.41D-13  6  3   174.94
  15      1.35214137    -1.27551513  -378.97632753    -0.00000000     0.00000000  0.11D-13  0.47D-14  6  1   186.97
  16      1.35214136    -1.27551513  -378.97632753    -0.00000000     0.00000000  0.18D-14  0.88D-15  6  4   199.00
  17      1.35214136    -1.27551513  -378.97632753    -0.00000000    -0.00000000  0.29D-15  0.17D-15  6  5   211.01
  18      1.35214136    -1.27551513  -378.97632753    -0.00000000     0.00000000  0.42D-16  0.21D-16  6  6   223.06
  19      1.35214136    -1.27551513  -378.97632753    -0.00000000    -0.00000000  0.77D-17  0.43D-17  6  2   235.12
  20      1.35214136    -1.27551513  -378.97632753     0.00000000    -0.00000000  0.11D-17  0.60D-18  6  3   247.15
  21      1.35214136    -1.27551513  -378.97632753    -0.00000000     0.00000000  0.18D-18  0.87D-19  6  1   259.21
  22      1.35214136    -1.27551513  -378.97632753     0.00000000    -0.00000000  0.29D-19  0.13D-19  6  4   271.26
  23      1.35214136    -1.27551513  -378.97632753     0.00000000     0.00000000  0.54D-20  0.24D-20  6  2   283.31
  24      1.35214136    -1.27551513  -378.97632753     0.00000000    -0.00000000  0.16D-20  0.35D-21  6  5   295.33

 Norm of t1 vector:      0.14433720      S-energy:     0.00000000      T1 diagnostic:  0.01701030
                                                                       D1 diagnostic:  0.06090046

 Singles amplitudes (print threshold =  0.500E-01):

         I         SYM. A    A   T(IA)

        15         2         1      0.05364290
        16         2         2      0.05556943


 Total CPU time for triples:    337.72 sec


 RESULTS
 =======

  Reference energy                   -377.700812399615
  CCSD singlet pair energy             -0.840633024223
  CCSD triplet pair energy             -0.434882104462
  CCSD correlation energy              -1.275515128671

  Triples (T) contribution             -0.054448106097
  Total correlation energy             -1.329963234768

  CCSD total energy                  -378.976327528286
  CCSD[T] energy                     -379.034188993776
  CCSD-T energy                      -379.029403204723
 !CCSD(T) total energy               -379.030775634383

 Timing summary (sec):

 STEP                 CPU(USER)    SYS     CPU(TOT)    WALL
 Transformation          6.85      0.57      7.42      7.63
 CCSD iterations       288.49      7.34    295.83    295.99
 Triples               337.72      7.50    345.22    345.27

 Program statistics:

 Available memory in ccsd:               999998604
 Min. memory needed in ccsd:               9310224
 Max. memory used in ccsd:                12787052
 Max. memory used in cckext:              12250851 (24 integral passes)



 **********************************************************************************************************************************
 DATASETS  * FILE   NREC   LENGTH (MB)   RECORD NAMES
              1      20     1621.57       500      610      700      900      950      970     1000      129      960     1100   
                                          VAR    BASINP    GEOM    SYMINP    ZMAT    AOBASIS   BASIS     P2S    ABASIS      S 
                                         1400     1410     1200     1210     1080     1600     1650     1300     1700     1380   
                                           T        V       H0       H01     AOSYM     SMH    MOLCAS    ERIS     OPER     JKOP   

              2       3        1.08       700     1000     2100   
                                         GEOM     BASIS     RHF  

 PROGRAMS   *        TOTAL   CCSD(T)       RHF       INT
 CPU TIMES  *       672.17    633.07     21.30     17.76
 REAL TIME  *       692.89 SEC
 DISK USED  *         4.66 GB      
 GA USED    *         0.01 MB       (max)       0.00 MB       (current)
 **********************************************************************************************************************************

        CCSD(T)         RHF-SCF 
   -379.03077563   -377.70081240
 **********************************************************************************************************************************
 Variable memory released
