
 Primary working directories    : /tmp/1051568.73.gen4.q
 Secondary working directories  : /tmp/1051568.73.gen4.q
 Wavefunction directory         : /home/vulcan/mel64643/wfu/
 Main file repository           : /tmp/1051568.73.gen4.q/

 ARCHNAME  : Linux/x86_64
 FC        : /opt/intel/compilers_and_libraries_2016.1.150/linux/bin/intel64/ifort
 FCVERSION : 16.0.1
 BLASLIB   : -mkl
 id        : ccgc

 Nodes     nprocs
 n021         1
 ga_uses_ma=false, calling ma_init with nominal heap.
 GA-space will be limited to   8.0 MW (determined by -G option)

 Using customized tuning parameters: mindgm=10; mindgv=16; mindgc=4; mindgr=1; noblas=0; mincuda=1000; minvec=7
 default implementation of scratch files=df  

 ***,Optimization of min3
 memory,1000,m
 gthresh,energy=1.0d-12,orbital=1.0d-10,oneint=1.0d-16,twoint=1.0d-16,optgrad=1.0d-6,compress=1.0d-13
 geomtyp=xyz
 
 
 
  bohr
  geometry = {
  C   -0.0000000000    0.0000000000   -2.6782624721
  C   -0.0000000000    2.2637049900   -1.3282901621
  C   -0.0000000000   -2.2637049900   -1.3282901621
  C   -0.0000000000    2.1576972600    1.3090097079
  C    0.0000000000   -2.1576972600    1.3090097079
  N    0.0000000000   -0.0000000000    2.6416797579
  H   -0.0000000000   -0.0000000000   -4.7147274921
  H   -0.0000000000    4.0657322160   -2.2804213408
  H   -0.0000000000   -4.0657322160   -2.2804213408
  H   -0.0000000000    3.8871685100    2.4090499979
  H    0.0000000000   -3.8871685100    2.4090499979
 }
 
 basis=cc-pvdz
 {rhf;maxit,200}
 {mp4}

 Variables initialized (661), CPU time= 0.01 sec
 Commands  initialized (458), CPU time= 0.00 sec, 486 directives.
 Default parameters read. Elapsed time= 0.06 sec

 Checking input...
 Passed
1


                                         ***  PROGRAM SYSTEM MOLPRO  ***
                         Copyright, University College Cardiff Consultants Limited, 2008

                                    Version 2010.1 linked May 16 2016 07:17:05


 **********************************************************************************************************************************
 LABEL *   Optimization of min3                                                          
 Linux-4.4.3/n021(x86_64) 64 bit mpp version                                             DATE: 14-Apr-24          TIME: 15:21:52  
 **********************************************************************************************************************************

 SHA1:             9e8077add272b0f3cad6f7df79ec5211205f459d
 **********************************************************************************************************************************

 THRESHOLDS:

 ZERO    =  1.00D-12  ONEINT  =  1.00D-16  TWOINT  =  1.00D-16  PREFAC  =  1.00D-14  LOCALI  =  1.00D-09  EORDER  =  1.00D-04
 ENERGY  =  1.00D-12  ETEST   =  0.00D+00  EDENS   =  0.00D+00  THRDEDEF=  1.00D-06  GRADIENT=  1.00D-02  STEP    =  1.00D-03
 ORBITAL =  1.00D-10  CIVEC   =  1.00D-05  COEFF   =  1.00D-04  PRINTCI =  5.00D-02  PUNCHCI =  9.90D+01  OPTGRAD =  1.00D-06
 OPTENERG=  1.00D-06  OPTSTEP =  3.00D-04  THRGRAD =  1.00D-10  COMPRESS=  1.00D-13  VARMIN  =  1.00D-07  VARMAX  =  1.00D-03
 THRDOUB =  0.00D+00  THRDIV  =  1.00D-05  THRRED  =  1.00D-07  THRPSP  =  1.00D+00  THRDC   =  1.00D-10  THRCS   =  1.00D-10
 THRNRM  =  1.00D-08  THREQ   =  0.00D+00  THRDE   =  1.00D+00  THRREF  =  1.00D-05  SPARFAC =  1.00D+00  THRDLP  =  1.00D-07
 THRDIA  =  1.00D-10  THRDLS  =  1.00D-07  THRGPS  =  0.00D+00  THRKEX  =  0.00D+00  THRDIS  =  2.00D-01  THRVAR  =  1.00D-10
 THRLOC  =  1.00D-06  THRGAP  =  1.00D-06  THRLOCT = -1.00D+00  THRGAPT = -1.00D+00  THRORB  =  1.00D-06  THRMLTP =  0.00D+00
 THRCPQCI=  1.00D-10  KEXTA   =  0.00D+00  THRCOARS=  0.00D+00  SYMTOL  =  1.00D-06  GRADTOL =  1.00D-06  THROVL  =  1.00D-08
 THRORTH =  1.00D-08  GRID    =  1.00D-06  GRIDMAX =  1.00D-03  DTMAX   =  0.00D+00

 SETTING GEOMTYP        =    XYZ
 ZUNIT=BOHR
 

 Variable memory set to 1000000000 words,  buffer space   230000 words

 SETTING BASIS          =    CC-PVDZ


 Recomputing integrals since basis changed


 Using spherical harmonics

 Library entry C      S cc-pVDZ              selected for orbital group  1
 Library entry C      P cc-pVDZ              selected for orbital group  1
 Library entry C      D cc-pVDZ              selected for orbital group  1
 Library entry N      S cc-pVDZ              selected for orbital group  2
 Library entry N      P cc-pVDZ              selected for orbital group  2
 Library entry N      D cc-pVDZ              selected for orbital group  2
 Library entry H      S cc-pVDZ              selected for orbital group  3
 Library entry H      P cc-pVDZ              selected for orbital group  3

1PROGRAM * SEWARD (Integral evaluation for generally contracted gaussian basis sets)     Author: Roland Lindh, 1990

 Geometry written to block  1 of record 700


 Point group  C2v 



 ATOMIC COORDINATES

 NR  ATOM    CHARGE       X              Y              Z

   1  C       6.00    0.000000000    0.000000000   -2.678262472
   2  C       6.00    0.000000000    2.263704990   -1.328290162
   3  C       6.00    0.000000000   -2.263704990   -1.328290162
   4  C       6.00    0.000000000    2.157697260    1.309009708
   5  C       6.00    0.000000000   -2.157697260    1.309009708
   6  N       7.00    0.000000000    0.000000000    2.641679758
   7  H       1.00    0.000000000    0.000000000   -4.714727492
   8  H       1.00    0.000000000    4.065732216   -2.280421341
   9  H       1.00    0.000000000   -4.065732216   -2.280421341
  10  H       1.00    0.000000000    3.887168510    2.409049998
  11  H       1.00    0.000000000   -3.887168510    2.409049998

 Bond lengths in Bohr (Angstrom)

 1-2  2.635675534  1-3  2.635675534  1-7  2.036465020  2-4  2.639429530  2-8  2.038101054
     ( 1.394739423)     ( 1.394739423)     ( 1.077650876)     ( 1.396725952)     ( 1.078516627)

  3- 5  2.639429530   3- 9  2.038101054   4- 6  2.536073131   4-10  2.049673009   5- 6  2.536073131
       ( 1.396725952)       ( 1.078516627)       ( 1.342032102)       ( 1.084640242)       ( 1.342032102)

  5-11  2.049673009
       ( 1.084640242)

 Bond angles

  1-2-4  118.50816168   1-2-8  121.33956042   1-3-5  118.50816168   1-3-9  121.33956042

  2- 1- 3  118.38008366   2- 1- 7  120.80995817   2- 4- 6  124.00273954   2- 4-10  120.15684180

  3- 1- 7  120.80995817   3- 5- 6  124.00273954   3- 5-11  120.15684180   4- 2- 8  120.15227790

  4- 6- 5  116.59811390   5- 3- 9  120.15227790   6- 4-10  115.84041866   6- 5-11  115.84041866

 NUCLEAR CHARGE:                   42
 NUMBER OF PRIMITIVE AOS:         197
 NUMBER OF SYMMETRY AOS:          191
 NUMBER OF CONTRACTIONS:          109   (  45A1  +  17B1  +  35B2  +  12A2  )
 NUMBER OF CORE ORBITALS:           6   (   4A1  +   0B1  +   2B2  +   0A2  )
 NUMBER OF VALENCE ORBITALS:       29   (  13A1  +   4B1  +  10B2  +   2A2  )


 NUCLEAR REPULSION ENERGY  205.84102077


 Eigenvalues of metric

         1 0.713E-03 0.379E-02 0.585E-02 0.152E-01 0.188E-01 0.242E-01 0.255E-01 0.285E-01
         2 0.543E-01 0.113E+00 0.174E+00 0.209E+00 0.296E+00 0.399E+00 0.422E+00 0.427E+00
         3 0.239E-02 0.279E-02 0.730E-02 0.152E-01 0.232E-01 0.303E-01 0.335E-01 0.516E-01
         4 0.103E+00 0.170E+00 0.299E+00 0.370E+00 0.440E+00 0.514E+00 0.537E+00 0.141E+01


 Contracted 2-electron integrals neglected if value below      1.0D-16
 AO integral compression algorithm  1   Integral accuracy      1.0D-16

     45.613 MB (compressed) written to integral file (100.0%)

     Node minimum: 45.613 MB, node maximum: 45.613 MB


 NUMBER OF SORTED TWO-ELECTRON INTEGRALS:    4859454.     BUFFER LENGTH:  32768
 NUMBER OF SEGMENTS:   1  SEGMENT LENGTH:    4859454      RECORD LENGTH: 524288

 Memory used in sort:       5.42 MW

 SORT1 READ     5684777. AND WROTE     4830493. INTEGRALS IN     14 RECORDS. CPU TIME:     0.11 SEC, REAL TIME:     0.15 SEC
 SORT2 READ     4830493. AND WROTE     4859454. INTEGRALS IN    174 RECORDS. CPU TIME:     0.10 SEC, REAL TIME:     0.12 SEC

 FILE SIZES:   FILE 1:    41.8 MBYTE,  FILE 4:    58.8 MBYTE,   TOTAL:    100.6 MBYTE

 OPERATOR DM      FOR CENTER  0  COORDINATES:    0.000000    0.000000    0.000000


 **********************************************************************************************************************************
 DATASETS  * FILE   NREC   LENGTH (MB)   RECORD NAMES
              1      19       41.88       500      610      700      900      950      970     1000      129      960     1100   
                                          VAR    BASINP    GEOM    SYMINP    ZMAT    AOBASIS   BASIS     P2S    ABASIS      S 
                                         1400     1410     1200     1210     1080     1600     1650     1300     1700   
                                           T        V       H0       H01     AOSYM     SMH    MOLCAS    ERIS     OPER   

 PROGRAMS   *        TOTAL       INT
 CPU TIMES  *         1.74      1.67
 REAL TIME  *         1.99 SEC
 DISK USED  *       147.03 MB      
 GA USED    *         0.00 MB       (max)       0.00 MB       (current)
 **********************************************************************************************************************************

1PROGRAM * RHF-SCF (CLOSED SHELL)       Authors: W. Meyer, H.-J. Werner


 NUMBER OF ELECTRONS:      21+   21-
 CONVERGENCE THRESHOLDS:    1.00E-10 (Density)    1.00E-13 (Energy)
 MAX. NUMBER OF ITERATIONS:      200
 INTERPOLATION TYPE:            DIIS
 INTERPOLATION STEPS:              2 (START)      1 (STEP)
 LEVEL SHIFTS:                  0.00 (CLOSED)  0.00 (OPEN) 



 Orbital guess generated from atomic densities. Full valence occupancy:   17   4  12   2

 Molecular orbital dump at record        2100.2

 Initial alpha occupancy:  11   2   7   1
 Initial beta  occupancy:  11   2   7   1
 Wave function symmetry:    1

 ITERATION    DDIFF          GRAD             ENERGY        2-EL.EN.            DIPOLE MOMENTS         DIIS
    1      0.000D+00      0.000D+00      -246.66532402    576.552903    0.00000    0.00000   -1.01621    0
    2      0.000D+00      0.816D-02      -246.70994808    575.151013    0.00000    0.00000   -0.90395    1
    3      0.167D-01      0.255D-02      -246.71384999    575.952026    0.00000    0.00000   -0.85236    2
    4      0.533D-02      0.107D-02      -246.71449090    575.720643    0.00000    0.00000   -0.88404    3
    5      0.204D-02      0.150D-03      -246.71450745    575.707502    0.00000    0.00000   -0.87560    4
    6      0.329D-03      0.499D-04      -246.71450969    575.716900    0.00000    0.00000   -0.87675    5
    7      0.107D-03      0.178D-04      -246.71451013    575.715101    0.00000    0.00000   -0.87628    6
    8      0.479D-04      0.699D-05      -246.71451026    575.714750    0.00000    0.00000   -0.87603    7
    9      0.289D-04      0.270D-05      -246.71451027    575.715026    0.00000    0.00000   -0.87596    7
   10      0.107D-04      0.949D-06      -246.71451028    575.714823    0.00000    0.00000   -0.87600    8
   11      0.327D-05      0.494D-06      -246.71451028    575.714855    0.00000    0.00000   -0.87597    8
   12      0.172D-05      0.127D-06      -246.71451028    575.714893    0.00000    0.00000   -0.87598    8
   13      0.294D-06      0.604D-07      -246.71451028    575.714879    0.00000    0.00000   -0.87598    9
   14      0.149D-06      0.831D-08      -246.71451028    575.714880    0.00000    0.00000   -0.87598    9
   15      0.274D-07      0.294D-08      -246.71451028    575.714880    0.00000    0.00000   -0.87598    8
   16      0.107D-07      0.867D-09      -246.71451028    575.714880    0.00000    0.00000   -0.87598    8
   17      0.215D-08      0.248D-09      -246.71451028    575.714880    0.00000    0.00000   -0.87598    8
   18      0.614D-09      0.747D-10      -246.71451028    575.714880    0.00000    0.00000   -0.87598    7
   19      0.275D-09      0.190D-10      -246.71451028    575.714880    0.00000    0.00000   -0.87598    7
   20      0.513D-10      0.609D-11      -246.71451028    575.714880    0.00000    0.00000   -0.87598    7
   21      0.127D-10      0.231D-11      -246.71451028    575.714880    0.00000    0.00000   -0.87598    0

 Final occupancy:  11   2   7   1

 !RHF STATE 1.1 Energy               -246.714510276671
 Nuclear energy                       205.84102077
 One-electron energy                 -740.41297117
 Two-electron energy                  287.85744012
 Virial quotient                       -1.00129529
 !RHF STATE 1.1 Dipole moment           0.00000000     0.00000000    -0.87598126
 Dipole moment /Debye                   0.00000000     0.00000000    -2.22637644

 Orbital energies:

         1.1          2.1          3.1          4.1          5.1          6.1          7.1          8.1          9.1         10.1
    -15.567478   -11.278209   -11.263489   -11.245735    -1.253799    -1.087587    -0.856840    -0.718071    -0.653015    -0.574076

        11.1         12.1         13.1
     -0.415615     0.183389     0.228946

         1.2          2.2          3.2          4.2
     -0.536092    -0.379608     0.115650     0.338832

         1.3          2.3          3.3          4.3          5.3          6.3          7.3          8.3          9.3
    -11.278225   -11.245782    -1.031149    -0.853331    -0.655402    -0.594941    -0.516305     0.214622     0.252950

         1.4          2.4          3.4
     -0.344296     0.130350     0.719295


 **********************************************************************************************************************************
 DATASETS  * FILE   NREC   LENGTH (MB)   RECORD NAMES
              1      19       41.88       500      610      700      900      950      970     1000      129      960     1100   
                                          VAR    BASINP    GEOM    SYMINP    ZMAT    AOBASIS   BASIS     P2S    ABASIS      S 
                                         1400     1410     1200     1210     1080     1600     1650     1300     1700   
                                           T        V       H0       H01     AOSYM     SMH    MOLCAS    ERIS     OPER   

              2       3        0.52       700     1000     2100   
                                         GEOM     BASIS     RHF  

 PROGRAMS   *        TOTAL       RHF       INT
 CPU TIMES  *         2.14      0.40      1.67
 REAL TIME  *         2.50 SEC
 DISK USED  *       147.03 MB      
 GA USED    *         0.00 MB       (max)       0.00 MB       (current)
 **********************************************************************************************************************************


1PROGRAM * MP4 (Closed-shell)     Authors: C. Hampel, H.-J. Werner, 1991, M. Deegan, P.J. Knowles, 1992


 Convergence thresholds:  THRVAR = 1.00D-08  THRDEN = 1.00D-12

 MP4(T)     terms to be evaluated (factor= 0.000)


 Number of core orbitals:           6 (   4   0   2   0 )
 Number of closed-shell orbitals:  15 (   7   2   5   1 )
 Number of external orbitals:      88 (  34  15  28  11 )

 Molecular orbitals read from record     2100.2  Type=RHF/CANONICAL (state 1.1)

 Number of N-1 electron functions:              15
 Number of N-2 electron functions:             120
 Number of singly external CSFs:               419
 Number of doubly external CSFs:            231695
 Total number of CSFs:                      232115

 Length of J-op  integral file:               0.00 MB
 Length of K-op  integral file:               0.28 MB

 Memory could be reduced to 3.95 Mwords without degradation in triples

 Integral transformation finished. Total CPU:   0.14 sec, npass=  1  Memory used:   1.54 MW

 Reference energy:                   -246.71451028

                        CORR.ENERGY   TOTAL ENERGY   ENERGY CHANGE
 MP2:                   -0.80878319  -247.52329346    -0.80878319

 SCS-MP2 correlation energy:           -0.78352640   (PS=  1.200000  PT=  0.333333)
 SCS-MP2 total energy:               -247.49803668

 MP3(D):                -0.83522108  -247.54973136    -0.02643789
 MP4(DQ):               -0.83387792  -247.54838819     0.00134316
 MP4(SDQ):              -0.84074846  -247.55525874    -0.00687054

 Norm of t1 vector:      0.07223953      S-energy:    -0.00687054      T1 diagnostic:  0.00932608


 Total CPU time for triples:      4.44 sec


 RESULTS
 =======

  Reference energy                   -246.714510276671
  MP4(SDQ) singlet pair energy         -0.537815938531
  MP4(SDQ) triplet pair energy         -0.296061978272
  MP4(SDQ) correlation energy          -0.840748460852

  Triples (T) contribution             -0.040784286855
  Total correlation energy             -0.881532747707

  MP4(SDTQ) total energy             -247.555258737523
 !MP4(SDTQ(T) total energy           -247.596043024378

 Timing summary (sec):

 STEP                 CPU(USER)    SYS     CPU(TOT)    WALL
 Transformation          0.15      0.03      0.18      0.18
 CCSD iterations         0.45      0.01      0.46      0.47
 Triples                 4.44      0.11      4.55      4.56

 Program statistics:

 Available memory in ccsd:               999999000
 Min. memory needed in ccsd:                653198
 Max. memory used in ccsd:                  857076
 Max. memory used in cckext:                910149 ( 1 integral passes)



 **********************************************************************************************************************************
 DATASETS  * FILE   NREC   LENGTH (MB)   RECORD NAMES
              1      20       57.61       500      610      700      900      950      970     1000      129      960     1100   
                                          VAR    BASINP    GEOM    SYMINP    ZMAT    AOBASIS   BASIS     P2S    ABASIS      S 
                                         1400     1410     1200     1210     1080     1600     1650     1300     1700     1380   
                                           T        V       H0       H01     AOSYM     SMH    MOLCAS    ERIS     OPER     JKOP   

              2       3        0.52       700     1000     2100   
                                         GEOM     BASIS     RHF  

 PROGRAMS   *        TOTAL       MP4       RHF       INT
 CPU TIMES  *         7.20      5.05      0.40      1.67
 REAL TIME  *         7.74 SEC
 DISK USED  *       147.03 MB      
 GA USED    *         0.00 MB       (max)       0.00 MB       (current)
 **********************************************************************************************************************************

        MP4             RHF-SCF 
   -247.59604302   -246.71451028
 **********************************************************************************************************************************
 Variable memory released
