
 Primary working directories    : /tmp/1003441.351.gen5.q
 Secondary working directories  : /tmp/1003441.351.gen5.q
 Wavefunction directory         : /home/vulcan/jj04645/wfu/
 Main file repository           : /tmp/1003441.351.gen5.q/

 ARCHNAME  : Linux/x86_64
 FC        : /opt/intel/compilers_and_libraries_2016.1.150/linux/bin/intel64/ifort
 FCVERSION : 16.0.1
 BLASLIB   : -mkl
 id        : ccgc

 Nodes     nprocs
 n070         1
 ga_uses_ma=false, calling ma_init with nominal heap.
 GA-space will be limited to   8.0 MW (determined by -G option)

 Using customized tuning parameters: mindgm=10; mindgv=16; mindgc=4; mindgr=1; noblas=0; mincuda=1000; minvec=7
 default implementation of scratch files=df  

 ***,Optimization of acetyl acetylene
 memory,1000,m
 gthresh,energy=1.0d-12,orbital=1.0d-10,oneint=1.0d-16,twoint=1.0d-16,optgrad=1.0d-6,compress=1.0d-13
 geomtyp=xyz
 
 bohr
 geometry = {
  H    3.6730913370   -1.7755693992   -1.0921692497
  C    2.2536218955   -2.3047424216    0.3098351343
  H    1.9129130890   -4.3319190590    0.2643549312
  C   -0.1805454111   -0.9242094456   -0.2427095012
  H    2.9610087455   -1.7288852854    2.1614631361
  O   -2.1759758807   -1.9795940843   -0.6642818933
  C    0.0008975567    1.8433778376   -0.2427095012
  C    0.2177959016    4.1256695146   -0.2445829333
  H    0.3583179455    6.1314371802   -0.2492001229
 }
 
 basis=VDZ
 {rhf;maxit,200}
 {ccsd(t);maxit,200}

 Variables initialized (661), CPU time= 0.01 sec
 Commands  initialized (458), CPU time= 0.01 sec, 486 directives.
 Default parameters read. Elapsed time= 0.11 sec

 Checking input...
 Passed
1


                                         ***  PROGRAM SYSTEM MOLPRO  ***
                         Copyright, University College Cardiff Consultants Limited, 2008

                                    Version 2010.1 linked May 16 2016 07:17:05


 **********************************************************************************************************************************
 LABEL *   Optimization of acetyl acetylene                                              
 Linux-4.4.3/n070(x86_64) 64 bit mpp version                                             DATE: 15-Feb-24          TIME: 14:00:40  
 **********************************************************************************************************************************

 SHA1:             9e8077add272b0f3cad6f7df79ec5211205f459d
 **********************************************************************************************************************************

 THRESHOLDS:

 ZERO    =  1.00D-12  ONEINT  =  1.00D-16  TWOINT  =  1.00D-16  PREFAC  =  1.00D-14  LOCALI  =  1.00D-09  EORDER  =  1.00D-04
 ENERGY  =  1.00D-12  ETEST   =  0.00D+00  EDENS   =  0.00D+00  THRDEDEF=  1.00D-06  GRADIENT=  1.00D-02  STEP    =  1.00D-03
 ORBITAL =  1.00D-10  CIVEC   =  1.00D-05  COEFF   =  1.00D-04  PRINTCI =  5.00D-02  PUNCHCI =  9.90D+01  OPTGRAD =  1.00D-06
 OPTENERG=  1.00D-06  OPTSTEP =  3.00D-04  THRGRAD =  1.00D-10  COMPRESS=  1.00D-13  VARMIN  =  1.00D-07  VARMAX  =  1.00D-03
 THRDOUB =  0.00D+00  THRDIV  =  1.00D-05  THRRED  =  1.00D-07  THRPSP  =  1.00D+00  THRDC   =  1.00D-10  THRCS   =  1.00D-10
 THRNRM  =  1.00D-08  THREQ   =  0.00D+00  THRDE   =  1.00D+00  THRREF  =  1.00D-05  SPARFAC =  1.00D+00  THRDLP  =  1.00D-07
 THRDIA  =  1.00D-10  THRDLS  =  1.00D-07  THRGPS  =  0.00D+00  THRKEX  =  0.00D+00  THRDIS  =  2.00D-01  THRVAR  =  1.00D-10
 THRLOC  =  1.00D-06  THRGAP  =  1.00D-06  THRLOCT = -1.00D+00  THRGAPT = -1.00D+00  THRORB  =  1.00D-06  THRMLTP =  0.00D+00
 THRCPQCI=  1.00D-10  KEXTA   =  0.00D+00  THRCOARS=  0.00D+00  SYMTOL  =  1.00D-06  GRADTOL =  1.00D-06  THROVL  =  1.00D-08
 THRORTH =  1.00D-08  GRID    =  1.00D-06  GRIDMAX =  1.00D-03  DTMAX   =  0.00D+00

 SETTING GEOMTYP        =    XYZ
 ZUNIT=BOHR
 

 Variable memory set to 1000000000 words,  buffer space   230000 words

 SETTING BASIS          =    VDZ


 Recomputing integrals since basis changed


 Using spherical harmonics

 Library entry H      S cc-pVDZ              selected for orbital group  1
 Library entry H      P cc-pVDZ              selected for orbital group  1
 Library entry C      S cc-pVDZ              selected for orbital group  2
 Library entry C      P cc-pVDZ              selected for orbital group  2
 Library entry C      D cc-pVDZ              selected for orbital group  2
 Library entry O      S cc-pVDZ              selected for orbital group  6
 Library entry O      P cc-pVDZ              selected for orbital group  6
 Library entry O      D cc-pVDZ              selected for orbital group  6

1PROGRAM * SEWARD (Integral evaluation for generally contracted gaussian basis sets)     Author: Roland Lindh, 1990

 Geometry written to block  1 of record 700


 Point group  C1  



 ATOMIC COORDINATES

 NR  ATOM    CHARGE       X              Y              Z

   1  H       1.00    3.673091337   -1.775569399   -1.092169250
   2  C       6.00    2.253621895   -2.304742422    0.309835134
   3  H       1.00    1.912913089   -4.331919059    0.264354931
   4  C       6.00   -0.180545411   -0.924209446   -0.242709501
   5  H       1.00    2.961008746   -1.728885285    2.161463136
   6  O       8.00   -2.175975881   -1.979594084   -0.664281893
   7  C       6.00    0.000897557    1.843377838   -0.242709501
   8  C       6.00    0.217795902    4.125669515   -0.244582933
   9  H       1.00    0.358317946    6.131437180   -0.249200123

 Bond lengths in Bohr (Angstrom)

 1-2  2.064106072  2-3  2.056111879  2-4  2.852428325  2-5  2.064106067  4-6  2.296367300
     ( 1.092277890)     ( 1.088047546)     ( 1.509440060)     ( 1.092277887)     ( 1.215185239)

 4-7  2.773528605  7-8  2.292575779  8-9  2.010689357
     ( 1.467688126)     ( 1.213178852)     ( 1.064010982)

 Bond angles

  1-2-3  110.59079745   1-2-4  109.34167026   1-2-5  107.58435920   2-4-6  123.68739547

  2-4-7  115.28502355   3-2-4  109.35874571   3-2-5  110.59079746   4-2-5  109.34167029

  4-7-8  178.32147069   6-4-7  121.02758099   7-8-9  178.57619461

 NUCLEAR CHARGE:                   36
 NUMBER OF PRIMITIVE AOS:         163
 NUMBER OF SYMMETRY AOS:          158
 NUMBER OF CONTRACTIONS:           90   (  90A   )
 NUMBER OF CORE ORBITALS:           5   (   5A   )
 NUMBER OF VALENCE ORBITALS:       24   (  24A   )


 NUCLEAR REPULSION ENERGY  142.24514503


 Eigenvalues of metric

         1 0.304E-03 0.211E-02 0.377E-02 0.954E-02 0.161E-01 0.176E-01 0.220E-01 0.329E-01


 Contracted 2-electron integrals neglected if value below      1.0D-16
 AO integral compression algorithm  1   Integral accuracy      1.0D-16

     71.303 MB (compressed) written to integral file ( 93.3%)

     Node minimum: 71.303 MB, node maximum: 71.303 MB


 NUMBER OF SORTED TWO-ELECTRON INTEGRALS:    8386560.     BUFFER LENGTH:  32768
 NUMBER OF SEGMENTS:   1  SEGMENT LENGTH:    8386560      RECORD LENGTH: 524288

 Memory used in sort:       8.94 MW

 SORT1 READ     9559587. AND WROTE     8262361. INTEGRALS IN     24 RECORDS. CPU TIME:     0.10 SEC, REAL TIME:     0.16 SEC
 SORT2 READ     8262361. AND WROTE     8386560. INTEGRALS IN    272 RECORDS. CPU TIME:     0.09 SEC, REAL TIME:     0.15 SEC

 FILE SIZES:   FILE 1:    65.4 MBYTE,  FILE 4:   100.7 MBYTE,   TOTAL:    166.1 MBYTE

 OPERATOR DM      FOR CENTER  0  COORDINATES:    0.000000    0.000000    0.000000


 **********************************************************************************************************************************
 DATASETS  * FILE   NREC   LENGTH (MB)   RECORD NAMES
              1      19       65.53       500      610      700      900      950      970     1000      129      960     1100   
                                          VAR    BASINP    GEOM    SYMINP    ZMAT    AOBASIS   BASIS     P2S    ABASIS      S 
                                         1400     1410     1200     1210     1080     1600     1650     1300     1700   
                                           T        V       H0       H01     AOSYM     SMH    MOLCAS    ERIS     OPER   

 PROGRAMS   *        TOTAL       INT
 CPU TIMES  *         1.59      1.45
 REAL TIME  *         2.29 SEC
 DISK USED  *       238.17 MB      
 GA USED    *         0.00 MB       (max)       0.00 MB       (current)
 **********************************************************************************************************************************

1PROGRAM * RHF-SCF (CLOSED SHELL)       Authors: W. Meyer, H.-J. Werner


 NUMBER OF ELECTRONS:      18+   18-    SPACE SYMMETRY=1    SPIN SYMMETRY: Singlet 
 CONVERGENCE THRESHOLDS:    1.00E-10 (Density)    1.00E-13 (Energy)
 MAX. NUMBER OF ITERATIONS:      200
 INTERPOLATION TYPE:            DIIS
 INTERPOLATION STEPS:              2 (START)      1 (STEP)
 LEVEL SHIFTS:                  0.00 (CLOSED)  0.00 (OPEN) 



 Orbital guess generated from atomic densities. Full valence occupancy:   29

 Molecular orbital dump at record        2100.2

 ITERATION    DDIFF          GRAD             ENERGY        2-EL.EN.            DIPOLE MOMENTS         DIIS
    1      0.000D+00      0.000D+00      -228.51845660    442.495615    1.87187    1.02649    0.39222    0
    2      0.000D+00      0.891D-02      -228.57143342    440.657032    0.80566    0.45093    0.16731    1
    3      0.212D-01      0.653D-02      -228.60353553    441.210135    1.19402    0.62298    0.25028    2
    4      0.781D-02      0.106D-02      -228.60538812    441.341974    1.13790    0.63274    0.23721    3
    5      0.236D-02      0.401D-03      -228.60565084    441.235710    1.13404    0.59063    0.23735    4
    6      0.828D-03      0.148D-03      -228.60568776    441.268254    1.13514    0.60074    0.23727    5
    7      0.318D-03      0.623D-04      -228.60569665    441.258141    1.13175    0.59317    0.23668    6
    8      0.161D-03      0.257D-04      -228.60569823    441.261205    1.13150    0.59247    0.23663    7
    9      0.758D-04      0.709D-05      -228.60569839    441.259944    1.13098    0.59198    0.23653    8
   10      0.276D-04      0.161D-05      -228.60569840    441.260377    1.13089    0.59197    0.23651    7
   11      0.535D-05      0.743D-06      -228.60569840    441.260146    1.13085    0.59197    0.23650    8
   12      0.229D-05      0.401D-06      -228.60569841    441.260185    1.13084    0.59196    0.23650    8
   13      0.181D-05      0.191D-06      -228.60569841    441.260174    1.13084    0.59195    0.23650    9
   14      0.819D-06      0.653D-07      -228.60569841    441.260176    1.13084    0.59195    0.23650    9
   15      0.268D-06      0.134D-07      -228.60569841    441.260177    1.13084    0.59195    0.23650    8
   16      0.465D-07      0.428D-08      -228.60569841    441.260177    1.13084    0.59195    0.23650    8
   17      0.901D-08      0.197D-08      -228.60569841    441.260177    1.13084    0.59195    0.23650    9
   18      0.428D-08      0.613D-09      -228.60569841    441.260177    1.13084    0.59195    0.23650    9
   19      0.149D-08      0.207D-09      -228.60569841    441.260177    1.13084    0.59195    0.23650    9
   20      0.546D-09      0.488D-10      -228.60569841    441.260177    1.13084    0.59195    0.23650    7
   21      0.133D-09      0.210D-10      -228.60569841    441.260177    1.13084    0.59195    0.23650    7
   22      0.529D-10      0.121D-10      -228.60569841    441.260177    1.13084    0.59195    0.23650    8
   23      0.466D-10      0.422D-11      -228.60569841    441.260177    1.13084    0.59195    0.23650    0

 Final occupancy:  18

 !RHF STATE 1.1 Energy               -228.605698405315
 Nuclear energy                       142.24514503
 One-electron energy                 -591.48093204
 Two-electron energy                  220.63008861
 Virial quotient                       -1.00147084
 !RHF STATE 1.1 Dipole moment           1.13083848     0.59194517     0.23649772
 Dipole moment /Debye                   2.87411647     1.50447600     0.60107786

 Orbital energies:

         1.1          2.1          3.1          4.1          5.1          6.1          7.1          8.1          9.1         10.1
    -20.568228   -11.368458   -11.272662   -11.261530   -11.252627    -1.403842    -1.070728    -1.015886    -0.860201    -0.732943

        11.1         12.1         13.1         14.1         15.1         16.1         17.1         18.1         19.1         20.1
     -0.684742    -0.636814    -0.614701    -0.571897    -0.517804    -0.445291    -0.417680    -0.414344     0.094301     0.180312


 **********************************************************************************************************************************
 DATASETS  * FILE   NREC   LENGTH (MB)   RECORD NAMES
              1      19       65.53       500      610      700      900      950      970     1000      129      960     1100   
                                          VAR    BASINP    GEOM    SYMINP    ZMAT    AOBASIS   BASIS     P2S    ABASIS      S 
                                         1400     1410     1200     1210     1080     1600     1650     1300     1700   
                                           T        V       H0       H01     AOSYM     SMH    MOLCAS    ERIS     OPER   

              2       3        0.57       700     1000     2100   
                                         GEOM     BASIS     RHF  

 PROGRAMS   *        TOTAL       RHF       INT
 CPU TIMES  *         3.05      1.46      1.45
 REAL TIME  *         4.01 SEC
 DISK USED  *       238.17 MB      
 GA USED    *         0.00 MB       (max)       0.00 MB       (current)
 **********************************************************************************************************************************


1PROGRAM * CCSD (Closed-shell coupled cluster)     Authors: C. Hampel, H.-J. Werner, 1991, M. Deegan, P.J. Knowles, 1992


 Convergence thresholds:  THRVAR = 1.00D-08  THRDEN = 1.00D-12

 CCSD(T)     terms to be evaluated (factor= 1.000)


 Number of core orbitals:           5 (   5 )
 Number of closed-shell orbitals:  13 (  13 )
 Number of external orbitals:      72 (  72 )

 Molecular orbitals read from record     2100.2  Type=RHF/CANONICAL (state 1.1)

 Number of N-1 electron functions:              13
 Number of N-2 electron functions:              91
 Number of singly external CSFs:               936
 Number of doubly external CSFs:            438516
 Total number of CSFs:                      439453

 Length of J-op  integral file:               0.00 MB
 Length of K-op  integral file:               0.59 MB
 Length of 3-ext integral record:             0.00 MB

 Memory could be reduced to 7.27 Mwords without degradation in triples

 Integral transformation finished. Total CPU:   0.42 sec, npass=  1  Memory used:   6.58 MW

 Reference energy:                   -228.60569841

 MP2 singlet pair energy:              -0.43051507
 MP2 triplet pair energy:              -0.26903504
 MP2 correlation energy:               -0.69955011
 MP2 total energy:                   -229.30524851

 SCS-MP2 correlation energy:           -0.68401766   (PS=  1.200000  PT=  0.333333)
 SCS-MP2 total energy:               -229.28971607

 ITER.      SQ.NORM     CORR.ENERGY   TOTAL ENERGY   ENERGY CHANGE        DEN1      VAR(S)    VAR(P)  DIIS     TIME
   1      1.25725296    -0.72721721  -229.33291562    -0.02766710    -0.00370555  0.60D-02  0.55D-02  1  1     1.38
   2      1.28000139    -0.72999006  -229.33568847    -0.00277285    -0.02080606  0.12D-03  0.98D-03  2  2     2.30
   3      1.29065785    -0.73076540  -229.33646380    -0.00077533    -0.00475979  0.11D-03  0.92D-04  3  3     3.21
   4      1.29494088    -0.73073021  -229.33642862     0.00003519    -0.00140739  0.80D-05  0.18D-04  4  4     4.12
   5      1.29680059    -0.73075126  -229.33644966    -0.00002104    -0.00044455  0.16D-05  0.20D-05  5  5     5.03
   6      1.29722558    -0.73074718  -229.33644559     0.00000407    -0.00006262  0.28D-06  0.27D-06  6  6     5.94
   7      1.29731325    -0.73074299  -229.33644139     0.00000420    -0.00000186  0.56D-07  0.30D-07  6  1     6.85
   8      1.29735133    -0.73074395  -229.33644236    -0.00000097    -0.00000947  0.11D-07  0.48D-08  6  2     7.76
   9      1.29735351    -0.73074405  -229.33644246    -0.00000010     0.00000298  0.17D-08  0.83D-09  6  3     8.67
  10      1.29735625    -0.73074377  -229.33644218     0.00000028    -0.00000057  0.33D-09  0.16D-09  6  4     9.57
  11      1.29735607    -0.73074402  -229.33644243    -0.00000025     0.00000057  0.42D-10  0.32D-10  6  5    10.49
  12      1.29735578    -0.73074398  -229.33644239     0.00000004     0.00000015  0.84D-11  0.62D-11  6  6    11.41
  13      1.29735543    -0.73074401  -229.33644241    -0.00000003     0.00000015  0.10D-11  0.16D-11  6  1    12.32
  14      1.29735520    -0.73074401  -229.33644242    -0.00000000     0.00000006  0.32D-12  0.24D-12  6  2    13.23
  15      1.29735509    -0.73074401  -229.33644242    -0.00000000     0.00000003  0.66D-13  0.53D-13  6  3    14.14
  16      1.29735504    -0.73074401  -229.33644242    -0.00000000     0.00000001  0.20D-13  0.11D-13  6  4    15.06
  17      1.29735502    -0.73074401  -229.33644242    -0.00000000     0.00000000  0.82D-14  0.19D-14  6  5    15.98
  18      1.29735502    -0.73074402  -229.33644242    -0.00000000    -0.00000000  0.30D-14  0.65D-15  6  6    16.90
  19      1.29735502    -0.73074402  -229.33644242    -0.00000000    -0.00000000  0.12D-14  0.26D-15  6  1    17.83
  20      1.29735502    -0.73074402  -229.33644242     0.00000000    -0.00000000  0.32D-15  0.10D-15  6  2    18.75
  21      1.29735502    -0.73074402  -229.33644242    -0.00000000     0.00000000  0.82D-16  0.28D-16  6  3    19.67
  22      1.29735502    -0.73074402  -229.33644242     0.00000000     0.00000000  0.82D-17  0.69D-17  6  4    20.58
  23      1.29735502    -0.73074402  -229.33644242     0.00000000     0.00000000  0.19D-17  0.10D-17  6  5    21.49
  24      1.29735502    -0.73074402  -229.33644242     0.00000000    -0.00000000  0.41D-18  0.17D-18  6  6    22.41
  25      1.29735502    -0.73074402  -229.33644242     0.00000000    -0.00000000  0.12D-18  0.36D-19  6  5    23.34
  26      1.29735502    -0.73074402  -229.33644242     0.00000000    -0.00000000  0.13D-19  0.65D-20  6  1    24.25
  27      1.29735502    -0.73074402  -229.33644242     0.00000000    -0.00000000  0.35D-20  0.74D-21  6  2    25.17
  28      1.29735502    -0.73074402  -229.33644242     0.00000000    -0.00000000  0.62D-21  0.22D-21  6  3    26.08

 Norm of t1 vector:      0.10833787      S-energy:     0.00000000      T1 diagnostic:  0.01502376
                                                                       D1 diagnostic:  0.05037950

 Doubles amplitudes (print threshold =  0.500E-01):

         I         J         SYM. A    SYM. B    A         B      T(IJ, AB)

        10        10         1         1         1         1     -0.05816201
        12        12         1         1         2         2     -0.06474322
        13        13         1         1         1         1     -0.07381407


 Total CPU time for triples:      9.31 sec


 RESULTS
 =======

  Reference energy                   -228.605698405315
  CCSD singlet pair energy             -0.496625768155
  CCSD triplet pair energy             -0.234118246979
  CCSD correlation energy              -0.730744015132

  Triples (T) contribution             -0.028476910427
  Total correlation energy             -0.759220925559

  CCSD total energy                  -229.336442420446
  CCSD[T] energy                     -229.366775291653
  CCSD-T energy                      -229.364216536827
 !CCSD(T) total energy               -229.364919330873

 Timing summary (sec):

 STEP                 CPU(USER)    SYS     CPU(TOT)    WALL
 Transformation          0.45      0.06      0.51      0.51
 CCSD iterations        25.63      0.89     26.52     26.62
 Triples                 9.31      0.20      9.51      9.52

 Program statistics:

 Available memory in ccsd:               999999224
 Min. memory needed in ccsd:               1253983
 Max. memory used in ccsd:                 1626745
 Max. memory used in cckext:               1605212 (28 integral passes)



 **********************************************************************************************************************************
 DATASETS  * FILE   NREC   LENGTH (MB)   RECORD NAMES
              1      20       94.28       500      610      700      900      950      970     1000      129      960     1100   
                                          VAR    BASINP    GEOM    SYMINP    ZMAT    AOBASIS   BASIS     P2S    ABASIS      S 
                                         1400     1410     1200     1210     1080     1600     1650     1300     1700     1380   
                                           T        V       H0       H01     AOSYM     SMH    MOLCAS    ERIS     OPER     JKOP   

              2       3        0.57       700     1000     2100   
                                         GEOM     BASIS     RHF  

 PROGRAMS   *        TOTAL   CCSD(T)       RHF       INT
 CPU TIMES  *        38.45     35.40      1.46      1.45
 REAL TIME  *        40.71 SEC
 DISK USED  *       244.32 MB      
 GA USED    *         0.00 MB       (max)       0.00 MB       (current)
 **********************************************************************************************************************************

        CCSD(T)         RHF-SCF 
   -229.36491933   -228.60569841
 **********************************************************************************************************************************
 Variable memory released
