
 Primary working directories    : /tmp/943420.114.gen4.q
 Secondary working directories  : /tmp/943420.114.gen4.q
 Wavefunction directory         : /home/vulcan/mel64643/wfu/
 Main file repository           : /tmp/943420.114.gen4.q/

 ARCHNAME  : Linux/x86_64
 FC        : /opt/intel/compilers_and_libraries_2016.1.150/linux/bin/intel64/ifort
 FCVERSION : 16.0.1
 BLASLIB   : -mkl
 id        : ccgc

 Nodes     nprocs
 n049         1
 ga_uses_ma=false, calling ma_init with nominal heap.
 GA-space will be limited to   8.0 MW (determined by -G option)

 Using customized tuning parameters: mindgm=10; mindgv=16; mindgc=4; mindgr=1; noblas=0; mincuda=1000; minvec=7
 default implementation of scratch files=df  

 ***,Optimization of nh3_nitrosmethane
 memory,1000,m
 gthresh,energy=1.0d-12,orbital=1.0d-10,oneint=1.0d-16,twoint=1.0d-16,optgrad=1.0d-6,compress=1.0d-13
 geomtyp=xyz
 
 bohr
 geometry = {
  N   -5.2237120494   -0.1826560348    0.0021399896
  H   -6.3057722560    0.2327068313   -1.5355000423
  H   -3.7587005205    1.0596282595   -0.0031855916
  H   -6.2898776149    0.2333900517    1.5330389140
  H   -0.9246436762   -2.4127422168   -0.0004467630
  H    1.8874862039   -3.4341897872   -1.6665794795
  H    1.8863340559   -3.4355420423    1.6668001837
  C    1.1361612098   -2.4739169873    0.0002406925
  N    2.2554991779    0.0987751446    0.0016712639
  O    0.7013439594    1.7916037903    0.0018208327
 }
 
 basis=aug-cc-pvdz, H=cc-pvdz
 {rhf;maxit,200}
 {ccsd(t);maxit,200}

 Variables initialized (661), CPU time= 0.00 sec
 Commands  initialized (458), CPU time= 0.00 sec, 486 directives.
 Default parameters read. Elapsed time= 0.05 sec

 Checking input...
 Passed
1


                                         ***  PROGRAM SYSTEM MOLPRO  ***
                         Copyright, University College Cardiff Consultants Limited, 2008

                                    Version 2010.1 linked May 16 2016 07:17:05


 **********************************************************************************************************************************
 LABEL *   Optimization of nh3_nitrosmethane                                             
 Linux-4.4.3/n049(x86_64) 64 bit mpp version                                             DATE: 26-Oct-23          TIME: 07:28:34  
 **********************************************************************************************************************************

 SHA1:             9e8077add272b0f3cad6f7df79ec5211205f459d
 **********************************************************************************************************************************

 THRESHOLDS:

 ZERO    =  1.00D-12  ONEINT  =  1.00D-16  TWOINT  =  1.00D-16  PREFAC  =  1.00D-14  LOCALI  =  1.00D-09  EORDER  =  1.00D-04
 ENERGY  =  1.00D-12  ETEST   =  0.00D+00  EDENS   =  0.00D+00  THRDEDEF=  1.00D-06  GRADIENT=  1.00D-02  STEP    =  1.00D-03
 ORBITAL =  1.00D-10  CIVEC   =  1.00D-05  COEFF   =  1.00D-04  PRINTCI =  5.00D-02  PUNCHCI =  9.90D+01  OPTGRAD =  1.00D-06
 OPTENERG=  1.00D-06  OPTSTEP =  3.00D-04  THRGRAD =  1.00D-10  COMPRESS=  1.00D-13  VARMIN  =  1.00D-07  VARMAX  =  1.00D-03
 THRDOUB =  0.00D+00  THRDIV  =  1.00D-05  THRRED  =  1.00D-07  THRPSP  =  1.00D+00  THRDC   =  1.00D-10  THRCS   =  1.00D-10
 THRNRM  =  1.00D-08  THREQ   =  0.00D+00  THRDE   =  1.00D+00  THRREF  =  1.00D-05  SPARFAC =  1.00D+00  THRDLP  =  1.00D-07
 THRDIA  =  1.00D-10  THRDLS  =  1.00D-07  THRGPS  =  0.00D+00  THRKEX  =  0.00D+00  THRDIS  =  2.00D-01  THRVAR  =  1.00D-10
 THRLOC  =  1.00D-06  THRGAP  =  1.00D-06  THRLOCT = -1.00D+00  THRGAPT = -1.00D+00  THRORB  =  1.00D-06  THRMLTP =  0.00D+00
 THRCPQCI=  1.00D-10  KEXTA   =  0.00D+00  THRCOARS=  0.00D+00  SYMTOL  =  1.00D-06  GRADTOL =  1.00D-06  THROVL  =  1.00D-08
 THRORTH =  1.00D-08  GRID    =  1.00D-06  GRIDMAX =  1.00D-03  DTMAX   =  0.00D+00

 SETTING GEOMTYP        =    XYZ
 ZUNIT=BOHR
 

 Variable memory set to 1000000000 words,  buffer space   230000 words

 SETTING BASIS          =    AUG-CC-PVDZ,H=CC-PVDZ


 Recomputing integrals since basis changed


 Using spherical harmonics

 Library entry N      S aug-cc-pVDZ          selected for orbital group  1
 Library entry N      P aug-cc-pVDZ          selected for orbital group  1
 Library entry N      D aug-cc-pVDZ          selected for orbital group  1
 Library entry H      S cc-pVDZ              selected for orbital group  2
 Library entry H      P cc-pVDZ              selected for orbital group  2
 Library entry C      S aug-cc-pVDZ          selected for orbital group  3
 Library entry C      P aug-cc-pVDZ          selected for orbital group  3
 Library entry C      D aug-cc-pVDZ          selected for orbital group  3
 Library entry O      S aug-cc-pVDZ          selected for orbital group  5
 Library entry O      P aug-cc-pVDZ          selected for orbital group  5
 Library entry O      D aug-cc-pVDZ          selected for orbital group  5

1PROGRAM * SEWARD (Integral evaluation for generally contracted gaussian basis sets)     Author: Roland Lindh, 1990

 Geometry written to block  1 of record 700


 Point group  C1  



 ATOMIC COORDINATES

 NR  ATOM    CHARGE       X              Y              Z

   1  N       7.00   -5.223712049   -0.182656035    0.002139990
   2  H       1.00   -6.305772256    0.232706831   -1.535500042
   3  H       1.00   -3.758700521    1.059628259   -0.003185592
   4  H       1.00   -6.289877615    0.233390052    1.533038914
   5  H       1.00   -0.924643676   -2.412742217   -0.000446763
   6  H       1.00    1.887486204   -3.434189787   -1.666579479
   7  H       1.00    1.886334056   -3.435542042    1.666800184
   8  C       6.00    1.136161210   -2.473916987    0.000240693
   9  N       7.00    2.255499178    0.098775145    0.001671264
  10  O       8.00    0.701343959    1.791603790    0.001820833

 Bond lengths in Bohr (Angstrom)

 1-2  1.925543422  1-3  1.920822066  1-4  1.911401286  5-8  2.061712784  6-8  2.065164057
     ( 1.018953694)     ( 1.016455260)     ( 1.011469998)     ( 1.091011417)     ( 1.092837752)

  7- 8  2.065164057   8- 9  2.805648649   9-10  2.298057286
       ( 1.092837752)       ( 1.484685321)       ( 1.216079541)

 Bond angles

  2-1-3  106.67095363   2-1-4  106.21107472   3-1-4  106.67095343   5-8-6  112.15889928

  5-8-7  112.15889815   5-8-9  111.81278836   6-8-7  107.61734850   6-8-9  106.35838663

  7- 8- 9  106.35838603   8- 9-10  113.93242076

 NUCLEAR CHARGE:                   34
 NUMBER OF PRIMITIVE AOS:         190
 NUMBER OF SYMMETRY AOS:          182
 NUMBER OF CONTRACTIONS:          122   ( 122A   )
 NUMBER OF CORE ORBITALS:           4   (   4A   )
 NUMBER OF VALENCE ORBITALS:       22   (  22A   )


 NUCLEAR REPULSION ENERGY  117.34350197


 Eigenvalues of metric

         1 0.466E-03 0.142E-02 0.196E-02 0.432E-02 0.527E-02 0.747E-02 0.800E-02 0.854E-02


 Contracted 2-electron integrals neglected if value below      1.0D-16
 AO integral compression algorithm  1   Integral accuracy      1.0D-16

     231.211 MB (compressed) written to integral file ( 85.9%)

     Node minimum: 231.211 MB, node maximum: 231.211 MB


 NUMBER OF SORTED TWO-ELECTRON INTEGRALS:   28151256.     BUFFER LENGTH:  32768
 NUMBER OF SEGMENTS:   2  SEGMENT LENGTH:   15997996      RECORD LENGTH: 524288

 Memory used in sort:      16.56 MW

 SORT1 READ    33603370. AND WROTE    27855383. INTEGRALS IN     81 RECORDS. CPU TIME:     0.33 SEC, REAL TIME:     0.50 SEC
 SORT2 READ    27855383. AND WROTE    28151256. INTEGRALS IN    882 RECORDS. CPU TIME:     0.27 SEC, REAL TIME:     0.39 SEC

 FILE SIZES:   FILE 1:   199.1 MBYTE,  FILE 4:   339.8 MBYTE,   TOTAL:    538.9 MBYTE

 OPERATOR DM      FOR CENTER  0  COORDINATES:    0.000000    0.000000    0.000000


 **********************************************************************************************************************************
 DATASETS  * FILE   NREC   LENGTH (MB)   RECORD NAMES
              1      19      199.28       500      610      700      900      950      970     1000      129      960     1100   
                                          VAR    BASINP    GEOM    SYMINP    ZMAT    AOBASIS   BASIS     P2S    ABASIS      S 
                                         1400     1410     1200     1210     1080     1600     1650     1300     1700   
                                           T        V       H0       H01     AOSYM     SMH    MOLCAS    ERIS     OPER   

 PROGRAMS   *        TOTAL       INT
 CPU TIMES  *         2.16      2.12
 REAL TIME  *         2.74 SEC
 DISK USED  *       770.87 MB      
 GA USED    *         0.00 MB       (max)       0.00 MB       (current)
 **********************************************************************************************************************************

1PROGRAM * RHF-SCF (CLOSED SHELL)       Authors: W. Meyer, H.-J. Werner


 NUMBER OF ELECTRONS:      17+   17-    SPACE SYMMETRY=1    SPIN SYMMETRY: Singlet 
 CONVERGENCE THRESHOLDS:    1.00E-10 (Density)    1.00E-13 (Energy)
 MAX. NUMBER OF ITERATIONS:      200
 INTERPOLATION TYPE:            DIIS
 INTERPOLATION STEPS:              2 (START)      1 (STEP)
 LEVEL SHIFTS:                  0.00 (CLOSED)  0.00 (OPEN) 



 Orbital guess generated from atomic densities. Full valence occupancy:   26

 Molecular orbital dump at record        2100.2

 ITERATION    DDIFF          GRAD             ENERGY        2-EL.EN.            DIPOLE MOMENTS         DIIS
    1      0.000D+00      0.000D+00      -224.96512431    392.985007    0.06704   -0.58106   -0.00586    0
    2      0.000D+00      0.709D-02      -225.02593125    392.632010   -0.57636   -0.37925   -0.00079    1
    3      0.132D-01      0.495D-02      -225.05963236    393.168585   -0.23524   -0.55942   -0.00140    2
    4      0.571D-02      0.995D-03      -225.06190406    393.004660   -0.31291   -0.46177   -0.00124    3
    5      0.147D-02      0.393D-03      -225.06232874    393.016358   -0.31067   -0.49137   -0.00098    4
    6      0.638D-03      0.952D-04      -225.06237108    393.043518   -0.31601   -0.48855   -0.00095    5
    7      0.218D-03      0.363D-04      -225.06237713    393.027492   -0.31764   -0.48866   -0.00094    6
    8      0.864D-04      0.147D-04      -225.06237812    393.033975   -0.31865   -0.48859   -0.00094    7
    9      0.331D-04      0.632D-05      -225.06237833    393.032803   -0.31892   -0.48829   -0.00094    8
   10      0.183D-04      0.193D-05      -225.06237836    393.032519   -0.31900   -0.48811   -0.00094    8
   11      0.562D-05      0.651D-06      -225.06237836    393.032624   -0.31902   -0.48802   -0.00094    8
   12      0.184D-05      0.197D-06      -225.06237836    393.032589   -0.31902   -0.48799   -0.00094    8
   13      0.686D-06      0.619D-07      -225.06237836    393.032583   -0.31902   -0.48799   -0.00094    8
   14      0.166D-06      0.312D-07      -225.06237836    393.032585   -0.31902   -0.48799   -0.00094    9
   15      0.769D-07      0.299D-08      -225.06237836    393.032585   -0.31902   -0.48799   -0.00094    8
   16      0.765D-08      0.830D-09      -225.06237836    393.032585   -0.31902   -0.48799   -0.00094    7
   17      0.263D-08      0.179D-09      -225.06237836    393.032585   -0.31902   -0.48799   -0.00094    7
   18      0.437D-09      0.624D-10      -225.06237836    393.032585   -0.31902   -0.48799   -0.00094    7
   19      0.144D-09      0.199D-10      -225.06237836    393.032585   -0.31902   -0.48799   -0.00094    7
   20      0.534D-10      0.634D-11      -225.06237836    393.032585   -0.31902   -0.48799   -0.00094    6
   21      0.177D-10      0.262D-11      -225.06237836    393.032585   -0.31902   -0.48799   -0.00094    0

 Final occupancy:  17

 !RHF STATE 1.1 Energy               -225.062378359014
 Nuclear energy                       117.34350197
 One-electron energy                 -538.92217294
 Two-electron energy                  196.51629261
 Virial quotient                       -1.00221153
 !RHF STATE 1.1 Dipole moment          -0.31902270    -0.48798712    -0.00094235
 Dipole moment /Debye                  -0.81082170    -1.24025830    -0.00239505

 Orbital energies:

         1.1          2.1          3.1          4.1          5.1          6.1          7.1          8.1          9.1         10.1
    -20.640566   -15.714557   -15.548812   -11.271644    -1.514820    -1.139975    -1.076729    -0.862247    -0.691279    -0.676301

        11.1         12.1         13.1         14.1         15.1         16.1         17.1         18.1         19.1
     -0.636231    -0.624411    -0.622540    -0.556175    -0.534798    -0.428095    -0.405613     0.077420     0.084490


 **********************************************************************************************************************************
 DATASETS  * FILE   NREC   LENGTH (MB)   RECORD NAMES
              1      19      199.28       500      610      700      900      950      970     1000      129      960     1100   
                                          VAR    BASINP    GEOM    SYMINP    ZMAT    AOBASIS   BASIS     P2S    ABASIS      S 
                                         1400     1410     1200     1210     1080     1600     1650     1300     1700   
                                           T        V       H0       H01     AOSYM     SMH    MOLCAS    ERIS     OPER   

              2       3        0.72       700     1000     2100   
                                         GEOM     BASIS     RHF  

 PROGRAMS   *        TOTAL       RHF       INT
 CPU TIMES  *         7.19      5.03      2.12
 REAL TIME  *         8.25 SEC
 DISK USED  *       770.87 MB      
 GA USED    *         0.00 MB       (max)       0.00 MB       (current)
 **********************************************************************************************************************************


1PROGRAM * CCSD (Closed-shell coupled cluster)     Authors: C. Hampel, H.-J. Werner, 1991, M. Deegan, P.J. Knowles, 1992


 Convergence thresholds:  THRVAR = 1.00D-08  THRDEN = 1.00D-12

 CCSD(T)     terms to be evaluated (factor= 1.000)


 Number of core orbitals:           4 (   4 )
 Number of closed-shell orbitals:  13 (  13 )
 Number of external orbitals:     105 ( 105 )

 Molecular orbitals read from record     2100.2  Type=RHF/CANONICAL (state 1.1)

 Number of N-1 electron functions:              13
 Number of N-2 electron functions:              91
 Number of singly external CSFs:              1365
 Number of doubly external CSFs:            932295
 Total number of CSFs:                      933661

 Length of J-op  integral file:               0.00 MB
 Length of K-op  integral file:               1.06 MB
 Length of 3-ext integral record:             0.00 MB

 Memory could be reduced to 20.68 Mwords without degradation in triples

 Integral transformation finished. Total CPU:   1.26 sec, npass=  1  Memory used:  15.40 MW

 Reference energy:                   -225.06237836

 MP2 singlet pair energy:              -0.44859092
 MP2 triplet pair energy:              -0.26462948
 MP2 correlation energy:               -0.71322040
 MP2 total energy:                   -225.77559876

 SCS-MP2 correlation energy:           -0.70296744   (PS=  1.200000  PT=  0.333333)
 SCS-MP2 total energy:               -225.76534580

 ITER.      SQ.NORM     CORR.ENERGY   TOTAL ENERGY   ENERGY CHANGE        DEN1      VAR(S)    VAR(P)  DIIS     TIME
   1      1.24161380    -0.74721446  -225.80959282    -0.03399406    -0.01021251  0.53D-02  0.49D-02  1  1     3.90
   2      1.26340610    -0.75029889  -225.81267725    -0.00308443    -0.02111736  0.17D-03  0.87D-03  2  2     6.56
   3      1.27342826    -0.75100655  -225.81338491    -0.00070766    -0.00461449  0.12D-03  0.62D-04  3  3     9.21
   4      1.27759300    -0.75097165  -225.81335001     0.00003490    -0.00137542  0.11D-04  0.11D-04  4  4    11.90
   5      1.27925544    -0.75098971  -225.81336806    -0.00001805    -0.00036219  0.19D-05  0.17D-05  5  5    14.58
   6      1.27971974    -0.75095883  -225.81333719     0.00003087    -0.00005535  0.16D-06  0.33D-06  6  6    17.27
   7      1.27982182    -0.75095599  -225.81333435     0.00000284    -0.00000391  0.34D-07  0.88D-07  6  2    19.96
   8      1.27984593    -0.75095678  -225.81333514    -0.00000079    -0.00000035  0.44D-08  0.21D-07  6  1    22.64
   9      1.27984621    -0.75095618  -225.81333454     0.00000060     0.00000440  0.26D-08  0.32D-08  6  4    25.33
  10      1.27984855    -0.75095698  -225.81333534    -0.00000080    -0.00000122  0.54D-09  0.45D-09  6  3    28.01
  11      1.27984645    -0.75095719  -225.81333555    -0.00000021     0.00000044  0.18D-09  0.80D-10  6  5    30.69
  12      1.27984492    -0.75095726  -225.81333562    -0.00000007     0.00000032  0.40D-10  0.17D-10  6  6    33.36
  13      1.27984329    -0.75095738  -225.81333574    -0.00000012     0.00000040  0.57D-11  0.40D-11  6  1    36.05
  14      1.27984260    -0.75095740  -225.81333575    -0.00000001     0.00000018  0.13D-11  0.57D-12  6  2    38.72
  15      1.27984234    -0.75095740  -225.81333576    -0.00000001     0.00000005  0.21D-12  0.88D-13  6  4    41.41
  16      1.27984228    -0.75095741  -225.81333577    -0.00000000     0.00000001  0.60D-13  0.24D-13  6  3    44.09
  17      1.27984226    -0.75095741  -225.81333577     0.00000000    -0.00000000  0.11D-13  0.51D-14  6  6    46.78
  18      1.27984226    -0.75095741  -225.81333577    -0.00000000    -0.00000000  0.20D-14  0.11D-14  6  5    49.47
  19      1.27984226    -0.75095741  -225.81333577     0.00000000    -0.00000000  0.61D-15  0.27D-15  6  1    52.15
  20      1.27984226    -0.75095741  -225.81333577     0.00000000    -0.00000000  0.37D-15  0.93D-16  6  2    54.84
  21      1.27984226    -0.75095741  -225.81333577     0.00000000     0.00000000  0.23D-15  0.34D-16  6  4    57.51
  22      1.27984226    -0.75095741  -225.81333577     0.00000000    -0.00000000  0.14D-15  0.17D-16  6  6    60.21
  23      1.27984226    -0.75095741  -225.81333577    -0.00000000     0.00000000  0.64D-16  0.10D-16  6  3    62.90
  24      1.27984226    -0.75095741  -225.81333577    -0.00000000    -0.00000000  0.18D-16  0.59D-17  6  5    65.58
  25      1.27984226    -0.75095741  -225.81333577     0.00000000    -0.00000000  0.42D-17  0.31D-17  6  1    68.25
  26      1.27984226    -0.75095741  -225.81333577    -0.00000000    -0.00000000  0.47D-18  0.91D-18  6  4    70.93
  27      1.27984226    -0.75095741  -225.81333577     0.00000000    -0.00000000  0.35D-19  0.19D-18  6  2    73.61
  28      1.27984226    -0.75095741  -225.81333577     0.00000000    -0.00000000  0.20D-19  0.45D-19  6  3    76.28
  29      1.27984226    -0.75095741  -225.81333577     0.00000000    -0.00000000  0.29D-20  0.82D-20  6  6    78.96
  30      1.27984226    -0.75095741  -225.81333577     0.00000000    -0.00000000  0.15D-20  0.15D-20  6  5    81.64

 Norm of t1 vector:      0.11133834      S-energy:     0.00000000      T1 diagnostic:  0.01543985
                                                                       D1 diagnostic:  0.04952753

 Doubles amplitudes (print threshold =  0.500E-01):

         I         J         SYM. A    SYM. B    A         B      T(IJ, AB)

        11        11         1         1         2         2     -0.05750622


 Total CPU time for triples:     39.34 sec


 RESULTS
 =======

  Reference energy                   -225.062378359014
  CCSD singlet pair energy             -0.516892019245
  CCSD triplet pair energy             -0.234065387074
  CCSD correlation energy              -0.750957406317

  Triples (T) contribution             -0.026304741587
  Total correlation energy             -0.777262147904

  CCSD total energy                  -225.813335765331
  CCSD[T] energy                     -225.841253170009
  CCSD-T energy                      -225.839147657177
 !CCSD(T) total energy               -225.839640506918

 Timing summary (sec):

 STEP                 CPU(USER)    SYS     CPU(TOT)    WALL
 Transformation          1.31      0.14      1.45      1.44
 CCSD iterations        80.33      2.24     82.57     82.66
 Triples                39.34      0.75     40.09     40.11

 Program statistics:

 Available memory in ccsd:               999999224
 Min. memory needed in ccsd:               2510565
 Max. memory used in ccsd:                 3320127
 Max. memory used in cckext:               2903072 (30 integral passes)



 **********************************************************************************************************************************
 DATASETS  * FILE   NREC   LENGTH (MB)   RECORD NAMES
              1      20      276.68       500      610      700      900      950      970     1000      129      960     1100   
                                          VAR    BASINP    GEOM    SYMINP    ZMAT    AOBASIS   BASIS     P2S    ABASIS      S 
                                         1400     1410     1200     1210     1080     1600     1650     1300     1700     1380   
                                           T        V       H0       H01     AOSYM     SMH    MOLCAS    ERIS     OPER     JKOP   

              2       3        0.72       700     1000     2100   
                                         GEOM     BASIS     RHF  

 PROGRAMS   *        TOTAL   CCSD(T)       RHF       INT
 CPU TIMES  *       128.18    120.99      5.03      2.12
 REAL TIME  *       132.50 SEC
 DISK USED  *       770.87 MB      
 GA USED    *         0.00 MB       (max)       0.00 MB       (current)
 **********************************************************************************************************************************

        CCSD(T)         RHF-SCF 
   -225.83964051   -225.06237836
 **********************************************************************************************************************************
 Variable memory released
