
    -----------------------------------------------------------------------
          Psi4: An Open-Source Ab Initio Electronic Structure Package
                               Psi4 1.4a2.dev629 

                         Git: Rev {master} 2938fc2 dirty


    D. G. A. Smith, L. A. Burns, A. C. Simmonett, R. M. Parrish,
    M. C. Schieber, R. Galvelis, P. Kraus, H. Kruse, R. Di Remigio,
    A. Alenaizan, A. M. James, S. Lehtola, J. P. Misiewicz, M. Scheurer,
    R. A. Shaw, J. B. Schriber, Y. Xie, Z. L. Glick, D. A. Sirianni,
    J. S. O'Brien, J. M. Waldrop, A. Kumar, E. G. Hohenstein,
    B. P. Pritchard, B. R. Brooks, H. F. Schaefer III, A. Yu. Sokolov,
    K. Patkowski, A. E. DePrince III, U. Bozkaya, R. A. King,
    F. A. Evangelista, J. M. Turney, T. D. Crawford, C. D. Sherrill,
    J. Chem. Phys. 152(18) 184108 (2020). https://doi.org/10.1063/5.0006002

                            Additional Code Authors
    E. T. Seidl, C. L. Janssen, E. F. Valeev, M. L. Leininger,
    J. F. Gonthier, R. M. Richard, H. R. McAlexander, M. Saitow, X. Wang,
    P. Verma, and M. H. Lechner

             Previous Authors, Complete List of Code Contributors,
                       and Citations for Specific Modules
    https://github.com/psi4/psi4/blob/master/codemeta.json
    https://github.com/psi4/psi4/graphs/contributors
    http://psicode.org/psi4manual/master/introduction.html#citing-psifour

    -----------------------------------------------------------------------


    Psi4 started on: Tuesday, 02 November 2021 05:21PM

    Process ID: 14829
    Host:       n049
    PSIDATADIR: /opt/psi/4/master/share/psi4
    Memory:     500.0 MiB
    Threads:    1
    
  ==> Input File <==

--------------------------------------------------------------------------
import os
memory 14 GB 
 
molecule {
 N    4.4311837120   -0.0130109275    0.0020576041
 X    2.2380672400    1.0000000000   -0.0000000000
 C    2.2380647225    0.0004156803    0.0010730396
 X    2.2380672400    0.0000000000    1.0000000000
 C   -0.5761645099    0.0028457278    0.0012921128
 F   -1.4530301457    1.1807191892   -2.0333356088
 F   -1.4181085994   -2.3601186978   -0.0063412219
 F   -1.4446317995    1.1891490280    2.0352540743
units bohr
}

basis {

assign 6-31g_2dfp_

[ 6-31g_2dfp_ ]
spherical

!----------------------------------------------------------------------
! Basis Set Exchange
! Version v0.8.13
! https://www.basissetexchange.org
!----------------------------------------------------------------------
!   Basis set: 6-31G(2df,p)
! Description: 6-31G(2df,p)
!        Role: orbital
!     Version: 0  (Data from the original Basis Set Exchange)
!----------------------------------------------------------------------


****
F     0
S    6   1.00
   7001.7130900              0.0018196169
   1051.3660900              0.0139160796
    239.2856900              0.0684053245
     67.3974453              0.233185760
     21.5199573              0.471267439
      7.40310130             0.356618546
SP   3   1.00
     20.8479528             -0.108506975            0.0716287243
      4.80830834            -0.146451658            0.3459121030
      1.34406986             1.128688580            0.7224699570
SP   1   1.00
      0.358151393            1.0000000              1.0000000
D    1   1.00
      3.5000000              1.0000000
D    1   1.00
      0.8750000              1.0000000
F    1   1.00
      1.8500000              1.0000000
****
C     0
S    6   1.00
   3047.5249000              0.0018347
    457.3695100              0.0140373
    103.9486900              0.0688426
     29.2101550              0.2321844
      9.2866630              0.4679413
      3.1639270              0.3623120
SP   3   1.00
      7.8682724             -0.1193324              0.0689991
      1.8812885             -0.1608542              0.3164240
      0.5442493              1.1434564              0.7443083
SP   1   1.00
      0.1687144              1.0000000              1.0000000
D    1   1.00
      1.2520000              1.0000000
D    1   1.00
      0.3130000              1.0000000
F    1   1.00
      0.8000000              1.0000000
****
N     0
S    6   1.00
   4173.5110000              0.0018348
    627.4579000              0.0139950
    142.9021000              0.0685870
     40.2343300              0.2322410
     12.8202100              0.4690700
      4.3904370              0.3604550
SP   3   1.00
     11.6263580             -0.1149610              0.0675800
      2.7162800             -0.1691180              0.3239070
      0.7722180              1.1458520              0.7408950
SP   1   1.00
      0.2120313              1.0000000              1.0000000
D    1   1.00
      1.8260000              1.0000000
D    1   1.00
      0.4565000              1.0000000
F    1   1.00
      1.0000000              1.0000000
****
}


set {
opt_type min                            
reference rhf                          
freeze_core true
e_convergence 10                       
d_convergence 10                      
ensure_bt_convergence true           
dft_spherical_points 590
dft_radial_points 99
}

e = energy('b3lyp')

print_out('Grab this energy {0}'.format(e))
--------------------------------------------------------------------------

  Memory set to  13.039 GiB by Python driver.

Scratch directory: /tmp/

*** tstart() called on n049
*** at Tue Nov  2 17:21:48 2021

   => Loading Basis Set <=

    Name: ANONYMOUS639A39A5
    Role: ORBITAL
    Keyword: BASIS
    atoms 1   entry N          line    57 inputblock 6-31g_2dfp_ 
    atoms 2-3 entry C          line    36 inputblock 6-31g_2dfp_ 
    atoms 4-6 entry F          line    15 inputblock 6-31g_2dfp_ 


         ---------------------------------------------------------
                                   SCF
               by Justin Turney, Rob Parrish, Andy Simmonett
                          and Daniel G. A. Smith
                              RKS Reference
                        1 Threads,  13351 MiB Core
         ---------------------------------------------------------

  ==> Geometry <==

    Molecular point group: c1
    Full point group: C1

    Geometry (in Bohr), charge = 0, multiplicity = 1:

       Center              X                  Y                   Z               Mass       
    ------------   -----------------  -----------------  -----------------  -----------------
         N            4.431181109496    -0.013454822013     0.002340037602    14.003074004430
         C            2.238062119996    -0.000028214213     0.001355473102    12.000000000000
         C           -0.576167112404     0.002401833287     0.001574546302    12.000000000000
         F           -1.453032748204     1.180275294687    -2.033053175298    18.998403162730
         F           -1.418111201904    -2.360562592313    -0.006058788398    18.998403162730
         F           -1.444634402004     1.188705133487     2.035536507802    18.998403162730

  Running in c1 symmetry.

  Rotational constants: A =      0.19026  B =      0.09803  C =      0.09766 [cm^-1]
  Rotational constants: A =   5703.96610  B =   2938.96223  C =   2927.89188 [MHz]
  Nuclear repulsion =  231.416530039223119

  Charge       = 0
  Multiplicity = 1
  Electrons    = 46
  Nalpha       = 23
  Nbeta        = 23

  ==> Algorithm <==

  SCF Algorithm Type is DF.
  DIIS enabled.
  MOM disabled.
  Fractional occupation disabled.
  Guess Type is SAD.
  Energy threshold   = 1.00e-10
  Density threshold  = 1.00e-10
  Integral threshold = 0.00e+00

  ==> Primary Basis <==

  Basis Set: ANONYMOUS639A39A5
    Blend: 6-31G_2DFP_
    Number of shells: 48
    Number of basis function: 156
    Number of Cartesian functions: 186
    Spherical Harmonics?: true
    Max angular momentum: 3

  ==> DFT Potential <==

   => Composite Functional: B3LYP <= 

    B3LYP Hyb-GGA Exchange-Correlation Functional

    P. J. Stephens, F. J. Devlin, C. F. Chabalowski, and M. J. Frisch, J. Phys. Chem. 98, 11623 (1994)

    Deriv               =              1
    GGA                 =           TRUE
    Meta                =          FALSE

    Exchange Hybrid     =           TRUE
    MP2 Hybrid          =          FALSE

   => Exchange Functionals <=

    0.0800   Slater exchange
    0.7200         Becke 88

   => Exact (HF) Exchange <=

    0.2000               HF 

   => Correlation Functionals <=

    0.1900   Vosko, Wilk & Nusair (VWN5_RPA)
    0.8100   Lee, Yang & Parr

   => Molecular Quadrature <=

    Radial Scheme          =       TREUTLER
    Pruning Scheme         =           NONE
    Nuclear Scheme         =       TREUTLER

    BS radius alpha        =              1
    Pruning alpha          =              1
    Radial Points          =             99
    Spherical Points       =            590
    Total Points           =         330011
    Total Blocks           =           2469
    Max Points             =            256
    Max Functions          =            153
    Weights Tolerance      =       1.00E-15

   => Loading Basis Set <=

    Name: (ANONYMOUS639A39A5 AUX)
    Role: JKFIT
    Keyword: DF_BASIS_SCF
    atoms 1   entry N          line   258 file /opt/psi/4/master/share/psi4/basis/def2-universal-jkfit.gbs 
    atoms 2-3 entry C          line   198 file /opt/psi/4/master/share/psi4/basis/def2-universal-jkfit.gbs 
    atoms 4-6 entry F          line   378 file /opt/psi/4/master/share/psi4/basis/def2-universal-jkfit.gbs 

  ==> Integral Setup <==

  DFHelper Memory: AOs need 0.087 GiB; user supplied 8.687 GiB. Using in-core AOs.

  ==> MemDFJK: Density-Fitted J/K Matrices <==

    J tasked:                   Yes
    K tasked:                   Yes
    wK tasked:                   No
    OpenMP threads:               1
    Memory [MiB]:              8895
    Algorithm:                 Core
    Schwarz Cutoff:           1E-12
    Mask sparsity (%):       2.9586
    Fitting Condition:        1E-10

   => Auxiliary Basis Set <=

  Basis Set: (ANONYMOUS639A39A5 AUX)
    Blend: DEF2-UNIVERSAL-JKFIT
    Number of shells: 150
    Number of basis function: 458
    Number of Cartesian functions: 550
    Spherical Harmonics?: true
    Max angular momentum: 4

  Cached 100.0% of DFT collocation blocks in 1.092 [GiB].

  Minimum eigenvalue in the overlap matrix is 9.6383867535E-04.
  Reciprocal condition number of the overlap matrix is 2.2721649665E-04.
    Using symmetric orthogonalization.

  ==> Pre-Iterations <==

  SCF Guess: Superposition of Atomic Densities via on-the-fly atomic UHF (no occupation information).

   -------------------------
    Irrep   Nso     Nmo    
   -------------------------
     A        156     156 
   -------------------------
    Total     156     156
   -------------------------

  ==> Iterations <==

                           Total Energy        Delta E     RMS |[F,P]|

   @DF-RKS iter SAD:  -429.99263702473502   -4.29993e+02   0.00000e+00 
   @DF-RKS iter   1:  -430.27093250794684   -2.78295e-01   4.44196e-03 DIIS
   @DF-RKS iter   2:  -429.71606340724458    5.54869e-01   8.25980e-03 DIIS
   @DF-RKS iter   3:  -430.42096477833667   -7.04901e-01   1.85563e-03 DIIS
   @DF-RKS iter   4:  -430.45796502170452   -3.70002e-02   4.46246e-04 DIIS
   @DF-RKS iter   5:  -430.45951695908832   -1.55194e-03   1.51348e-04 DIIS
   @DF-RKS iter   6:  -430.45973584209958   -2.18883e-04   2.75601e-05 DIIS
   @DF-RKS iter   7:  -430.45974290180624   -7.05971e-06   8.56967e-06 DIIS
   @DF-RKS iter   8:  -430.45974360370440   -7.01898e-07   1.88628e-06 DIIS
   @DF-RKS iter   9:  -430.45974364160026   -3.78959e-08   1.47362e-07 DIIS
   @DF-RKS iter  10:  -430.45974364178949   -1.89232e-10   4.87855e-08 DIIS
   @DF-RKS iter  11:  -430.45974364180705   -1.75646e-11   1.56602e-08 DIIS
   @DF-RKS iter  12:  -430.45974364180876   -1.70530e-12   1.57099e-09 DIIS
   @DF-RKS iter  13:  -430.45974364180944   -6.82121e-13   1.20393e-10 DIIS
   @DF-RKS iter  14:  -430.45974364180927    1.70530e-13   2.14126e-11 DIIS
  Energy and wave function converged.


  ==> Post-Iterations <==

    Orbital Energies [Eh]
    ---------------------

    Doubly Occupied:                                                      

       1A    -24.765057     2A    -24.764704     3A    -24.764187  
       4A    -14.389804     5A    -10.497345     6A    -10.265176  
       7A     -1.357866     8A     -1.266613     9A     -1.264995  
      10A     -0.946065    11A     -0.784496    12A     -0.670023  
      13A     -0.634035    14A     -0.633217    15A     -0.503224  
      16A     -0.502192    17A     -0.469268    18A     -0.468123  
      19A     -0.464455    20A     -0.442730    21A     -0.400400  
      22A     -0.380944    23A     -0.380719  

    Virtual:                                                              

      24A     -0.026661    25A     -0.025542    26A      0.112034  
      27A      0.187386    28A      0.206742    29A      0.209488  
      30A      0.327255    31A      0.350413    32A      0.411701  
      33A      0.412216    34A      0.538043    35A      0.538868  
      36A      0.544922    37A      0.579114    38A      0.579221  
      39A      0.629787    40A      0.708191    41A      0.708392  
      42A      0.790662    43A      0.792733    44A      0.870961  
      45A      0.887465    46A      0.887844    47A      0.944715  
      48A      1.124259    49A      1.125204    50A      1.157967  
      51A      1.161870    52A      1.164151    53A      1.166293  
      54A      1.267258    55A      1.271177    56A      1.283489  
      57A      1.317299    58A      1.317857    59A      1.371840  
      60A      1.459820    61A      1.463899    62A      1.618628  
      63A      1.699004    64A      1.700647    65A      1.851958  
      66A      1.878206    67A      1.947176    68A      1.948736  
      69A      2.061395    70A      2.064701    71A      2.096495  
      72A      2.138048    73A      2.162985    74A      2.164891  
      75A      2.264702    76A      2.266991    77A      2.388712  
      78A      2.442808    79A      2.525156    80A      2.529449  
      81A      2.540306    82A      2.665073    83A      2.667375  
      84A      2.724446    85A      2.754721    86A      2.893629  
      87A      2.925981    88A      2.930218    89A      3.108199  
      90A      3.109116    91A      3.145653    92A      3.146809  
      93A      3.231717    94A      3.233305    95A      3.240200  
      96A      3.382662    97A      3.403250    98A      3.405794  
      99A      3.598936   100A      3.614050   101A      3.659272  
     102A      3.692459   103A      3.696589   104A      3.707518  
     105A      3.800861   106A      3.805390   107A      3.948246  
     108A      3.949066   109A      4.064638   110A      4.346731  
     111A      4.410175   112A      4.412301   113A      4.706444  
     114A      4.706634   115A      4.779855   116A      4.779972  
     117A      5.115939   118A      5.494080   119A      5.495107  
     120A      5.913602   121A      6.530423   122A      6.568268  
     123A      6.569548   124A      6.569623   125A      6.573329  
     126A      6.573433   127A      6.584074   128A      6.584494  
     129A      6.588871   130A      6.721046   131A      6.725784  
     132A      6.726640   133A      6.838576   134A      6.843335  
     135A      6.895279   136A      7.122503   137A      7.135612  
     138A      7.138507   139A      7.265099   140A      7.266240  
     141A      7.367694   142A      9.003648   143A      9.005031  
     144A      9.014225   145A      9.104394   146A      9.106538  
     147A      9.176648   148A      9.365810   149A      9.429965  
     150A      9.433804   151A      9.508648   152A      9.529110  
     153A      9.531980   154A      9.545058   155A      9.789009  
     156A      9.797811  

    Final Occupation by Irrep:
              A 
    DOCC [    23 ]

  @DF-RKS Final Energy:  -430.45974364180927

   => Energetics <=

    Nuclear Repulsion Energy =            231.4165300392231188
    One-Electron Energy =               -1053.2348747724613531
    Two-Electron Energy =                 431.0499836251670445
    DFT Exchange-Correlation Energy =     -39.6913825337380217
    Empirical Dispersion Energy =           0.0000000000000000
    VV10 Nonlocal Energy =                  0.0000000000000000
    Total Energy =                       -430.4597436418092684

Computation Completed


Properties will be evaluated at   0.000000,   0.000000,   0.000000 [a0]

Properties computed using the SCF density matrix

  Nuclear Dipole Moment: [e a0]
     X:     2.1476      Y:    -0.0042      Z:     0.0018

  Electronic Dipole Moment: [e a0]
     X:    -2.7419      Y:     0.0059      Z:     0.0002

  Dipole Moment: [e a0]
     X:    -0.5942      Y:     0.0017      Z:     0.0020     Total:     0.5942

  Dipole Moment: [D]
     X:    -1.5104      Y:     0.0043      Z:     0.0050     Total:     1.5104


*** tstop() called on n049 at Tue Nov  2 17:22:10 2021
Module time:
	user time   =      22.17 seconds =       0.37 minutes
	system time =       0.38 seconds =       0.01 minutes
	total time  =         22 seconds =       0.37 minutes
Total time:
	user time   =      22.17 seconds =       0.37 minutes
	system time =       0.38 seconds =       0.01 minutes
	total time  =         22 seconds =       0.37 minutes
Grab this energy -430.45974364180927
    Psi4 stopped on: Tuesday, 02 November 2021 05:22PM
    Psi4 wall time for execution: 0:00:22.59

*** Psi4 exiting successfully. Buy a developer a beer!
