
    -----------------------------------------------------------------------
          Psi4: An Open-Source Ab Initio Electronic Structure Package
                               Psi4 1.4a2.dev629 

                         Git: Rev {master} 2938fc2 dirty


    D. G. A. Smith, L. A. Burns, A. C. Simmonett, R. M. Parrish,
    M. C. Schieber, R. Galvelis, P. Kraus, H. Kruse, R. Di Remigio,
    A. Alenaizan, A. M. James, S. Lehtola, J. P. Misiewicz, M. Scheurer,
    R. A. Shaw, J. B. Schriber, Y. Xie, Z. L. Glick, D. A. Sirianni,
    J. S. O'Brien, J. M. Waldrop, A. Kumar, E. G. Hohenstein,
    B. P. Pritchard, B. R. Brooks, H. F. Schaefer III, A. Yu. Sokolov,
    K. Patkowski, A. E. DePrince III, U. Bozkaya, R. A. King,
    F. A. Evangelista, J. M. Turney, T. D. Crawford, C. D. Sherrill,
    J. Chem. Phys. 152(18) 184108 (2020). https://doi.org/10.1063/5.0006002

                            Additional Code Authors
    E. T. Seidl, C. L. Janssen, E. F. Valeev, M. L. Leininger,
    J. F. Gonthier, R. M. Richard, H. R. McAlexander, M. Saitow, X. Wang,
    P. Verma, and M. H. Lechner

             Previous Authors, Complete List of Code Contributors,
                       and Citations for Specific Modules
    https://github.com/psi4/psi4/blob/master/codemeta.json
    https://github.com/psi4/psi4/graphs/contributors
    http://psicode.org/psi4manual/master/introduction.html#citing-psifour

    -----------------------------------------------------------------------


    Psi4 started on: Tuesday, 02 November 2021 05:14PM

    Process ID: 21828
    Host:       n021
    PSIDATADIR: /opt/psi/4/master/share/psi4
    Memory:     500.0 MiB
    Threads:    1
    
  ==> Input File <==

--------------------------------------------------------------------------
import os
memory 14 GB 
 
molecule {
 N    4.4205030491   -0.0002496262   -0.0001403551
 X    2.2380672400    1.0000000000   -0.0000000000
 C    2.2297689649    0.0011183145    0.0006477784
 X    2.2380672400    0.0000000000    1.0000000000
 C   -0.5801534620   -0.0037450336   -0.0021603664
 F   -1.4309427708    1.1812494922   -2.0441320438
 F   -1.4307699737   -2.3597921158    0.0004531336
 F   -1.4310924275    1.1814189690    2.0453318534
units bohr
}

basis {

assign 6-31g_2dfp_

[ 6-31g_2dfp_ ]
spherical

!----------------------------------------------------------------------
! Basis Set Exchange
! Version v0.8.13
! https://www.basissetexchange.org
!----------------------------------------------------------------------
!   Basis set: 6-31G(2df,p)
! Description: 6-31G(2df,p)
!        Role: orbital
!     Version: 0  (Data from the original Basis Set Exchange)
!----------------------------------------------------------------------


****
F     0
S    6   1.00
   7001.7130900              0.0018196169
   1051.3660900              0.0139160796
    239.2856900              0.0684053245
     67.3974453              0.233185760
     21.5199573              0.471267439
      7.40310130             0.356618546
SP   3   1.00
     20.8479528             -0.108506975            0.0716287243
      4.80830834            -0.146451658            0.3459121030
      1.34406986             1.128688580            0.7224699570
SP   1   1.00
      0.358151393            1.0000000              1.0000000
D    1   1.00
      3.5000000              1.0000000
D    1   1.00
      0.8750000              1.0000000
F    1   1.00
      1.8500000              1.0000000
****
C     0
S    6   1.00
   3047.5249000              0.0018347
    457.3695100              0.0140373
    103.9486900              0.0688426
     29.2101550              0.2321844
      9.2866630              0.4679413
      3.1639270              0.3623120
SP   3   1.00
      7.8682724             -0.1193324              0.0689991
      1.8812885             -0.1608542              0.3164240
      0.5442493              1.1434564              0.7443083
SP   1   1.00
      0.1687144              1.0000000              1.0000000
D    1   1.00
      1.2520000              1.0000000
D    1   1.00
      0.3130000              1.0000000
F    1   1.00
      0.8000000              1.0000000
****
N     0
S    6   1.00
   4173.5110000              0.0018348
    627.4579000              0.0139950
    142.9021000              0.0685870
     40.2343300              0.2322410
     12.8202100              0.4690700
      4.3904370              0.3604550
SP   3   1.00
     11.6263580             -0.1149610              0.0675800
      2.7162800             -0.1691180              0.3239070
      0.7722180              1.1458520              0.7408950
SP   1   1.00
      0.2120313              1.0000000              1.0000000
D    1   1.00
      1.8260000              1.0000000
D    1   1.00
      0.4565000              1.0000000
F    1   1.00
      1.0000000              1.0000000
****
}


set {
opt_type min                            
reference rhf                          
freeze_core true
e_convergence 10                       
d_convergence 10                      
ensure_bt_convergence true           
dft_spherical_points 590
dft_radial_points 99
}

e = energy('b3lyp')

print_out('Grab this energy {0}'.format(e))
--------------------------------------------------------------------------

  Memory set to  13.039 GiB by Python driver.

Scratch directory: /tmp/

*** tstart() called on n021
*** at Tue Nov  2 17:14:34 2021

   => Loading Basis Set <=

    Name: ANONYMOUSB00EA7BF
    Role: ORBITAL
    Keyword: BASIS
    atoms 1   entry N          line    57 inputblock 6-31g_2dfp_ 
    atoms 2-3 entry C          line    36 inputblock 6-31g_2dfp_ 
    atoms 4-6 entry F          line    15 inputblock 6-31g_2dfp_ 


         ---------------------------------------------------------
                                   SCF
               by Justin Turney, Rob Parrish, Andy Simmonett
                          and Daniel G. A. Smith
                              RKS Reference
                        1 Threads,  13351 MiB Core
         ---------------------------------------------------------

  ==> Geometry <==

    Molecular point group: c1
    Full point group: C1

    Geometry (in Bohr), charge = 0, multiplicity = 1:

       Center              X                  Y                   Z               Mass       
    ------------   -----------------  -----------------  -----------------  -----------------
         N            4.419033822433    -0.000456259472    -0.000259165904    14.003074004430
         C            2.228299738233     0.000911681228     0.000528967596    12.000000000000
         C           -0.581622688667    -0.003951666872    -0.002279177204    12.000000000000
         F           -1.432411997467     1.181042858928    -2.044250854604    18.998403162730
         F           -1.432239200367    -2.359998749072     0.000334322796    18.998403162730
         F           -1.432561654167     1.181212335728     2.045213042596    18.998403162730

  Running in c1 symmetry.

  Rotational constants: A =      0.18950  B =      0.09823  C =      0.09822 [cm^-1]
  Rotational constants: A =   5680.94064  B =   2944.82094  C =   2944.58811 [MHz]
  Nuclear repulsion =  231.505073325806450

  Charge       = 0
  Multiplicity = 1
  Electrons    = 46
  Nalpha       = 23
  Nbeta        = 23

  ==> Algorithm <==

  SCF Algorithm Type is DF.
  DIIS enabled.
  MOM disabled.
  Fractional occupation disabled.
  Guess Type is SAD.
  Energy threshold   = 1.00e-10
  Density threshold  = 1.00e-10
  Integral threshold = 0.00e+00

  ==> Primary Basis <==

  Basis Set: ANONYMOUSB00EA7BF
    Blend: 6-31G_2DFP_
    Number of shells: 48
    Number of basis function: 156
    Number of Cartesian functions: 186
    Spherical Harmonics?: true
    Max angular momentum: 3

  ==> DFT Potential <==

   => Composite Functional: B3LYP <= 

    B3LYP Hyb-GGA Exchange-Correlation Functional

    P. J. Stephens, F. J. Devlin, C. F. Chabalowski, and M. J. Frisch, J. Phys. Chem. 98, 11623 (1994)

    Deriv               =              1
    GGA                 =           TRUE
    Meta                =          FALSE

    Exchange Hybrid     =           TRUE
    MP2 Hybrid          =          FALSE

   => Exchange Functionals <=

    0.0800   Slater exchange
    0.7200         Becke 88

   => Exact (HF) Exchange <=

    0.2000               HF 

   => Correlation Functionals <=

    0.1900   Vosko, Wilk & Nusair (VWN5_RPA)
    0.8100   Lee, Yang & Parr

   => Molecular Quadrature <=

    Radial Scheme          =       TREUTLER
    Pruning Scheme         =           NONE
    Nuclear Scheme         =       TREUTLER

    BS radius alpha        =              1
    Pruning alpha          =              1
    Radial Points          =             99
    Spherical Points       =            590
    Total Points           =         329986
    Total Blocks           =           2445
    Max Points             =            256
    Max Functions          =            153
    Weights Tolerance      =       1.00E-15

   => Loading Basis Set <=

    Name: (ANONYMOUSB00EA7BF AUX)
    Role: JKFIT
    Keyword: DF_BASIS_SCF
    atoms 1   entry N          line   258 file /opt/psi/4/master/share/psi4/basis/def2-universal-jkfit.gbs 
    atoms 2-3 entry C          line   198 file /opt/psi/4/master/share/psi4/basis/def2-universal-jkfit.gbs 
    atoms 4-6 entry F          line   378 file /opt/psi/4/master/share/psi4/basis/def2-universal-jkfit.gbs 

  ==> Integral Setup <==

  DFHelper Memory: AOs need 0.087 GiB; user supplied 8.686 GiB. Using in-core AOs.

  ==> MemDFJK: Density-Fitted J/K Matrices <==

    J tasked:                   Yes
    K tasked:                   Yes
    wK tasked:                   No
    OpenMP threads:               1
    Memory [MiB]:              8894
    Algorithm:                 Core
    Schwarz Cutoff:           1E-12
    Mask sparsity (%):       2.9175
    Fitting Condition:        1E-10

   => Auxiliary Basis Set <=

  Basis Set: (ANONYMOUSB00EA7BF AUX)
    Blend: DEF2-UNIVERSAL-JKFIT
    Number of shells: 150
    Number of basis function: 458
    Number of Cartesian functions: 550
    Spherical Harmonics?: true
    Max angular momentum: 4

  Cached 100.0% of DFT collocation blocks in 1.093 [GiB].

  Minimum eigenvalue in the overlap matrix is 9.6403893673E-04.
  Reciprocal condition number of the overlap matrix is 2.2700527465E-04.
    Using symmetric orthogonalization.

  ==> Pre-Iterations <==

  SCF Guess: Superposition of Atomic Densities via on-the-fly atomic UHF (no occupation information).

   -------------------------
    Irrep   Nso     Nmo    
   -------------------------
     A        156     156 
   -------------------------
    Total     156     156
   -------------------------

  ==> Iterations <==

                           Total Energy        Delta E     RMS |[F,P]|

   @DF-RKS iter SAD:  -429.99633511004845   -4.29996e+02   0.00000e+00 
   @DF-RKS iter   1:  -430.27111621968453   -2.74781e-01   4.43822e-03 DIIS
   @DF-RKS iter   2:  -429.72250731178445    5.48609e-01   8.22610e-03 DIIS
   @DF-RKS iter   3:  -430.42123882618063   -6.98732e-01   1.85104e-03 DIIS
   @DF-RKS iter   4:  -430.45805455578056   -3.68157e-02   4.44001e-04 DIIS
   @DF-RKS iter   5:  -430.45958776370935   -1.53321e-03   1.51323e-04 DIIS
   @DF-RKS iter   6:  -430.45980620969317   -2.18446e-04   2.75382e-05 DIIS
   @DF-RKS iter   7:  -430.45981323437707   -7.02468e-06   8.52247e-06 DIIS
   @DF-RKS iter   8:  -430.45981392582229   -6.91445e-07   1.90271e-06 DIIS
   @DF-RKS iter   9:  -430.45981396222578   -3.64035e-08   4.92111e-07 DIIS
   @DF-RKS iter  10:  -430.45981396409354   -1.86776e-09   8.82359e-08 DIIS
   @DF-RKS iter  11:  -430.45981396416340   -6.98606e-11   1.24931e-08 DIIS
   @DF-RKS iter  12:  -430.45981396416511   -1.70530e-12   1.54882e-09 DIIS
   @DF-RKS iter  13:  -430.45981396416568   -5.68434e-13   4.12202e-10 DIIS
   @DF-RKS iter  14:  -430.45981396416556    1.13687e-13   9.33766e-11 DIIS
  Energy and wave function converged.


  ==> Post-Iterations <==

    Orbital Energies [Eh]
    ---------------------

    Doubly Occupied:                                                      

       1A    -24.766155     2A    -24.765175     3A    -24.764199  
       4A    -14.388837     5A    -10.497323     6A    -10.264013  
       7A     -1.357761     8A     -1.267399     9A     -1.265420  
      10A     -0.946022    11A     -0.784892    12A     -0.670041  
      13A     -0.634410    14A     -0.633718    15A     -0.502973  
      16A     -0.502943    17A     -0.470068    18A     -0.469228  
      19A     -0.463666    20A     -0.443505    21A     -0.399793  
      22A     -0.380584    23A     -0.380517  

    Virtual:                                                              

      24A     -0.025079    25A     -0.024812    26A      0.113201  
      27A      0.183811    28A      0.207711    29A      0.210210  
      30A      0.327036    31A      0.350258    32A      0.411987  
      33A      0.412022    34A      0.537287    35A      0.537854  
      36A      0.545250    37A      0.579478    38A      0.579986  
      39A      0.630609    40A      0.708245    41A      0.708363  
      42A      0.791061    43A      0.792256    44A      0.872476  
      45A      0.888340    46A      0.888655    47A      0.945216  
      48A      1.122940    49A      1.123749    50A      1.156940  
      51A      1.165097    52A      1.166205    53A      1.167152  
      54A      1.269075    55A      1.269240    56A      1.281964  
      57A      1.317528    58A      1.317651    59A      1.372219  
      60A      1.464021    61A      1.464890    62A      1.615962  
      63A      1.700423    64A      1.700445    65A      1.854283  
      66A      1.878022    67A      1.946445    68A      1.946705  
      69A      2.061101    70A      2.061433    71A      2.090776  
      72A      2.142779    73A      2.161810    74A      2.164557  
      75A      2.266568    76A      2.269163    77A      2.388284  
      78A      2.443214    79A      2.526294    80A      2.529604  
      81A      2.532478    82A      2.666627    83A      2.670058  
      84A      2.724881    85A      2.755638    86A      2.896855  
      87A      2.928739    88A      2.929085    89A      3.106393  
      90A      3.106768    91A      3.144854    92A      3.145290  
      93A      3.236529    94A      3.238331    95A      3.239897  
      96A      3.388345    97A      3.406353    98A      3.406797  
      99A      3.599159   100A      3.615529   101A      3.660336  
     102A      3.693126   103A      3.693300   104A      3.711576  
     105A      3.800362   106A      3.803053   107A      3.944457  
     108A      3.948491   109A      4.068995   110A      4.350013  
     111A      4.414530   112A      4.414966   113A      4.708218  
     114A      4.708598   115A      4.780940   116A      4.780959  
     117A      5.117625   118A      5.498957   119A      5.499167  
     120A      5.919416   121A      6.529708   122A      6.567510  
     123A      6.569011   124A      6.569524   125A      6.573053  
     126A      6.573445   127A      6.583235   128A      6.584122  
     129A      6.588289   130A      6.719882   131A      6.727675  
     132A      6.728038   133A      6.837386   134A      6.838813  
     135A      6.894668   136A      7.123754   137A      7.131316  
     138A      7.133502   139A      7.263796   140A      7.266845  
     141A      7.374901   142A      9.003502   143A      9.004395  
     144A      9.012159   145A      9.104823   146A      9.105374  
     147A      9.179270   148A      9.366008   149A      9.431880  
     150A      9.434445   151A      9.504046   152A      9.527664  
     153A      9.529872   154A      9.545824   155A      9.790422  
     156A      9.790895  

    Final Occupation by Irrep:
              A 
    DOCC [    23 ]

  @DF-RKS Final Energy:  -430.45981396416556

   => Energetics <=

    Nuclear Repulsion Energy =            231.5050733258064497
    One-Electron Energy =               -1053.4050969128225006
    Two-Electron Energy =                 431.1330442872337585
    DFT Exchange-Correlation Energy =     -39.6928346643833265
    Empirical Dispersion Energy =           0.0000000000000000
    VV10 Nonlocal Energy =                  0.0000000000000000
    Total Energy =                       -430.4598139641655621

Computation Completed


Properties will be evaluated at   0.000000,   0.000000,   0.000000 [a0]

Properties computed using the SCF density matrix

  Nuclear Dipole Moment: [e a0]
     X:     2.1384      Y:    -0.0011      Z:    -0.0006

  Electronic Dipole Moment: [e a0]
     X:    -2.7446      Y:    -0.0067      Z:    -0.0039

  Dipole Moment: [e a0]
     X:    -0.6062      Y:    -0.0078      Z:    -0.0045     Total:     0.6063

  Dipole Moment: [D]
     X:    -1.5408      Y:    -0.0199      Z:    -0.0114     Total:     1.5409


*** tstop() called on n021 at Tue Nov  2 17:15:01 2021
Module time:
	user time   =      26.86 seconds =       0.45 minutes
	system time =       0.25 seconds =       0.00 minutes
	total time  =         27 seconds =       0.45 minutes
Total time:
	user time   =      26.86 seconds =       0.45 minutes
	system time =       0.25 seconds =       0.00 minutes
	total time  =         27 seconds =       0.45 minutes
Grab this energy -430.45981396416556
    Psi4 stopped on: Tuesday, 02 November 2021 05:15PM
    Psi4 wall time for execution: 0:00:27.15

*** Psi4 exiting successfully. Buy a developer a beer!
