
    -----------------------------------------------------------------------
          Psi4: An Open-Source Ab Initio Electronic Structure Package
                               Psi4 1.4a2.dev629 

                         Git: Rev {master} 2938fc2 dirty


    D. G. A. Smith, L. A. Burns, A. C. Simmonett, R. M. Parrish,
    M. C. Schieber, R. Galvelis, P. Kraus, H. Kruse, R. Di Remigio,
    A. Alenaizan, A. M. James, S. Lehtola, J. P. Misiewicz, M. Scheurer,
    R. A. Shaw, J. B. Schriber, Y. Xie, Z. L. Glick, D. A. Sirianni,
    J. S. O'Brien, J. M. Waldrop, A. Kumar, E. G. Hohenstein,
    B. P. Pritchard, B. R. Brooks, H. F. Schaefer III, A. Yu. Sokolov,
    K. Patkowski, A. E. DePrince III, U. Bozkaya, R. A. King,
    F. A. Evangelista, J. M. Turney, T. D. Crawford, C. D. Sherrill,
    J. Chem. Phys. 152(18) 184108 (2020). https://doi.org/10.1063/5.0006002

                            Additional Code Authors
    E. T. Seidl, C. L. Janssen, E. F. Valeev, M. L. Leininger,
    J. F. Gonthier, R. M. Richard, H. R. McAlexander, M. Saitow, X. Wang,
    P. Verma, and M. H. Lechner

             Previous Authors, Complete List of Code Contributors,
                       and Citations for Specific Modules
    https://github.com/psi4/psi4/blob/master/codemeta.json
    https://github.com/psi4/psi4/graphs/contributors
    http://psicode.org/psi4manual/master/introduction.html#citing-psifour

    -----------------------------------------------------------------------


    Psi4 started on: Tuesday, 02 November 2021 05:16PM

    Process ID: 10567
    Host:       n058
    PSIDATADIR: /opt/psi/4/master/share/psi4
    Memory:     500.0 MiB
    Threads:    1
    
  ==> Input File <==

--------------------------------------------------------------------------
import os
memory 14 GB 
 
molecule {
 N    4.4365498386    0.0002202510   -0.0003862021
 X    2.2380672400    1.0000000000    0.0000000000
 C    2.2393452572   -0.0007421566    0.0012899021
 X    2.2380672400   -0.0000000000    1.0000000000
 C   -0.5798981268    0.0023742324   -0.0041114086
 F   -1.4392124015    1.1797574064   -2.0433999795
 F   -1.4397342995   -2.3625818481    0.0003679240
 F   -1.4397368879    1.1809721148    2.0462397641
units bohr
}

basis {

assign 6-31g_2dfp_

[ 6-31g_2dfp_ ]
spherical

!----------------------------------------------------------------------
! Basis Set Exchange
! Version v0.8.13
! https://www.basissetexchange.org
!----------------------------------------------------------------------
!   Basis set: 6-31G(2df,p)
! Description: 6-31G(2df,p)
!        Role: orbital
!     Version: 0  (Data from the original Basis Set Exchange)
!----------------------------------------------------------------------


****
F     0
S    6   1.00
   7001.7130900              0.0018196169
   1051.3660900              0.0139160796
    239.2856900              0.0684053245
     67.3974453              0.233185760
     21.5199573              0.471267439
      7.40310130             0.356618546
SP   3   1.00
     20.8479528             -0.108506975            0.0716287243
      4.80830834            -0.146451658            0.3459121030
      1.34406986             1.128688580            0.7224699570
SP   1   1.00
      0.358151393            1.0000000              1.0000000
D    1   1.00
      3.5000000              1.0000000
D    1   1.00
      0.8750000              1.0000000
F    1   1.00
      1.8500000              1.0000000
****
C     0
S    6   1.00
   3047.5249000              0.0018347
    457.3695100              0.0140373
    103.9486900              0.0688426
     29.2101550              0.2321844
      9.2866630              0.4679413
      3.1639270              0.3623120
SP   3   1.00
      7.8682724             -0.1193324              0.0689991
      1.8812885             -0.1608542              0.3164240
      0.5442493              1.1434564              0.7443083
SP   1   1.00
      0.1687144              1.0000000              1.0000000
D    1   1.00
      1.2520000              1.0000000
D    1   1.00
      0.3130000              1.0000000
F    1   1.00
      0.8000000              1.0000000
****
N     0
S    6   1.00
   4173.5110000              0.0018348
    627.4579000              0.0139950
    142.9021000              0.0685870
     40.2343300              0.2322410
     12.8202100              0.4690700
      4.3904370              0.3604550
SP   3   1.00
     11.6263580             -0.1149610              0.0675800
      2.7162800             -0.1691180              0.3239070
      0.7722180              1.1458520              0.7408950
SP   1   1.00
      0.2120313              1.0000000              1.0000000
D    1   1.00
      1.8260000              1.0000000
D    1   1.00
      0.4565000              1.0000000
F    1   1.00
      1.0000000              1.0000000
****
}


set {
opt_type min                            
reference rhf                          
freeze_core true
e_convergence 10                       
d_convergence 10                      
ensure_bt_convergence true           
dft_spherical_points 590
dft_radial_points 99
}

e = energy('b3lyp')

print_out('Grab this energy {0}'.format(e))
--------------------------------------------------------------------------

  Memory set to  13.039 GiB by Python driver.

Scratch directory: /tmp/

*** tstart() called on n058
*** at Tue Nov  2 17:16:32 2021

   => Loading Basis Set <=

    Name: ANONYMOUS1C0B5400
    Role: ORBITAL
    Keyword: BASIS
    atoms 1   entry N          line    57 inputblock 6-31g_2dfp_ 
    atoms 2-3 entry C          line    36 inputblock 6-31g_2dfp_ 
    atoms 4-6 entry F          line    15 inputblock 6-31g_2dfp_ 


         ---------------------------------------------------------
                                   SCF
               by Justin Turney, Rob Parrish, Andy Simmonett
                          and Daniel G. A. Smith
                              RKS Reference
                        1 Threads,  13351 MiB Core
         ---------------------------------------------------------

  ==> Geometry <==

    Molecular point group: c1
    Full point group: C1

    Geometry (in Bohr), charge = 0, multiplicity = 1:

       Center              X                  Y                   Z               Mass       
    ------------   -----------------  -----------------  -----------------  -----------------
         N            4.436648689598     0.000352065514    -0.000614366713    14.003074004430
         C            2.239444108198    -0.000610342086     0.001061737487    12.000000000000
         C           -0.579799275802     0.002506046914    -0.004339573213    12.000000000000
         F           -1.439113550502     1.179889220914    -2.043628144113    18.998403162730
         F           -1.439635448502    -2.362450033586     0.000139759387    18.998403162730
         F           -1.439638036902     1.181103929314     2.046011599487    18.998403162730

  Running in c1 symmetry.

  Rotational constants: A =      0.18939  B =      0.09761  C =      0.09757 [cm^-1]
  Rotational constants: A =   5677.77595  B =   2926.12517  C =   2925.09301 [MHz]
  Nuclear repulsion =  231.027102587408933

  Charge       = 0
  Multiplicity = 1
  Electrons    = 46
  Nalpha       = 23
  Nbeta        = 23

  ==> Algorithm <==

  SCF Algorithm Type is DF.
  DIIS enabled.
  MOM disabled.
  Fractional occupation disabled.
  Guess Type is SAD.
  Energy threshold   = 1.00e-10
  Density threshold  = 1.00e-10
  Integral threshold = 0.00e+00

  ==> Primary Basis <==

  Basis Set: ANONYMOUS1C0B5400
    Blend: 6-31G_2DFP_
    Number of shells: 48
    Number of basis function: 156
    Number of Cartesian functions: 186
    Spherical Harmonics?: true
    Max angular momentum: 3

  ==> DFT Potential <==

   => Composite Functional: B3LYP <= 

    B3LYP Hyb-GGA Exchange-Correlation Functional

    P. J. Stephens, F. J. Devlin, C. F. Chabalowski, and M. J. Frisch, J. Phys. Chem. 98, 11623 (1994)

    Deriv               =              1
    GGA                 =           TRUE
    Meta                =          FALSE

    Exchange Hybrid     =           TRUE
    MP2 Hybrid          =          FALSE

   => Exchange Functionals <=

    0.0800   Slater exchange
    0.7200         Becke 88

   => Exact (HF) Exchange <=

    0.2000               HF 

   => Correlation Functionals <=

    0.1900   Vosko, Wilk & Nusair (VWN5_RPA)
    0.8100   Lee, Yang & Parr

   => Molecular Quadrature <=

    Radial Scheme          =       TREUTLER
    Pruning Scheme         =           NONE
    Nuclear Scheme         =       TREUTLER

    BS radius alpha        =              1
    Pruning alpha          =              1
    Radial Points          =             99
    Spherical Points       =            590
    Total Points           =         329914
    Total Blocks           =           2459
    Max Points             =            256
    Max Functions          =            153
    Weights Tolerance      =       1.00E-15

   => Loading Basis Set <=

    Name: (ANONYMOUS1C0B5400 AUX)
    Role: JKFIT
    Keyword: DF_BASIS_SCF
    atoms 1   entry N          line   258 file /opt/psi/4/master/share/psi4/basis/def2-universal-jkfit.gbs 
    atoms 2-3 entry C          line   198 file /opt/psi/4/master/share/psi4/basis/def2-universal-jkfit.gbs 
    atoms 4-6 entry F          line   378 file /opt/psi/4/master/share/psi4/basis/def2-universal-jkfit.gbs 

  ==> Integral Setup <==

  DFHelper Memory: AOs need 0.087 GiB; user supplied 8.689 GiB. Using in-core AOs.

  ==> MemDFJK: Density-Fitted J/K Matrices <==

    J tasked:                   Yes
    K tasked:                   Yes
    wK tasked:                   No
    OpenMP threads:               1
    Memory [MiB]:              8897
    Algorithm:                 Core
    Schwarz Cutoff:           1E-12
    Mask sparsity (%):       2.9668
    Fitting Condition:        1E-10

   => Auxiliary Basis Set <=

  Basis Set: (ANONYMOUS1C0B5400 AUX)
    Blend: DEF2-UNIVERSAL-JKFIT
    Number of shells: 150
    Number of basis function: 458
    Number of Cartesian functions: 550
    Spherical Harmonics?: true
    Max angular momentum: 4

  Cached 100.0% of DFT collocation blocks in 1.090 [GiB].

  Minimum eigenvalue in the overlap matrix is 9.7332761235E-04.
  Reciprocal condition number of the overlap matrix is 2.2988139960E-04.
    Using symmetric orthogonalization.

  ==> Pre-Iterations <==

  SCF Guess: Superposition of Atomic Densities via on-the-fly atomic UHF (no occupation information).

   -------------------------
    Irrep   Nso     Nmo    
   -------------------------
     A        156     156 
   -------------------------
    Total     156     156
   -------------------------

  ==> Iterations <==

                           Total Energy        Delta E     RMS |[F,P]|

   @DF-RKS iter SAD:  -429.97762372376457   -4.29978e+02   0.00000e+00 
   @DF-RKS iter   1:  -430.27051664730209   -2.92893e-01   4.44483e-03 DIIS
   @DF-RKS iter   2:  -429.70564594195974    5.64871e-01   8.31210e-03 DIIS
   @DF-RKS iter   3:  -430.42079631013974   -7.15150e-01   1.85784e-03 DIIS
   @DF-RKS iter   4:  -430.45786900386406   -3.70727e-02   4.52959e-04 DIIS
   @DF-RKS iter   5:  -430.45947582726114   -1.60682e-03   1.52556e-04 DIIS
   @DF-RKS iter   6:  -430.45969847363517   -2.22646e-04   2.79544e-05 DIIS
   @DF-RKS iter   7:  -430.45970574131957   -7.26768e-06   8.74294e-06 DIIS
   @DF-RKS iter   8:  -430.45970647028059   -7.28961e-07   1.98655e-06 DIIS
   @DF-RKS iter   9:  -430.45970650928149   -3.90009e-08   5.76465e-07 DIIS
   @DF-RKS iter  10:  -430.45970651187622   -2.59473e-09   9.01435e-08 DIIS
   @DF-RKS iter  11:  -430.45970651195182   -7.56017e-11   1.28712e-08 DIIS
   @DF-RKS iter  12:  -430.45970651195302   -1.19371e-12   1.56987e-09 DIIS
   @DF-RKS iter  13:  -430.45970651195296    5.68434e-14   1.17656e-10 DIIS
   @DF-RKS iter  14:  -430.45970651195330   -3.41061e-13   1.36328e-11 DIIS
  Energy and wave function converged.


  ==> Post-Iterations <==

    Orbital Energies [Eh]
    ---------------------

    Doubly Occupied:                                                      

       1A    -24.766287     2A    -24.764329     3A    -24.764312  
       4A    -14.390254     5A    -10.498126     6A    -10.265847  
       7A     -1.356568     8A     -1.266514     9A     -1.264259  
      10A     -0.945159    11A     -0.784103    12A     -0.669258  
      13A     -0.633544    14A     -0.632776    15A     -0.502441  
      16A     -0.502421    17A     -0.469337    18A     -0.468379  
      19A     -0.464303    20A     -0.443055    21A     -0.400404  
      22A     -0.380321    23A     -0.380247  

    Virtual:                                                              

      24A     -0.026848    25A     -0.026559    26A      0.110476  
      27A      0.183171    28A      0.204516    29A      0.207362  
      30A      0.326689    31A      0.350411    32A      0.412237  
      33A      0.412246    34A      0.538659    35A      0.539261  
      36A      0.544654    37A      0.579042    38A      0.579595  
      39A      0.629263    40A      0.708544    41A      0.708661  
      42A      0.788967    43A      0.790243    44A      0.868698  
      45A      0.886845    46A      0.887197    47A      0.943594  
      48A      1.123749    49A      1.124556    50A      1.158128  
      51A      1.162622    52A      1.165142    53A      1.165823  
      54A      1.267808    55A      1.267844    56A      1.282514  
      57A      1.316258    58A      1.316340    59A      1.372227  
      60A      1.460334    61A      1.461143    62A      1.617002  
      63A      1.698704    64A      1.698773    65A      1.849950  
      66A      1.877482    67A      1.946638    68A      1.946854  
      69A      2.060182    70A      2.060279    71A      2.091166  
      72A      2.135047    73A      2.160411    74A      2.163373  
      75A      2.263179    76A      2.265862    77A      2.386072  
      78A      2.438484    79A      2.523172    80A      2.527073  
      81A      2.535151    82A      2.665183    83A      2.669024  
      84A      2.724897    85A      2.753931    86A      2.894944  
      87A      2.926866    88A      2.927070    89A      3.109708  
      90A      3.109857    91A      3.146724    92A      3.147348  
      93A      3.228722    94A      3.234098    95A      3.235886  
      96A      3.378218    97A      3.400577    98A      3.400929  
      99A      3.595888   100A      3.613532   101A      3.656044  
     102A      3.688330   103A      3.688652   104A      3.705619  
     105A      3.799274   106A      3.803171   107A      3.942430  
     108A      3.947051   109A      4.060133   110A      4.345481  
     111A      4.405683   112A      4.406062   113A      4.703807  
     114A      4.704210   115A      4.779209   116A      4.779235  
     117A      5.115812   118A      5.488537   119A      5.488772  
     120A      5.906187   121A      6.530433   122A      6.567790  
     123A      6.569826   124A      6.569850   125A      6.573275  
     126A      6.573846   127A      6.583578   128A      6.584623  
     129A      6.588545   130A      6.719079   131A      6.724020  
     132A      6.724441   133A      6.836523   134A      6.837899  
     135A      6.892197   136A      7.117972   137A      7.129194  
     138A      7.131780   139A      7.258551   140A      7.262143  
     141A      7.365397   142A      9.003217   143A      9.004186  
     144A      9.012788   145A      9.103844   146A      9.104363  
     147A      9.175143   148A      9.363833   149A      9.428539  
     150A      9.431234   151A      9.504122   152A      9.525166  
     153A      9.527059   154A      9.541513   155A      9.789059  
     156A      9.789104  

    Final Occupation by Irrep:
              A 
    DOCC [    23 ]

  @DF-RKS Final Energy:  -430.45970651195330

   => Energetics <=

    Nuclear Repulsion Energy =            231.0271025874089332
    One-Electron Energy =               -1052.4668619595113341
    Two-Electron Energy =                 430.6653587333751148
    DFT Exchange-Correlation Energy =     -39.6853058732260990
    Empirical Dispersion Energy =           0.0000000000000000
    VV10 Nonlocal Energy =                  0.0000000000000000
    Total Energy =                       -430.4597065119532999

Computation Completed


Properties will be evaluated at   0.000000,   0.000000,   0.000000 [a0]

Properties computed using the SCF density matrix

  Nuclear Dipole Moment: [e a0]
     X:     2.1489      Y:     0.0007      Z:    -0.0013

  Electronic Dipole Moment: [e a0]
     X:    -2.7460      Y:     0.0045      Z:    -0.0077

  Dipole Moment: [e a0]
     X:    -0.5970      Y:     0.0052      Z:    -0.0090     Total:     0.5971

  Dipole Moment: [D]
     X:    -1.5175      Y:     0.0132      Z:    -0.0229     Total:     1.5178


*** tstop() called on n058 at Tue Nov  2 17:16:55 2021
Module time:
	user time   =      22.15 seconds =       0.37 minutes
	system time =       0.35 seconds =       0.01 minutes
	total time  =         23 seconds =       0.38 minutes
Total time:
	user time   =      22.15 seconds =       0.37 minutes
	system time =       0.35 seconds =       0.01 minutes
	total time  =         23 seconds =       0.38 minutes
Grab this energy -430.4597065119533
    Psi4 stopped on: Tuesday, 02 November 2021 05:16PM
    Psi4 wall time for execution: 0:00:22.53

*** Psi4 exiting successfully. Buy a developer a beer!
