
    -----------------------------------------------------------------------
          Psi4: An Open-Source Ab Initio Electronic Structure Package
                               Psi4 1.4a2.dev629 

                         Git: Rev {master} 2938fc2 dirty


    D. G. A. Smith, L. A. Burns, A. C. Simmonett, R. M. Parrish,
    M. C. Schieber, R. Galvelis, P. Kraus, H. Kruse, R. Di Remigio,
    A. Alenaizan, A. M. James, S. Lehtola, J. P. Misiewicz, M. Scheurer,
    R. A. Shaw, J. B. Schriber, Y. Xie, Z. L. Glick, D. A. Sirianni,
    J. S. O'Brien, J. M. Waldrop, A. Kumar, E. G. Hohenstein,
    B. P. Pritchard, B. R. Brooks, H. F. Schaefer III, A. Yu. Sokolov,
    K. Patkowski, A. E. DePrince III, U. Bozkaya, R. A. King,
    F. A. Evangelista, J. M. Turney, T. D. Crawford, C. D. Sherrill,
    J. Chem. Phys. 152(18) 184108 (2020). https://doi.org/10.1063/5.0006002

                            Additional Code Authors
    E. T. Seidl, C. L. Janssen, E. F. Valeev, M. L. Leininger,
    J. F. Gonthier, R. M. Richard, H. R. McAlexander, M. Saitow, X. Wang,
    P. Verma, and M. H. Lechner

             Previous Authors, Complete List of Code Contributors,
                       and Citations for Specific Modules
    https://github.com/psi4/psi4/blob/master/codemeta.json
    https://github.com/psi4/psi4/graphs/contributors
    http://psicode.org/psi4manual/master/introduction.html#citing-psifour

    -----------------------------------------------------------------------


    Psi4 started on: Tuesday, 02 November 2021 05:15PM

    Process ID: 28338
    Host:       n023
    PSIDATADIR: /opt/psi/4/master/share/psi4
    Memory:     500.0 MiB
    Threads:    1
    
  ==> Input File <==

--------------------------------------------------------------------------
import os
memory 14 GB 
 
molecule {
 N    4.4293779589   -0.0035733648    0.0061666745
 X    2.2380672400    1.0000000000    0.0000000000
 C    2.2421510801    0.0022709839   -0.0039121130
 X    2.2380672400    0.0000000000    1.0000000000
 C   -0.5793482187    0.0028883174   -0.0049984946
 F   -1.4440115683    1.1810652775   -2.0456660876
 F   -1.4354217627   -2.3526437186    0.0073075129
 F   -1.4354341094    1.1699925044    2.0411025078
units bohr
}

basis {

assign 6-31g_2dfp_

[ 6-31g_2dfp_ ]
spherical

!----------------------------------------------------------------------
! Basis Set Exchange
! Version v0.8.13
! https://www.basissetexchange.org
!----------------------------------------------------------------------
!   Basis set: 6-31G(2df,p)
! Description: 6-31G(2df,p)
!        Role: orbital
!     Version: 0  (Data from the original Basis Set Exchange)
!----------------------------------------------------------------------


****
F     0
S    6   1.00
   7001.7130900              0.0018196169
   1051.3660900              0.0139160796
    239.2856900              0.0684053245
     67.3974453              0.233185760
     21.5199573              0.471267439
      7.40310130             0.356618546
SP   3   1.00
     20.8479528             -0.108506975            0.0716287243
      4.80830834            -0.146451658            0.3459121030
      1.34406986             1.128688580            0.7224699570
SP   1   1.00
      0.358151393            1.0000000              1.0000000
D    1   1.00
      3.5000000              1.0000000
D    1   1.00
      0.8750000              1.0000000
F    1   1.00
      1.8500000              1.0000000
****
C     0
S    6   1.00
   3047.5249000              0.0018347
    457.3695100              0.0140373
    103.9486900              0.0688426
     29.2101550              0.2321844
      9.2866630              0.4679413
      3.1639270              0.3623120
SP   3   1.00
      7.8682724             -0.1193324              0.0689991
      1.8812885             -0.1608542              0.3164240
      0.5442493              1.1434564              0.7443083
SP   1   1.00
      0.1687144              1.0000000              1.0000000
D    1   1.00
      1.2520000              1.0000000
D    1   1.00
      0.3130000              1.0000000
F    1   1.00
      0.8000000              1.0000000
****
N     0
S    6   1.00
   4173.5110000              0.0018348
    627.4579000              0.0139950
    142.9021000              0.0685870
     40.2343300              0.2322410
     12.8202100              0.4690700
      4.3904370              0.3604550
SP   3   1.00
     11.6263580             -0.1149610              0.0675800
      2.7162800             -0.1691180              0.3239070
      0.7722180              1.1458520              0.7408950
SP   1   1.00
      0.2120313              1.0000000              1.0000000
D    1   1.00
      1.8260000              1.0000000
D    1   1.00
      0.4565000              1.0000000
F    1   1.00
      1.0000000              1.0000000
****
}


set {
opt_type min                            
reference rhf                          
freeze_core true
e_convergence 10                       
d_convergence 10                      
ensure_bt_convergence true           
dft_spherical_points 590
dft_radial_points 99
}

e = energy('b3lyp')

print_out('Grab this energy {0}'.format(e))
--------------------------------------------------------------------------

  Memory set to  13.039 GiB by Python driver.

Scratch directory: /tmp/

*** tstart() called on n023
*** at Tue Nov  2 17:15:48 2021

   => Loading Basis Set <=

    Name: ANONYMOUSCA114410
    Role: ORBITAL
    Keyword: BASIS
    atoms 1   entry N          line    57 inputblock 6-31g_2dfp_ 
    atoms 2-3 entry C          line    36 inputblock 6-31g_2dfp_ 
    atoms 4-6 entry F          line    15 inputblock 6-31g_2dfp_ 


         ---------------------------------------------------------
                                   SCF
               by Justin Turney, Rob Parrish, Andy Simmonett
                          and Daniel G. A. Smith
                              RKS Reference
                        1 Threads,  13351 MiB Core
         ---------------------------------------------------------

  ==> Geometry <==

    Molecular point group: c1
    Full point group: C1

    Geometry (in Bohr), charge = 0, multiplicity = 1:

       Center              X                  Y                   Z               Mass       
    ------------   -----------------  -----------------  -----------------  -----------------
         N            4.429346900840    -0.003381185107     0.005834505809    14.003074004430
         C            2.242120022040     0.002463163593    -0.004244281691    12.000000000000
         C           -0.579379276760     0.003080497093    -0.005330663291    12.000000000000
         F           -1.444042626360     1.181257457193    -2.045998256291    18.998403162730
         F           -1.435452820760    -2.352451538907     0.006975344209    18.998403162730
         F           -1.435465167460     1.170184684093     2.040770339109    18.998403162730

  Running in c1 symmetry.

  Rotational constants: A =      0.19031  B =      0.09802  C =      0.09770 [cm^-1]
  Rotational constants: A =   5705.49510  B =   2938.55022  C =   2929.09626 [MHz]
  Nuclear repulsion =  231.468974549484557

  Charge       = 0
  Multiplicity = 1
  Electrons    = 46
  Nalpha       = 23
  Nbeta        = 23

  ==> Algorithm <==

  SCF Algorithm Type is DF.
  DIIS enabled.
  MOM disabled.
  Fractional occupation disabled.
  Guess Type is SAD.
  Energy threshold   = 1.00e-10
  Density threshold  = 1.00e-10
  Integral threshold = 0.00e+00

  ==> Primary Basis <==

  Basis Set: ANONYMOUSCA114410
    Blend: 6-31G_2DFP_
    Number of shells: 48
    Number of basis function: 156
    Number of Cartesian functions: 186
    Spherical Harmonics?: true
    Max angular momentum: 3

  ==> DFT Potential <==

   => Composite Functional: B3LYP <= 

    B3LYP Hyb-GGA Exchange-Correlation Functional

    P. J. Stephens, F. J. Devlin, C. F. Chabalowski, and M. J. Frisch, J. Phys. Chem. 98, 11623 (1994)

    Deriv               =              1
    GGA                 =           TRUE
    Meta                =          FALSE

    Exchange Hybrid     =           TRUE
    MP2 Hybrid          =          FALSE

   => Exchange Functionals <=

    0.0800   Slater exchange
    0.7200         Becke 88

   => Exact (HF) Exchange <=

    0.2000               HF 

   => Correlation Functionals <=

    0.1900   Vosko, Wilk & Nusair (VWN5_RPA)
    0.8100   Lee, Yang & Parr

   => Molecular Quadrature <=

    Radial Scheme          =       TREUTLER
    Pruning Scheme         =           NONE
    Nuclear Scheme         =       TREUTLER

    BS radius alpha        =              1
    Pruning alpha          =              1
    Radial Points          =             99
    Spherical Points       =            590
    Total Points           =         329887
    Total Blocks           =           2450
    Max Points             =            256
    Max Functions          =            153
    Weights Tolerance      =       1.00E-15

   => Loading Basis Set <=

    Name: (ANONYMOUSCA114410 AUX)
    Role: JKFIT
    Keyword: DF_BASIS_SCF
    atoms 1   entry N          line   258 file /opt/psi/4/master/share/psi4/basis/def2-universal-jkfit.gbs 
    atoms 2-3 entry C          line   198 file /opt/psi/4/master/share/psi4/basis/def2-universal-jkfit.gbs 
    atoms 4-6 entry F          line   378 file /opt/psi/4/master/share/psi4/basis/def2-universal-jkfit.gbs 

  ==> Integral Setup <==

  DFHelper Memory: AOs need 0.087 GiB; user supplied 8.688 GiB. Using in-core AOs.

  ==> MemDFJK: Density-Fitted J/K Matrices <==

    J tasked:                   Yes
    K tasked:                   Yes
    wK tasked:                   No
    OpenMP threads:               1
    Memory [MiB]:              8896
    Algorithm:                 Core
    Schwarz Cutoff:           1E-12
    Mask sparsity (%):       2.9421
    Fitting Condition:        1E-10

   => Auxiliary Basis Set <=

  Basis Set: (ANONYMOUSCA114410 AUX)
    Blend: DEF2-UNIVERSAL-JKFIT
    Number of shells: 150
    Number of basis function: 458
    Number of Cartesian functions: 550
    Spherical Harmonics?: true
    Max angular momentum: 4

  Cached 100.0% of DFT collocation blocks in 1.091 [GiB].

  Minimum eigenvalue in the overlap matrix is 9.7269074521E-04.
  Reciprocal condition number of the overlap matrix is 2.2937695188E-04.
    Using symmetric orthogonalization.

  ==> Pre-Iterations <==

  SCF Guess: Superposition of Atomic Densities via on-the-fly atomic UHF (no occupation information).

   -------------------------
    Irrep   Nso     Nmo    
   -------------------------
     A        156     156 
   -------------------------
    Total     156     156
   -------------------------

  ==> Iterations <==

                           Total Energy        Delta E     RMS |[F,P]|

   @DF-RKS iter SAD:  -429.99654652095529   -4.29997e+02   0.00000e+00 
   @DF-RKS iter   1:  -430.26948847482379   -2.72942e-01   4.45819e-03 DIIS
   @DF-RKS iter   2:  -429.71680496819357    5.52684e-01   8.26109e-03 DIIS
   @DF-RKS iter   3:  -430.42158874767034   -7.04784e-01   1.84236e-03 DIIS
   @DF-RKS iter   4:  -430.45802810645557   -3.64394e-02   4.46835e-04 DIIS
   @DF-RKS iter   5:  -430.45958729423370   -1.55919e-03   1.51111e-04 DIIS
   @DF-RKS iter   6:  -430.45980480522201   -2.17511e-04   2.77243e-05 DIIS
   @DF-RKS iter   7:  -430.45981194885411   -7.14363e-06   8.58457e-06 DIIS
   @DF-RKS iter   8:  -430.45981265368130   -7.04827e-07   1.86919e-06 DIIS
   @DF-RKS iter   9:  -430.45981269068074   -3.69994e-08   1.99683e-07 DIIS
   @DF-RKS iter  10:  -430.45981269094301   -2.62276e-10   1.02227e-07 DIIS
   @DF-RKS iter  11:  -430.45981269102481   -8.17977e-11   1.27921e-08 DIIS
   @DF-RKS iter  12:  -430.45981269102708   -2.27374e-12   1.52883e-09 DIIS
   @DF-RKS iter  13:  -430.45981269102765   -5.68434e-13   1.19705e-10 DIIS
   @DF-RKS iter  14:  -430.45981269102771   -5.68434e-14   1.92287e-11 DIIS
  Energy and wave function converged.


  ==> Post-Iterations <==

    Orbital Energies [Eh]
    ---------------------

    Doubly Occupied:                                                      

       1A    -24.765208     2A    -24.764792     3A    -24.764776  
       4A    -14.388469     5A    -10.497643     6A    -10.264127  
       7A     -1.358472     8A     -1.266624     9A     -1.266078  
      10A     -0.946669    11A     -0.783645    12A     -0.670002  
      13A     -0.634278    14A     -0.633789    15A     -0.503331  
      16A     -0.502711    17A     -0.469382    18A     -0.468778  
      19A     -0.464160    20A     -0.443055    21A     -0.399717  
      22A     -0.381141    23A     -0.381102  

    Virtual:                                                              

      24A     -0.024571    25A     -0.024300    26A      0.111013  
      27A      0.187332    28A      0.207784    29A      0.209874  
      30A      0.326941    31A      0.349542    32A      0.411693  
      33A      0.412069    34A      0.538529    35A      0.538945  
      36A      0.545548    37A      0.579499    38A      0.579502  
      39A      0.631020    40A      0.707865    41A      0.708015  
      42A      0.790878    43A      0.792047    44A      0.871424  
      45A      0.887766    46A      0.888062    47A      0.945165  
      48A      1.124607    49A      1.124958    50A      1.157562  
      51A      1.163433    52A      1.164831    53A      1.166040  
      54A      1.269243    55A      1.269564    56A      1.282859  
      57A      1.316820    58A      1.318010    59A      1.371299  
      60A      1.460049    61A      1.464226    62A      1.618071  
      63A      1.700959    64A      1.701036    65A      1.852287  
      66A      1.878438    67A      1.946816    68A      1.948107  
      69A      2.061985    70A      2.064542    71A      2.096154  
      72A      2.140114    73A      2.162090    74A      2.165405  
      75A      2.265784    76A      2.268941    77A      2.388523  
      78A      2.442106    79A      2.527551    80A      2.529199  
      81A      2.539507    82A      2.665714    83A      2.665875  
      84A      2.724702    85A      2.754444    86A      2.893455  
      87A      2.927180    88A      2.929792    89A      3.107604  
      90A      3.109826    91A      3.148678    92A      3.149734  
      93A      3.233893    94A      3.236516    95A      3.240133  
      96A      3.382117    97A      3.402766    98A      3.404358  
      99A      3.600757   100A      3.615939   101A      3.660898  
     102A      3.694292   103A      3.694693   104A      3.709364  
     105A      3.800159   106A      3.807195   107A      3.943780  
     108A      3.944325   109A      4.066198   110A      4.345596  
     111A      4.414572   112A      4.415030   113A      4.707031  
     114A      4.707564   115A      4.780995   116A      4.781030  
     117A      5.101707   118A      5.502342   119A      5.502434  
     120A      5.919870   121A      6.529982   122A      6.567972  
     123A      6.569188   124A      6.569227   125A      6.573007  
     126A      6.573018   127A      6.584113   128A      6.584209  
     129A      6.588608   130A      6.720925   131A      6.726343  
     132A      6.727674   133A      6.839243   134A      6.842881  
     135A      6.895878   136A      7.124035   137A      7.135959  
     138A      7.138052   139A      7.265514   140A      7.267497  
     141A      7.371249   142A      9.003578   143A      9.004680  
     144A      9.013858   145A      9.104556   146A      9.105911  
     147A      9.176320   148A      9.366502   149A      9.431131  
     150A      9.434471   151A      9.507897   152A      9.529243  
     153A      9.533162   154A      9.546746   155A      9.791300  
     156A      9.797070  

    Final Occupation by Irrep:
              A 
    DOCC [    23 ]

  @DF-RKS Final Energy:  -430.45981269102771

   => Energetics <=

    Nuclear Repulsion Energy =            231.4689745494845567
    One-Electron Energy =               -1053.3336283571818512
    Two-Electron Energy =                 431.0986444439243996
    DFT Exchange-Correlation Energy =     -39.6938033272547699
    Empirical Dispersion Energy =           0.0000000000000000
    VV10 Nonlocal Energy =                  0.0000000000000000
    Total Energy =                       -430.4598126910277074

Computation Completed


Properties will be evaluated at   0.000000,   0.000000,   0.000000 [a0]

Properties computed using the SCF density matrix

  Nuclear Dipole Moment: [e a0]
     X:     2.1472      Y:     0.0005      Z:    -0.0009

  Electronic Dipole Moment: [e a0]
     X:    -2.7501      Y:     0.0025      Z:    -0.0043

  Dipole Moment: [e a0]
     X:    -0.6029      Y:     0.0030      Z:    -0.0052     Total:     0.6029

  Dipole Moment: [D]
     X:    -1.5323      Y:     0.0077      Z:    -0.0132     Total:     1.5324


*** tstop() called on n023 at Tue Nov  2 17:16:15 2021
Module time:
	user time   =      26.84 seconds =       0.45 minutes
	system time =       0.26 seconds =       0.00 minutes
	total time  =         27 seconds =       0.45 minutes
Total time:
	user time   =      26.84 seconds =       0.45 minutes
	system time =       0.26 seconds =       0.00 minutes
	total time  =         27 seconds =       0.45 minutes
Grab this energy -430.4598126910277
    Psi4 stopped on: Tuesday, 02 November 2021 05:16PM
    Psi4 wall time for execution: 0:00:27.14

*** Psi4 exiting successfully. Buy a developer a beer!
