
 Primary working directories    : /tmp/917057.126.gen4.q
 Secondary working directories  : /tmp/917057.126.gen4.q
 Wavefunction directory         : /home/vulcan/lo21740/wfu/
 Main file repository           : /tmp/917057.126.gen4.q/

 ARCHNAME  : Linux/x86_64
 FC        : /opt/intel/compilers_and_libraries_2016.1.150/linux/bin/intel64/ifort
 FCVERSION : 16.0.1
 BLASLIB   : -mkl
 id        : ccgc

 Nodes     nprocs
 n067         1
 ga_uses_ma=false, calling ma_init with nominal heap.
 GA-space will be limited to   8.0 MW (determined by -G option)

 Using customized tuning parameters: mindgm=10; mindgv=16; mindgc=4; mindgr=1; noblas=0; mincuda=1000; minvec=7
 default implementation of scratch files=df  

 ***,Optimization of h2o_2
 memory,1000,m
 gthresh,energy=1.0d-12,orbital=1.0d-10,oneint=1.0d-16,twoint=1.0d-16,optgrad=1.0d-6,compress=1.0d-13
 geomtyp=xyz
 
 bohr
 geometry = {
  C    0.0017904353   -3.4187524805    0.0051088207
  H   -0.9720139623   -2.7336042242   -1.6818873936
  H   -0.9721539873   -2.7340860215    1.6799658621
  H    1.9489149691   -2.7314797223   -0.0010817808
  H   -0.0025707670   -5.4735488918   -0.0015589246
  C   -0.0007937945    3.4201600257   -0.0001090218
  H   -0.0012599925    5.4799718051    0.0002166814
  H    0.9698448202    2.7309328979   -1.6811451107
  H    0.9698448973    2.7304013122    1.6807089736
  H   -1.9416026182    2.7300052996   -0.0002181064
 }
 
 basis=AVDZ
 {rhf;maxit,200}
 {ccsd(t);maxit,200}

 Variables initialized (661), CPU time= 0.00 sec
 Commands  initialized (458), CPU time= 0.00 sec, 486 directives.
 Default parameters read. Elapsed time= 0.04 sec

 Checking input...
 Passed
1


                                         ***  PROGRAM SYSTEM MOLPRO  ***
                         Copyright, University College Cardiff Consultants Limited, 2008

                                    Version 2010.1 linked May 16 2016 07:17:05


 **********************************************************************************************************************************
 LABEL *   Optimization of h2o_2                                                         
 Linux-4.4.3/n067(x86_64) 64 bit mpp version                                             DATE: 20-Jul-23          TIME: 14:07:11  
 **********************************************************************************************************************************

 SHA1:             9e8077add272b0f3cad6f7df79ec5211205f459d
 **********************************************************************************************************************************

 THRESHOLDS:

 ZERO    =  1.00D-12  ONEINT  =  1.00D-16  TWOINT  =  1.00D-16  PREFAC  =  1.00D-14  LOCALI  =  1.00D-09  EORDER  =  1.00D-04
 ENERGY  =  1.00D-12  ETEST   =  0.00D+00  EDENS   =  0.00D+00  THRDEDEF=  1.00D-06  GRADIENT=  1.00D-02  STEP    =  1.00D-03
 ORBITAL =  1.00D-10  CIVEC   =  1.00D-05  COEFF   =  1.00D-04  PRINTCI =  5.00D-02  PUNCHCI =  9.90D+01  OPTGRAD =  1.00D-06
 OPTENERG=  1.00D-06  OPTSTEP =  3.00D-04  THRGRAD =  1.00D-10  COMPRESS=  1.00D-13  VARMIN  =  1.00D-07  VARMAX  =  1.00D-03
 THRDOUB =  0.00D+00  THRDIV  =  1.00D-05  THRRED  =  1.00D-07  THRPSP  =  1.00D+00  THRDC   =  1.00D-10  THRCS   =  1.00D-10
 THRNRM  =  1.00D-08  THREQ   =  0.00D+00  THRDE   =  1.00D+00  THRREF  =  1.00D-05  SPARFAC =  1.00D+00  THRDLP  =  1.00D-07
 THRDIA  =  1.00D-10  THRDLS  =  1.00D-07  THRGPS  =  0.00D+00  THRKEX  =  0.00D+00  THRDIS  =  2.00D-01  THRVAR  =  1.00D-10
 THRLOC  =  1.00D-06  THRGAP  =  1.00D-06  THRLOCT = -1.00D+00  THRGAPT = -1.00D+00  THRORB  =  1.00D-06  THRMLTP =  0.00D+00
 THRCPQCI=  1.00D-10  KEXTA   =  0.00D+00  THRCOARS=  0.00D+00  SYMTOL  =  1.00D-06  GRADTOL =  1.00D-06  THROVL  =  1.00D-08
 THRORTH =  1.00D-08  GRID    =  1.00D-06  GRIDMAX =  1.00D-03  DTMAX   =  0.00D+00

 SETTING GEOMTYP        =    XYZ
 ZUNIT=BOHR
 

 Variable memory set to 1000000000 words,  buffer space   230000 words

 SETTING BASIS          =    AVDZ


 Recomputing integrals since basis changed


 Using spherical harmonics

 Library entry C      S aug-cc-pVDZ          selected for orbital group  1
 Library entry C      P aug-cc-pVDZ          selected for orbital group  1
 Library entry C      D aug-cc-pVDZ          selected for orbital group  1
 Library entry H      S aug-cc-pVDZ          selected for orbital group  2
 Library entry H      P aug-cc-pVDZ          selected for orbital group  2

1PROGRAM * SEWARD (Integral evaluation for generally contracted gaussian basis sets)     Author: Roland Lindh, 1990

 Geometry written to block  1 of record 700


 Point group  C1  



 ATOMIC COORDINATES

 NR  ATOM    CHARGE       X              Y              Z

   1  C       6.00    0.001790435   -3.418752480    0.005108821
   2  H       1.00   -0.972013962   -2.733604224   -1.681887394
   3  H       1.00   -0.972153987   -2.734086022    1.679965862
   4  H       1.00    1.948914969   -2.731479722   -0.001081781
   5  H       1.00   -0.002570767   -5.473548892   -0.001558925
   6  C       6.00   -0.000793794    3.420160026   -0.000109022
   7  H       1.00   -0.001259993    5.479971805    0.000216681
   8  H       1.00    0.969844820    2.730932898   -1.681145111
   9  H       1.00    0.969844897    2.730401312    1.680708974
  10  H       1.00   -1.941602618    2.730005300   -0.000218106

 Bond lengths in Bohr (Angstrom)

 1-2  2.064867881  1-3  2.054867881  1-4  2.064867094  1-5  2.054811858  6-7  2.059811858
     ( 1.092681022)     ( 1.087389250)     ( 1.092680606)     ( 1.087359604)     ( 1.090005490)

  6- 8  2.059867881   6- 9  2.059867881   6-10  2.059867095
       ( 1.090035136)       ( 1.090035136)       ( 1.090034720)

 Bond angles

  2-1-3  109.37964659   2-1-4  109.37953054   2-1-5  109.15698674   3-1-4  109.78467287

  3-1-5  109.56212909   4-1-5  109.56222121   7-6-8  109.56240831   7-6-9  109.56240831

  7- 6-10  109.56250040   8- 6- 9  109.37992579   8- 6-10  109.37980975   9- 6-10  109.37980975

 NUCLEAR CHARGE:                   20
 NUMBER OF PRIMITIVE AOS:         162
 NUMBER OF SYMMETRY AOS:          158
 NUMBER OF CONTRACTIONS:          118   ( 118A   )
 NUMBER OF CORE ORBITALS:           2   (   2A   )
 NUMBER OF VALENCE ORBITALS:       16   (  16A   )


 NUCLEAR REPULSION ENERGY   41.34871818


 Eigenvalues of metric

         1 0.369E-03 0.572E-03 0.575E-03 0.608E-03 0.728E-03 0.731E-03 0.776E-03 0.101E-02


 Contracted 2-electron integrals neglected if value below      1.0D-16
 AO integral compression algorithm  1   Integral accuracy      1.0D-16

     212.337 MB (compressed) written to integral file ( 92.8%)

     Node minimum: 212.337 MB, node maximum: 212.337 MB


 NUMBER OF SORTED TWO-ELECTRON INTEGRALS:   24650731.     BUFFER LENGTH:  32768
 NUMBER OF SEGMENTS:   2  SEGMENT LENGTH:   15997996      RECORD LENGTH: 524288

 Memory used in sort:      16.56 MW

 SORT1 READ    28594353. AND WROTE    24448822. INTEGRALS IN     71 RECORDS. CPU TIME:     0.26 SEC, REAL TIME:     0.40 SEC
 SORT2 READ    24448822. AND WROTE    24650731. INTEGRALS IN    810 RECORDS. CPU TIME:     0.23 SEC, REAL TIME:     0.33 SEC

 FILE SIZES:   FILE 1:   189.2 MBYTE,  FILE 4:   297.8 MBYTE,   TOTAL:    487.1 MBYTE

 OPERATOR DM      FOR CENTER  0  COORDINATES:    0.000000    0.000000    0.000000


 **********************************************************************************************************************************
 DATASETS  * FILE   NREC   LENGTH (MB)   RECORD NAMES
              1      19      189.40       500      610      700      900      950      970     1000      129      960     1100   
                                          VAR    BASINP    GEOM    SYMINP    ZMAT    AOBASIS   BASIS     P2S    ABASIS      S 
                                         1400     1410     1200     1210     1080     1600     1650     1300     1700   
                                           T        V       H0       H01     AOSYM     SMH    MOLCAS    ERIS     OPER   

 PROGRAMS   *        TOTAL       INT
 CPU TIMES  *         1.60      1.56
 REAL TIME  *         2.11 SEC
 DISK USED  *       700.18 MB      
 GA USED    *         0.00 MB       (max)       0.00 MB       (current)
 **********************************************************************************************************************************

1PROGRAM * RHF-SCF (CLOSED SHELL)       Authors: W. Meyer, H.-J. Werner


 NUMBER OF ELECTRONS:      10+   10-    SPACE SYMMETRY=1    SPIN SYMMETRY: Singlet 
 CONVERGENCE THRESHOLDS:    1.00E-10 (Density)    1.00E-13 (Energy)
 MAX. NUMBER OF ITERATIONS:      200
 INTERPOLATION TYPE:            DIIS
 INTERPOLATION STEPS:              2 (START)      1 (STEP)
 LEVEL SHIFTS:                  0.00 (CLOSED)  0.00 (OPEN) 



 Orbital guess generated from atomic densities. Full valence occupancy:   18

 Molecular orbital dump at record        2100.2

 ITERATION    DDIFF          GRAD             ENERGY        2-EL.EN.            DIPOLE MOMENTS         DIIS
    1      0.000D+00      0.000D+00       -80.36230832    134.808706   -0.00027   -0.00052   -0.00462    0
    2      0.000D+00      0.368D-02       -80.39420312    132.503742   -0.00105   -0.00175    0.00039    1
    3      0.809D-02      0.137D-02       -80.39817824    133.331306   -0.00120   -0.00201   -0.00013    2
    4      0.256D-02      0.371D-03       -80.39876525    133.200546   -0.00130   -0.00221    0.00029    3
    5      0.868D-03      0.458D-04       -80.39877397    133.207452   -0.00132   -0.00224    0.00035    4
    6      0.878D-04      0.295D-05       -80.39877402    133.207288   -0.00132   -0.00224    0.00035    5
    7      0.107D-04      0.223D-06       -80.39877402    133.207270   -0.00132   -0.00224    0.00035    5
    8      0.155D-05      0.353D-07       -80.39877402    133.207270   -0.00132   -0.00224    0.00035    4
    9      0.291D-06      0.592D-08       -80.39877402    133.207271   -0.00132   -0.00224    0.00035    4
   10      0.204D-07      0.104D-08       -80.39877402    133.207271   -0.00132   -0.00224    0.00035    5
   11      0.245D-08      0.268D-09       -80.39877402    133.207271   -0.00132   -0.00224    0.00035    5
   12      0.123D-08      0.825D-10       -80.39877402    133.207271   -0.00132   -0.00224    0.00035    6
   13      0.274D-09      0.177D-10       -80.39877402    133.207271   -0.00132   -0.00224    0.00035    6
   14      0.492D-10      0.358D-11       -80.39877402    133.207271   -0.00132   -0.00224    0.00035    6
   15      0.169D-10      0.531D-12       -80.39877402    133.207271   -0.00132   -0.00224    0.00035    0

 Final occupancy:  10

 !RHF STATE 1.1 Energy                -80.398774021436
 Nuclear energy                        41.34871818
 One-electron energy                 -188.35112784
 Two-electron energy                   66.60363564
 Virial quotient                       -1.00196044
 !RHF STATE 1.1 Dipole moment          -0.00131872    -0.00224487     0.00035134
 Dipole moment /Debye                  -0.00335164    -0.00570552     0.00089296

 Orbital energies:

         1.1          2.1          3.1          4.1          5.1          6.1          7.1          8.1          9.1         10.1
    -11.214644   -11.214580    -0.945550    -0.939583    -0.550977    -0.546989    -0.546048    -0.539472    -0.538504    -0.535582

        11.1         12.1
      0.035477     0.045868


 **********************************************************************************************************************************
 DATASETS  * FILE   NREC   LENGTH (MB)   RECORD NAMES
              1      19      189.40       500      610      700      900      950      970     1000      129      960     1100   
                                          VAR    BASINP    GEOM    SYMINP    ZMAT    AOBASIS   BASIS     P2S    ABASIS      S 
                                         1400     1410     1200     1210     1080     1600     1650     1300     1700   
                                           T        V       H0       H01     AOSYM     SMH    MOLCAS    ERIS     OPER   

              2       3        0.70       700     1000     2100   
                                         GEOM     BASIS     RHF  

 PROGRAMS   *        TOTAL       RHF       INT
 CPU TIMES  *         4.54      2.94      1.56
 REAL TIME  *         5.35 SEC
 DISK USED  *       700.18 MB      
 GA USED    *         0.00 MB       (max)       0.00 MB       (current)
 **********************************************************************************************************************************


1PROGRAM * CCSD (Closed-shell coupled cluster)     Authors: C. Hampel, H.-J. Werner, 1991, M. Deegan, P.J. Knowles, 1992


 Convergence thresholds:  THRVAR = 1.00D-08  THRDEN = 1.00D-12

 CCSD(T)     terms to be evaluated (factor= 1.000)


 Number of core orbitals:           2 (   2 )
 Number of closed-shell orbitals:   8 (   8 )
 Number of external orbitals:     108 ( 108 )

 Molecular orbitals read from record     2100.2  Type=RHF/CANONICAL (state 1.1)

 Number of N-1 electron functions:               8
 Number of N-2 electron functions:              36
 Number of singly external CSFs:               864
 Number of doubly external CSFs:            373680
 Total number of CSFs:                      374545

 Length of J-op  integral file:               0.00 MB
 Length of K-op  integral file:               1.00 MB
 Length of 3-ext integral record:             0.00 MB

 Memory could be reduced to 14.62 Mwords without degradation in triples

 Integral transformation finished. Total CPU:   0.72 sec, npass=  1  Memory used:   8.61 MW

 Reference energy:                    -80.39877402

 MP2 singlet pair energy:              -0.24106918
 MP2 triplet pair energy:              -0.09676280
 MP2 correlation energy:               -0.33783197
 MP2 total energy:                    -80.73660600

 SCS-MP2 correlation energy:           -0.34949097   (PS=  1.200000  PT=  0.333333)
 SCS-MP2 total energy:                -80.74826500

 ITER.      SQ.NORM     CORR.ENERGY   TOTAL ENERGY   ENERGY CHANGE        DEN1      VAR(S)    VAR(P)  DIIS     TIME
   1      1.14044224    -0.38148365   -80.78025767    -0.04365167    -0.03251885  0.70D-03  0.24D-02  1  1     1.57
   2      1.15349268    -0.38423926   -80.78301328    -0.00275561    -0.01269510  0.16D-04  0.11D-03  2  2     2.47
   3      1.15560449    -0.38437204   -80.78314606    -0.00013278    -0.00112983  0.25D-05  0.71D-05  3  3     3.38
   4      1.15605185    -0.38439019   -80.78316421    -0.00001815    -0.00017685  0.10D-06  0.45D-06  4  4     4.29
   5      1.15612289    -0.38438688   -80.78316090     0.00000331    -0.00003213  0.39D-08  0.31D-07  5  5     5.19
   6      1.15612674    -0.38438587   -80.78315990     0.00000100    -0.00000140  0.28D-09  0.20D-08  6  6     6.10
   7      1.15612712    -0.38438609   -80.78316012    -0.00000022    -0.00000001  0.24D-10  0.13D-09  6  1     7.01
   8      1.15612718    -0.38438611   -80.78316013    -0.00000002    -0.00000007  0.24D-11  0.96D-11  6  2     7.92
   9      1.15612712    -0.38438612   -80.78316014    -0.00000000     0.00000003  0.45D-12  0.75D-12  6  3     8.84
  10      1.15612708    -0.38438612   -80.78316014    -0.00000000     0.00000002  0.35D-13  0.66D-13  6  4     9.75
  11      1.15612706    -0.38438612   -80.78316014    -0.00000000     0.00000002  0.32D-14  0.71D-14  6  5    10.65
  12      1.15612704    -0.38438612   -80.78316014    -0.00000000     0.00000001  0.28D-15  0.85D-15  6  6    11.56
  13      1.15612704    -0.38438612   -80.78316014    -0.00000000     0.00000000  0.22D-16  0.10D-15  6  1    12.47
  14      1.15612704    -0.38438612   -80.78316014    -0.00000000     0.00000000  0.25D-17  0.11D-16  6  3    13.39
  15      1.15612704    -0.38438612   -80.78316014    -0.00000000     0.00000000  0.19D-18  0.60D-18  6  2    14.29
  16      1.15612704    -0.38438612   -80.78316014    -0.00000000     0.00000000  0.26D-19  0.46D-19  6  4    15.21
  17      1.15612704    -0.38438612   -80.78316014    -0.00000000     0.00000000  0.31D-20  0.58D-20  6  5    16.12
  18      1.15612704    -0.38438612   -80.78316014    -0.00000000     0.00000000  0.34D-21  0.49D-21  6  6    17.03

 Norm of t1 vector:      0.03916372      S-energy:     0.00000000      T1 diagnostic:  0.00692323
                                                                       D1 diagnostic:  0.01252906


 Total CPU time for triples:     10.61 sec


 RESULTS
 =======

  Reference energy                    -80.398774021435
  CCSD singlet pair energy             -0.290160592833
  CCSD triplet pair energy             -0.094225525271
  CCSD correlation energy              -0.384386118104

  Triples (T) contribution             -0.009220290297
  Total correlation energy             -0.393606408402

  CCSD total energy                   -80.783160139539
  CCSD[T] energy                      -80.792601357537
  CCSD-T energy                       -80.792263199367
 !CCSD(T) total energy                -80.792380429837

 Timing summary (sec):

 STEP                 CPU(USER)    SYS     CPU(TOT)    WALL
 Transformation          0.74      0.09      0.83      0.82
 CCSD iterations        16.29      0.69     16.98     17.02
 Triples                10.61      0.18     10.79     10.81

 Program statistics:

 Available memory in ccsd:               999999644
 Min. memory needed in ccsd:               1156281
 Max. memory used in ccsd:                 1468601
 Max. memory used in cckext:               1135046 (18 integral passes)



 **********************************************************************************************************************************
 DATASETS  * FILE   NREC   LENGTH (MB)   RECORD NAMES
              1      20      236.38       500      610      700      900      950      970     1000      129      960     1100   
                                          VAR    BASINP    GEOM    SYMINP    ZMAT    AOBASIS   BASIS     P2S    ABASIS      S 
                                         1400     1410     1200     1210     1080     1600     1650     1300     1700     1380   
                                           T        V       H0       H01     AOSYM     SMH    MOLCAS    ERIS     OPER     JKOP   

              2       3        0.70       700     1000     2100   
                                         GEOM     BASIS     RHF  

 PROGRAMS   *        TOTAL   CCSD(T)       RHF       INT
 CPU TIMES  *        32.19     27.65      2.94      1.56
 REAL TIME  *        34.03 SEC
 DISK USED  *       700.18 MB      
 GA USED    *         0.00 MB       (max)       0.00 MB       (current)
 **********************************************************************************************************************************

        CCSD(T)         RHF-SCF 
    -80.79238043    -80.39877402
 **********************************************************************************************************************************
 Variable memory released
