
 Primary working directories    : /tmp/1047041.581.gen4.q
 Secondary working directories  : /tmp/1047041.581.gen4.q
 Wavefunction directory         : /home/vulcan/mel64643/wfu/
 Main file repository           : /tmp/1047041.581.gen4.q/

 ARCHNAME  : Linux/x86_64
 FC        : /opt/intel/compilers_and_libraries_2016.1.150/linux/bin/intel64/ifort
 FCVERSION : 16.0.1
 BLASLIB   : -mkl
 id        : ccgc

 Nodes     nprocs
 n065         1
 ga_uses_ma=false, calling ma_init with nominal heap.
 GA-space will be limited to   8.0 MW (determined by -G option)

 Using customized tuning parameters: mindgm=10; mindgv=16; mindgc=4; mindgr=1; noblas=0; mincuda=1000; minvec=7
 default implementation of scratch files=df  

 ***,Optimization of ben_hcn
 memory,1000,m
 gthresh,energy=1.0d-12,orbital=1.0d-10,oneint=1.0d-16,twoint=1.0d-16,optgrad=1.0d-6,compress=1.0d-13
 geomtyp=xyz
 
 
 
 bohr
 geometry = {
  C   -1.8829279156    1.3700852639    2.2872279571
  C   -1.8559942139    2.6908069013   -0.0026400338
  C   -1.8737081858    1.3682289099   -2.2915111482
  C   -1.9183185692   -1.2748604572   -2.2904306741
  C   -1.9452385294   -2.5953993917   -0.0006931933
  C   -1.9275175202   -1.2730235695    2.2880860570
  H   -1.8634370074    2.3916333478    4.0554544270
  H   -1.8158315225    4.7355096093   -0.0033995710
  H   -1.8468168818    2.3926597300   -4.0679713101
  H   -1.9256180028   -2.3023871875   -4.0685997593
  H   -1.9731885086   -4.6460295716    0.0000896489
  H   -1.9419604687   -2.2948116888    4.0595294488
  N    6.6154648549   -0.1988124299    0.0076226295
  C    4.4257824257   -0.0753418300    0.0106904102
  H    2.4161112925    0.0382659117    0.0136456254
 }
 
 basis=aug-cc-pvdz, H=cc-pvdz
 {rhf;maxit,200}
 {ccsd(t)}

 Variables initialized (661), CPU time= 0.01 sec
 Commands  initialized (458), CPU time= 0.00 sec, 486 directives.
 Default parameters read. Elapsed time= 0.05 sec

 Checking input...
 Passed
1


                                         ***  PROGRAM SYSTEM MOLPRO  ***
                         Copyright, University College Cardiff Consultants Limited, 2008

                                    Version 2010.1 linked May 16 2016 07:17:05


 **********************************************************************************************************************************
 LABEL *   Optimization of ben_hcn                                                       
 Linux-4.4.3/n065(x86_64) 64 bit mpp version                                             DATE: 07-Mar-24          TIME: 19:53:22  
 **********************************************************************************************************************************

 SHA1:             9e8077add272b0f3cad6f7df79ec5211205f459d
 **********************************************************************************************************************************

 THRESHOLDS:

 ZERO    =  1.00D-12  ONEINT  =  1.00D-16  TWOINT  =  1.00D-16  PREFAC  =  1.00D-14  LOCALI  =  1.00D-09  EORDER  =  1.00D-04
 ENERGY  =  1.00D-12  ETEST   =  0.00D+00  EDENS   =  0.00D+00  THRDEDEF=  1.00D-06  GRADIENT=  1.00D-02  STEP    =  1.00D-03
 ORBITAL =  1.00D-10  CIVEC   =  1.00D-05  COEFF   =  1.00D-04  PRINTCI =  5.00D-02  PUNCHCI =  9.90D+01  OPTGRAD =  1.00D-06
 OPTENERG=  1.00D-06  OPTSTEP =  3.00D-04  THRGRAD =  1.00D-10  COMPRESS=  1.00D-13  VARMIN  =  1.00D-07  VARMAX  =  1.00D-03
 THRDOUB =  0.00D+00  THRDIV  =  1.00D-05  THRRED  =  1.00D-07  THRPSP  =  1.00D+00  THRDC   =  1.00D-10  THRCS   =  1.00D-10
 THRNRM  =  1.00D-08  THREQ   =  0.00D+00  THRDE   =  1.00D+00  THRREF  =  1.00D-05  SPARFAC =  1.00D+00  THRDLP  =  1.00D-07
 THRDIA  =  1.00D-10  THRDLS  =  1.00D-07  THRGPS  =  0.00D+00  THRKEX  =  0.00D+00  THRDIS  =  2.00D-01  THRVAR  =  1.00D-10
 THRLOC  =  1.00D-06  THRGAP  =  1.00D-06  THRLOCT = -1.00D+00  THRGAPT = -1.00D+00  THRORB  =  1.00D-06  THRMLTP =  0.00D+00
 THRCPQCI=  1.00D-10  KEXTA   =  0.00D+00  THRCOARS=  0.00D+00  SYMTOL  =  1.00D-06  GRADTOL =  1.00D-06  THROVL  =  1.00D-08
 THRORTH =  1.00D-08  GRID    =  1.00D-06  GRIDMAX =  1.00D-03  DTMAX   =  0.00D+00

 SETTING GEOMTYP        =    XYZ
 ZUNIT=BOHR
 

 Variable memory set to 1000000000 words,  buffer space   230000 words

 SETTING BASIS          =    AUG-CC-PVDZ,H=CC-PVDZ


 Recomputing integrals since basis changed


 Using spherical harmonics

 Library entry C      S aug-cc-pVDZ          selected for orbital group  1
 Library entry C      P aug-cc-pVDZ          selected for orbital group  1
 Library entry C      D aug-cc-pVDZ          selected for orbital group  1
 Library entry H      S cc-pVDZ              selected for orbital group  2
 Library entry H      P cc-pVDZ              selected for orbital group  2
 Library entry N      S aug-cc-pVDZ          selected for orbital group  3
 Library entry N      P aug-cc-pVDZ          selected for orbital group  3
 Library entry N      D aug-cc-pVDZ          selected for orbital group  3

1PROGRAM * SEWARD (Integral evaluation for generally contracted gaussian basis sets)     Author: Roland Lindh, 1990

 Geometry written to block  1 of record 700


 Point group  C1  



 ATOMIC COORDINATES

 NR  ATOM    CHARGE       X              Y              Z

   1  C       6.00   -1.882927916    1.370085264    2.287227957
   2  C       6.00   -1.855994214    2.690806901   -0.002640034
   3  C       6.00   -1.873708186    1.368228910   -2.291511148
   4  C       6.00   -1.918318569   -1.274860457   -2.290430674
   5  C       6.00   -1.945238529   -2.595399392   -0.000693193
   6  C       6.00   -1.927517520   -1.273023570    2.288086057
   7  H       1.00   -1.863437007    2.391633348    4.055454427
   8  H       1.00   -1.815831522    4.735509609   -0.003399571
   9  H       1.00   -1.846816882    2.392659730   -4.067971310
  10  H       1.00   -1.925618003   -2.302387187   -4.068599759
  11  H       1.00   -1.973188509   -4.646029572    0.000089649
  12  H       1.00   -1.941960469   -2.294811689    4.059529449
  13  N       7.00    6.615464855   -0.198812430    0.007622630
  14  C       6.00    4.425782426   -0.075341830    0.010690410
  15  H       1.00    2.416111293    0.038265912    0.013645625

 Bond lengths in Bohr (Angstrom)

 1-2  2.643582131  1-6  2.643485062  1-7  2.042196179  2-3  2.643569047  2-8  2.045097255
     ( 1.398923414)     ( 1.398872047)     ( 1.080683674)     ( 1.398916490)     ( 1.082218858)

  3- 4  2.643466031   3- 9  2.050851617   4- 5  2.643377667   4-10  2.053716085   5- 6  2.643388414
       ( 1.398861976)       ( 1.085263935)       ( 1.398815216)       ( 1.086779746)       ( 1.398820903)

  5-11  2.050820799   6-12  2.045060207  13-14  2.193162908  14-15  2.012881893
       ( 1.085247626)       ( 1.082199253)       ( 1.160571827)       ( 1.065171222)

 Bond angles

  1- 2- 3  119.99746554   1- 2- 8  120.00138036   1- 6- 5  120.00123553   1- 6-12  119.99777554

  2-1-6  119.99850408   2-1-7  119.99930039   2-3-4  119.99920947   2-3-9  119.99924848

  3- 2- 8  120.00090383   3- 4- 5  120.00130464   3- 4-10  119.99737977   4- 3- 9  120.00125656

  4- 5- 6  120.00228072   4- 5-11  119.99920623   5- 4-10  120.00098995   5- 6-12  120.00067069

  6- 1- 7  120.00192401   6- 5-11  119.99816148  13-14-15  179.99091377

 NUCLEAR CHARGE:                   56
 NUMBER OF PRIMITIVE AOS:         345
 NUMBER OF SYMMETRY AOS:          329
 NUMBER OF CONTRACTIONS:          219   ( 219A   )
 NUMBER OF CORE ORBITALS:           8   (   8A   )
 NUMBER OF VALENCE ORBITALS:       39   (  39A   )


 NUCLEAR REPULSION ENERGY  303.49325332


 Eigenvalues of metric

         1 0.864E-05 0.186E-04 0.229E-04 0.534E-04 0.630E-04 0.630E-04 0.929E-04 0.929E-04


 Contracted 2-electron integrals neglected if value below      1.0D-16
 AO integral compression algorithm  1   Integral accuracy      1.0D-16

     2340.684 MB (compressed) written to integral file ( 91.3%)

     Node minimum: 2340.684 MB, node maximum: 2340.684 MB


 NUMBER OF SORTED TWO-ELECTRON INTEGRALS:  290176095.     BUFFER LENGTH:  32768
 NUMBER OF SEGMENTS:  19  SEGMENT LENGTH:   15999762      RECORD LENGTH: 524288

 Memory used in sort:      16.56 MW

 SORT1 READ   320642736. AND WROTE   287624804. INTEGRALS IN    832 RECORDS. CPU TIME:     3.29 SEC, REAL TIME:     5.83 SEC
 SORT2 READ   287624804. AND WROTE   290176095. INTEGRALS IN   8929 RECORDS. CPU TIME:     1.86 SEC, REAL TIME:     3.08 SEC

 FILE SIZES:   FILE 1:  2151.7 MBYTE,  FILE 4:  3489.7 MBYTE,   TOTAL:   5641.4 MBYTE

 OPERATOR DM      FOR CENTER  0  COORDINATES:    0.000000    0.000000    0.000000


 **********************************************************************************************************************************
 DATASETS  * FILE   NREC   LENGTH (MB)   RECORD NAMES
              1      19     2152.25       500      610      700      900      950      970     1000      129      960     1100   
                                          VAR    BASINP    GEOM    SYMINP    ZMAT    AOBASIS   BASIS     P2S    ABASIS      S 
                                         1400     1410     1200     1210     1080     1600     1650     1300     1700   
                                           T        V       H0       H01     AOSYM     SMH    MOLCAS    ERIS     OPER   

 PROGRAMS   *        TOTAL       INT
 CPU TIMES  *        18.31     18.26
 REAL TIME  *        23.70 SEC
 DISK USED  *         7.98 GB      
 GA USED    *         0.01 MB       (max)       0.00 MB       (current)
 **********************************************************************************************************************************

1PROGRAM * RHF-SCF (CLOSED SHELL)       Authors: W. Meyer, H.-J. Werner


 NUMBER OF ELECTRONS:      28+   28-    SPACE SYMMETRY=1    SPIN SYMMETRY: Singlet 
 CONVERGENCE THRESHOLDS:    1.00E-10 (Density)    1.00E-13 (Energy)
 MAX. NUMBER OF ITERATIONS:      200
 INTERPOLATION TYPE:            DIIS
 INTERPOLATION STEPS:              2 (START)      1 (STEP)
 LEVEL SHIFTS:                  0.00 (CLOSED)  0.00 (OPEN) 



 Orbital guess generated from atomic densities. Full valence occupancy:   47

 Molecular orbital dump at record        2100.2

 ITERATION    DDIFF          GRAD             ENERGY        2-EL.EN.            DIPOLE MOMENTS         DIIS
    1      0.000D+00      0.000D+00      -323.54151993    822.319828   -1.89188    0.09832   -0.00489    0
    2      0.000D+00      0.291D-02      -323.59796051    819.298520   -1.36614    0.05173    0.00254    1
    3      0.780D-02      0.178D-02      -323.61437524    820.445651   -1.72536    0.07927    0.00115    2
    4      0.259D-02      0.577D-03      -323.61671345    820.644755   -1.63454    0.07224    0.00124    3
    5      0.963D-03      0.134D-03      -323.61684282    820.384784   -1.65850    0.07323    0.00167    4
    6      0.223D-03      0.228D-04      -323.61684893    820.411644   -1.65983    0.07314    0.00158    5
    7      0.844D-04      0.431D-05      -323.61684913    820.406765   -1.66018    0.07311    0.00165    6
    8      0.107D-04      0.122D-05      -323.61684914    820.407749   -1.66049    0.07313    0.00160    7
    9      0.344D-05      0.265D-06      -323.61684914    820.407782   -1.66045    0.07311    0.00164    6
   10      0.809D-06      0.696D-07      -323.61684914    820.407762   -1.66046    0.07313    0.00161    6
   11      0.183D-06      0.356D-07      -323.61684914    820.407777   -1.66046    0.07312    0.00162    7
   12      0.816D-07      0.688D-08      -323.61684914    820.407771   -1.66045    0.07312    0.00162    7
   13      0.232D-07      0.254D-08      -323.61684914    820.407774   -1.66045    0.07312    0.00162    7
   14      0.631D-08      0.749D-09      -323.61684914    820.407773   -1.66045    0.07312    0.00162    7
   15      0.205D-08      0.284D-09      -323.61684914    820.407773   -1.66045    0.07312    0.00162    8
   16      0.803D-09      0.928D-10      -323.61684914    820.407773   -1.66045    0.07312    0.00162    8
   17      0.262D-09      0.388D-10      -323.61684914    820.407773   -1.66045    0.07312    0.00162    8
   18      0.157D-09      0.191D-10      -323.61684914    820.407773   -1.66045    0.07312    0.00162    8
   19      0.212D-09      0.854D-11      -323.61684914    820.407773   -1.66045    0.07312    0.00162    8
   20      0.303D-09      0.332D-11      -323.61684914    820.407773   -1.66045    0.07312    0.00162    9
   21      0.270D-09      0.145D-11      -323.61684914    820.407773   -1.66045    0.07312    0.00162    9
   22      0.125D-09      0.778D-12      -323.61684914    820.407773   -1.66045    0.07312    0.00162    9
   23      0.110D-09      0.621D-12      -323.61684914    820.407773   -1.66045    0.07312    0.00162    9
   24      0.639D-10      0.581D-12      -323.61684914    820.407773   -1.66045    0.07312    0.00162    9
   25      0.455D-10      0.508D-12      -323.61684914    820.407773   -1.66045    0.07312    0.00162    9
   26      0.299D-10      0.530D-12      -323.61684914    820.407773   -1.66045    0.07312    0.00162    9
   27      0.263D-10      0.457D-12      -323.61684914    820.407773   -1.66045    0.07312    0.00162    9
   28      0.269D-10      0.431D-12      -323.61684914    820.407773   -1.66045    0.07312    0.00162    9
   29      0.160D-10      0.452D-12      -323.61684914    820.407773   -1.66045    0.07312    0.00162    9
   30      0.186D-10      0.426D-12      -323.61684914    820.407773   -1.66045    0.07312    0.00162    9
   31      0.106D-10      0.458D-12      -323.61684914    820.407773   -1.66045    0.07312    0.00162    9
   32      0.938D-11      0.454D-12      -323.61684914    820.407773   -1.66045    0.07312    0.00162    9
   33      0.164D-10      0.476D-12      -323.61684914    820.407773   -1.66045    0.07312    0.00162    0

 Final occupancy:  28

 !RHF STATE 1.1 Energy               -323.616849142037
 Nuclear energy                       303.49325332
 One-electron energy                -1037.31398901
 Two-electron energy                  410.20388655
 Virial quotient                       -1.00168448
 !RHF STATE 1.1 Dipole moment          -1.66045302     0.07311961     0.00161913
 Dipole moment /Debye                  -4.22017418     0.18583933     0.00411514

 Orbital energies:

         1.1          2.1          3.1          4.1          5.1          6.1          7.1          8.1          9.1         10.1
    -15.591755   -11.283560   -11.266255   -11.265665   -11.265600   -11.264505   -11.264445   -11.263820    -1.218419    -1.173864

        11.1         12.1         13.1         14.1         15.1         16.1         17.1         18.1         19.1         20.1
     -1.037737    -1.037736    -0.845673    -0.845669    -0.791929    -0.729320    -0.664833    -0.639140    -0.608512    -0.608509

        21.1         22.1         23.1         24.1         25.1         26.1         27.1         28.1         29.1         30.1
     -0.565385    -0.520362    -0.514805    -0.514802    -0.475792    -0.475788    -0.359616    -0.359611     0.055878     0.060103


 **********************************************************************************************************************************
 DATASETS  * FILE   NREC   LENGTH (MB)   RECORD NAMES
              1      19     2152.25       500      610      700      900      950      970     1000      129      960     1100   
                                          VAR    BASINP    GEOM    SYMINP    ZMAT    AOBASIS   BASIS     P2S    ABASIS      S 
                                         1400     1410     1200     1210     1080     1600     1650     1300     1700   
                                           T        V       H0       H01     AOSYM     SMH    MOLCAS    ERIS     OPER   

              2       3        1.49       700     1000     2100   
                                         GEOM     BASIS     RHF  

 PROGRAMS   *        TOTAL       RHF       INT
 CPU TIMES  *        93.32     75.02     18.26
 REAL TIME  *       106.31 SEC
 DISK USED  *         7.98 GB      
 GA USED    *         0.01 MB       (max)       0.00 MB       (current)
 **********************************************************************************************************************************


1PROGRAM * CCSD (Closed-shell coupled cluster)     Authors: C. Hampel, H.-J. Werner, 1991, M. Deegan, P.J. Knowles, 1992


 Convergence thresholds:  THRVAR = 1.00D-08  THRDEN = 1.00D-12

 CCSD(T)     terms to be evaluated (factor= 1.000)


 Number of core orbitals:           8 (   8 )
 Number of closed-shell orbitals:  20 (  20 )
 Number of external orbitals:     191 ( 191 )

 Molecular orbitals read from record     2100.2  Type=RHF/CANONICAL (state 1.1)

 Number of N-1 electron functions:              20
 Number of N-2 electron functions:             210
 Number of singly external CSFs:              3820
 Number of doubly external CSFs:           7298110
 Total number of CSFs:                     7301931

 Length of J-op  integral file:               0.00 MB
 Length of K-op  integral file:               3.32 MB
 Length of 3-ext integral record:             0.00 MB

 Memory could be reduced to 174.82 Mwords without degradation in triples

 Integral transformation finished. Total CPU:  19.10 sec, npass=  1  Memory used: 128.13 MW

 Reference energy:                   -323.61684914

 MP2 singlet pair energy:              -0.67328495
 MP2 triplet pair energy:              -0.43518321
 MP2 correlation energy:               -1.10846815
 MP2 total energy:                   -324.72531729

 SCS-MP2 correlation energy:           -1.07872260   (PS=  1.200000  PT=  0.333333)
 SCS-MP2 total energy:               -324.69557174

 ITER.      SQ.NORM     CORR.ENERGY   TOTAL ENERGY   ENERGY CHANGE        DEN1      VAR(S)    VAR(P)  DIIS     TIME
   1      1.42863020    -1.14453937  -324.76138852    -0.03607122    -0.00289051  0.51D-02  0.99D-02  1  1    71.05
   2      1.46293124    -1.15040764  -324.76725678    -0.00586826    -0.03102102  0.83D-04  0.13D-02  2  2   123.51
   3      1.47620728    -1.15085391  -324.76770305    -0.00044627    -0.00655316  0.40D-04  0.12D-03  3  3   176.02
   4      1.48189569    -1.15110349  -324.76795263    -0.00024958    -0.00178484  0.22D-05  0.15D-04  4  4   228.56
   5      1.48342302    -1.15113897  -324.76798811    -0.00003548    -0.00036540  0.25D-06  0.14D-05  5  5   281.10
   6      1.48372832    -1.15113050  -324.76797964     0.00000847    -0.00004999  0.24D-07  0.91D-07  6  6   333.65
   7      1.48376309    -1.15113391  -324.76798305    -0.00000342    -0.00000224  0.34D-08  0.80D-08  6  2   386.22
   8      1.48376775    -1.15113427  -324.76798341    -0.00000036    -0.00000041  0.41D-09  0.83D-09  6  1   438.76
   9      1.48376798    -1.15113444  -324.76798358    -0.00000017     0.00000079  0.63D-10  0.78D-10  6  3   491.30
  10      1.48376836    -1.15113449  -324.76798364    -0.00000006     0.00000002  0.10D-10  0.98D-11  6  4   543.85
  11      1.48376809    -1.15113453  -324.76798367    -0.00000004     0.00000022  0.16D-11  0.14D-11  6  5   596.40
  12      1.48376792    -1.15113454  -324.76798368    -0.00000001     0.00000008  0.24D-12  0.27D-12  6  6   648.94
  13      1.48376779    -1.15113455  -324.76798369    -0.00000000     0.00000005  0.14D-13  0.52D-13  6  2   701.51
  14      1.48376772    -1.15113455  -324.76798369    -0.00000000     0.00000002  0.21D-14  0.94D-14  6  1   754.06
  15      1.48376770    -1.15113455  -324.76798369     0.00000000     0.00000001  0.46D-15  0.13D-14  6  3   806.62
  16      1.48376769    -1.15113455  -324.76798369    -0.00000000     0.00000000  0.98D-16  0.19D-15  6  4   859.18
  17      1.48376769    -1.15113455  -324.76798369    -0.00000000     0.00000000  0.19D-16  0.28D-16  6  5   911.72
  18      1.48376768    -1.15113455  -324.76798369    -0.00000000     0.00000000  0.36D-17  0.36D-17  6  6   964.29
  19      1.48376768    -1.15113455  -324.76798369    -0.00000000     0.00000000  0.83D-18  0.61D-18  6  2  1016.85
  20      1.48376768    -1.15113455  -324.76798369    -0.00000000     0.00000000  0.18D-18  0.13D-18  6  1  1069.40
  21      1.48376768    -1.15113455  -324.76798369    -0.00000000     0.00000000  0.64D-19  0.39D-19  6  3  1121.97
  22      1.48376768    -1.15113455  -324.76798369     0.00000000     0.00000000  0.30D-19  0.17D-19  6  4  1174.51

 Norm of t1 vector:      0.09769156      S-energy:     0.00000000      T1 diagnostic:  0.01092225
                                                                       D1 diagnostic:  0.02771960

 Doubles amplitudes (print threshold =  0.500E-01):

         I         J         SYM. A    SYM. B    A         B      T(IJ, AB)

        19        19         1         1         7         7     -0.06198653
        20        20         1         1         8         8     -0.06198705


 Total CPU time for triples:   1081.95 sec


 RESULTS
 =======

  Reference energy                   -323.616849142039
  CCSD singlet pair energy             -0.769929183368
  CCSD triplet pair energy             -0.381205362857
  CCSD correlation energy              -1.151134546225

  Triples (T) contribution             -0.054003769383
  Total correlation energy             -1.205138315608

  CCSD total energy                  -324.767983688264
  CCSD[T] energy                     -324.823318780246
  CCSD-T energy                      -324.821382141498
 !CCSD(T) total energy               -324.821987457647

 Timing summary (sec):

 STEP                 CPU(USER)    SYS     CPU(TOT)    WALL
 Transformation         19.64      1.09     20.73     20.74
 CCSD iterations      1154.89     14.59   1169.48   1169.60
 Triples              1081.95     15.98   1097.93   1098.00

 Program statistics:

 Available memory in ccsd:               999998300
 Min. memory needed in ccsd:              17709720
 Max. memory used in ccsd:                24415330
 Max. memory used in cckext:              20754978 (22 integral passes)



 **********************************************************************************************************************************
 DATASETS  * FILE   NREC   LENGTH (MB)   RECORD NAMES
              1      20     2834.42       500      610      700      900      950      970     1000      129      960     1100   
                                          VAR    BASINP    GEOM    SYMINP    ZMAT    AOBASIS   BASIS     P2S    ABASIS      S 
                                         1400     1410     1200     1210     1080     1600     1650     1300     1700     1380   
                                           T        V       H0       H01     AOSYM     SMH    MOLCAS    ERIS     OPER     JKOP   

              2       3        1.49       700     1000     2100   
                                         GEOM     BASIS     RHF  

 PROGRAMS   *        TOTAL   CCSD(T)       RHF       INT
 CPU TIMES  *      2349.81   2256.49     75.02     18.26
 REAL TIME  *      2394.78 SEC
 DISK USED  *         7.98 GB      
 GA USED    *         0.01 MB       (max)       0.00 MB       (current)
 **********************************************************************************************************************************

        CCSD(T)         RHF-SCF 
   -324.82198746   -323.61684914
 **********************************************************************************************************************************
 Variable memory released
