
 Primary working directories    : /tmp/1049502.1173.gen6.q
 Secondary working directories  : /tmp/1049502.1173.gen6.q
 Wavefunction directory         : /home/vulcan/jj04645/wfu/
 Main file repository           : /tmp/1049502.1173.gen6.q/

 ARCHNAME  : Linux/x86_64
 FC        : /opt/intel/compilers_and_libraries_2016.1.150/linux/bin/intel64/ifort
 FCVERSION : 16.0.1
 BLASLIB   : -mkl
 id        : ccgc

 Nodes     nprocs
 n087         1
 ga_uses_ma=false, calling ma_init with nominal heap.
 GA-space will be limited to   8.0 MW (determined by -G option)

 Using customized tuning parameters: mindgm=10; mindgv=16; mindgc=4; mindgr=1; noblas=0; mincuda=1000; minvec=7
 default implementation of scratch files=df  

 ***,Optimization of neopentane
 memory,1000,m
 gthresh,energy=1.0d-12,orbital=1.0d-10,oneint=1.0d-16,twoint=1.0d-16,optgrad=1.0d-6,compress=1.0d-13
 geomtyp=xyz
 
 bohr
 geometry = {
  C   -0.0000014694   -0.0000014698    0.0009520609
  C    2.3640790412   -0.0009576872   -1.6735912394
  C    0.0017655750   -2.3640813618    1.6754955752
  C    0.0009525641    2.3668007364    1.6716463016
  C   -2.3668030579   -0.0017675666   -1.6697423939
  H    2.4077200244    1.6724284486   -2.8864533024
  H   -1.6716056010   -2.4082962754    2.8883574913
  H    1.6732934303    2.4099852046    2.8859655381
  H   -2.4094137319   -1.6741232577   -2.8840614836
  H    4.0742809275    0.0017678937   -0.5187069966
  H   -0.0003805570   -4.0801442385    0.5166542477
  H   -0.0017905652    4.0891457579    0.5221639280
  H   -4.0832675151    0.0003774823   -0.5241854548
  H    2.4139563427   -1.6761525787   -2.8897425271
  H    1.6712568165   -2.4132155295    2.8874940746
  H   -1.6695653754    2.4037729318    2.8826617453
  H   -2.4044768489    1.6744615099   -2.8849075649
 }
 
 basis=VDZ
 {rhf;maxit,200}
 {ccsd(t);maxit,200}

 Variables initialized (661), CPU time= 0.01 sec
 Commands  initialized (458), CPU time= 0.00 sec, 486 directives.
 Default parameters read. Elapsed time= 0.05 sec

 Checking input...
 Passed
1


                                         ***  PROGRAM SYSTEM MOLPRO  ***
                         Copyright, University College Cardiff Consultants Limited, 2008

                                    Version 2010.1 linked May 16 2016 07:17:05


 **********************************************************************************************************************************
 LABEL *   Optimization of neopentane                                                    
 Linux-4.4.3/n087(x86_64) 64 bit mpp version                                             DATE: 31-Mar-24          TIME: 00:03:07  
 **********************************************************************************************************************************

 SHA1:             9e8077add272b0f3cad6f7df79ec5211205f459d
 **********************************************************************************************************************************

 THRESHOLDS:

 ZERO    =  1.00D-12  ONEINT  =  1.00D-16  TWOINT  =  1.00D-16  PREFAC  =  1.00D-14  LOCALI  =  1.00D-09  EORDER  =  1.00D-04
 ENERGY  =  1.00D-12  ETEST   =  0.00D+00  EDENS   =  0.00D+00  THRDEDEF=  1.00D-06  GRADIENT=  1.00D-02  STEP    =  1.00D-03
 ORBITAL =  1.00D-10  CIVEC   =  1.00D-05  COEFF   =  1.00D-04  PRINTCI =  5.00D-02  PUNCHCI =  9.90D+01  OPTGRAD =  1.00D-06
 OPTENERG=  1.00D-06  OPTSTEP =  3.00D-04  THRGRAD =  1.00D-10  COMPRESS=  1.00D-13  VARMIN  =  1.00D-07  VARMAX  =  1.00D-03
 THRDOUB =  0.00D+00  THRDIV  =  1.00D-05  THRRED  =  1.00D-07  THRPSP  =  1.00D+00  THRDC   =  1.00D-10  THRCS   =  1.00D-10
 THRNRM  =  1.00D-08  THREQ   =  0.00D+00  THRDE   =  1.00D+00  THRREF  =  1.00D-05  SPARFAC =  1.00D+00  THRDLP  =  1.00D-07
 THRDIA  =  1.00D-10  THRDLS  =  1.00D-07  THRGPS  =  0.00D+00  THRKEX  =  0.00D+00  THRDIS  =  2.00D-01  THRVAR  =  1.00D-10
 THRLOC  =  1.00D-06  THRGAP  =  1.00D-06  THRLOCT = -1.00D+00  THRGAPT = -1.00D+00  THRORB  =  1.00D-06  THRMLTP =  0.00D+00
 THRCPQCI=  1.00D-10  KEXTA   =  0.00D+00  THRCOARS=  0.00D+00  SYMTOL  =  1.00D-06  GRADTOL =  1.00D-06  THROVL  =  1.00D-08
 THRORTH =  1.00D-08  GRID    =  1.00D-06  GRIDMAX =  1.00D-03  DTMAX   =  0.00D+00

 SETTING GEOMTYP        =    XYZ
 ZUNIT=BOHR
 

 Variable memory set to 1000000000 words,  buffer space   230000 words

 SETTING BASIS          =    VDZ


 Recomputing integrals since basis changed


 Using spherical harmonics

 Library entry C      S cc-pVDZ              selected for orbital group  1
 Library entry C      P cc-pVDZ              selected for orbital group  1
 Library entry C      D cc-pVDZ              selected for orbital group  1
 Library entry H      S cc-pVDZ              selected for orbital group  2
 Library entry H      P cc-pVDZ              selected for orbital group  2

1PROGRAM * SEWARD (Integral evaluation for generally contracted gaussian basis sets)     Author: Roland Lindh, 1990

 Geometry written to block  1 of record 700


 Point group  C1  



 ATOMIC COORDINATES

 NR  ATOM    CHARGE       X              Y              Z

   1  C       6.00   -0.000001469   -0.000001470    0.000952061
   2  C       6.00    2.364079041   -0.000957687   -1.673591239
   3  C       6.00    0.001765575   -2.364081362    1.675495575
   4  C       6.00    0.000952564    2.366800736    1.671646302
   5  C       6.00   -2.366803058   -0.001767567   -1.669742394
   6  H       1.00    2.407720024    1.672428449   -2.886453302
   7  H       1.00   -1.671605601   -2.408296275    2.888357491
   8  H       1.00    1.673293430    2.409985205    2.885965538
   9  H       1.00   -2.409413732   -1.674123258   -2.884061484
  10  H       1.00    4.074280928    0.001767894   -0.518706997
  11  H       1.00   -0.000380557   -4.080144238    0.516654248
  12  H       1.00   -0.001790565    4.089145758    0.522163928
  13  H       1.00   -4.083267515    0.000377482   -0.524185455
  14  H       1.00    2.413956343   -1.676152579   -2.889742527
  15  H       1.00    1.671256816   -2.413215529    2.887494075
  16  H       1.00   -1.669565375    2.403772932    2.882661745
  17  H       1.00   -2.404476849    1.674461510   -2.884907565

 Bond lengths in Bohr (Angstrom)

 1-2  2.897062795  1-3  2.897062795  1-4  2.897062795  1-5  2.897062795  2-6  2.067162325
     ( 1.533059604)     ( 1.533059604)     ( 1.533059604)     ( 1.533059604)     ( 1.093895190)

  2-10  2.063626792   2-14  2.070697859   3- 7  2.067162325   3-11  2.070697859   3-15  2.063626791
       ( 1.092024266)       ( 1.095766114)       ( 1.093895190)       ( 1.095766114)       ( 1.092024266)

  4- 8  2.067162325   4-12  2.070697859   4-16  2.063626791   5- 9  2.067162325   5-13  2.063626792
       ( 1.093895190)       ( 1.095766114)       ( 1.092024266)       ( 1.093895190)       ( 1.092024266)

  5-17  2.070697859
       ( 1.095766114)

 Bond angles

  1- 2- 6  110.86072214   1- 2-10  110.65815180   1- 2-14  111.06329258   1- 3- 7  110.86072218

  1- 3-11  110.65815178   1- 3-15  111.06329256   1- 4- 8  110.86072214   1- 4-12  111.06329258

  1- 4-16  110.65815180   1- 5- 9  110.86072218   1- 5-13  111.06329256   1- 5-17  110.65815178

  2-1-3  109.47122064   2-1-4  109.47122063   2-1-5  109.47122063   3-1-4  109.47122063

  3- 1- 5  109.47122063   4- 1- 5  109.47122064   6- 2-10  108.04659360   6- 2-14  108.04659064

  7- 3-11  108.04659364   7- 3-15  108.04659068   8- 4-12  108.04659063   8- 4-16  108.04659361

  9- 5-13  108.04659067   9- 5-17  108.04659364  10- 2-14  108.04659222  11- 3-15  108.04659214

 12- 4-16  108.04659222  13- 5-17  108.04659214

 NUCLEAR CHARGE:                   42
 NUMBER OF PRIMITIVE AOS:         219
 NUMBER OF SYMMETRY AOS:          214
 NUMBER OF CONTRACTIONS:          130   ( 130A   )
 NUMBER OF CORE ORBITALS:           5   (   5A   )
 NUMBER OF VALENCE ORBITALS:       32   (  32A   )


 NUCLEAR REPULSION ENERGY  198.59922582


 Eigenvalues of metric

         1 0.280E-02 0.504E-02 0.504E-02 0.504E-02 0.171E-01 0.189E-01 0.189E-01 0.189E-01


 Contracted 2-electron integrals neglected if value below      1.0D-16
 AO integral compression algorithm  1   Integral accuracy      1.0D-16

     303.038 MB (compressed) written to integral file ( 97.1%)

     Node minimum: 303.038 MB, node maximum: 303.038 MB


 NUMBER OF SORTED TWO-ELECTRON INTEGRALS:   36256870.     BUFFER LENGTH:  32768
 NUMBER OF SEGMENTS:   3  SEGMENT LENGTH:   15998004      RECORD LENGTH: 524288

 Memory used in sort:      16.56 MW

 SORT1 READ    38983131. AND WROTE    36207583. INTEGRALS IN    105 RECORDS. CPU TIME:     0.35 SEC, REAL TIME:     0.57 SEC
 SORT2 READ    36207583. AND WROTE    36256870. INTEGRALS IN   1156 RECORDS. CPU TIME:     0.26 SEC, REAL TIME:     0.39 SEC

 FILE SIZES:   FILE 1:   283.4 MBYTE,  FILE 4:   440.4 MBYTE,   TOTAL:    723.8 MBYTE

 OPERATOR DM      FOR CENTER  0  COORDINATES:    0.000000    0.000000    0.000000


 **********************************************************************************************************************************
 DATASETS  * FILE   NREC   LENGTH (MB)   RECORD NAMES
              1      19      283.59       500      610      700      900      950      970     1000      129      960     1100   
                                          VAR    BASINP    GEOM    SYMINP    ZMAT    AOBASIS   BASIS     P2S    ABASIS      S 
                                         1400     1410     1200     1210     1080     1600     1650     1300     1700   
                                           T        V       H0       H01     AOSYM     SMH    MOLCAS    ERIS     OPER   

 PROGRAMS   *        TOTAL       INT
 CPU TIMES  *         3.45      3.41
 REAL TIME  *         4.14 SEC
 DISK USED  *         1.03 GB      
 GA USED    *         0.01 MB       (max)       0.00 MB       (current)
 **********************************************************************************************************************************

1PROGRAM * RHF-SCF (CLOSED SHELL)       Authors: W. Meyer, H.-J. Werner


 NUMBER OF ELECTRONS:      21+   21-    SPACE SYMMETRY=1    SPIN SYMMETRY: Singlet 
 CONVERGENCE THRESHOLDS:    1.00E-10 (Density)    1.00E-13 (Energy)
 MAX. NUMBER OF ITERATIONS:      200
 INTERPOLATION TYPE:            DIIS
 INTERPOLATION STEPS:              2 (START)      1 (STEP)
 LEVEL SHIFTS:                  0.00 (CLOSED)  0.00 (OPEN) 



 Orbital guess generated from atomic densities. Full valence occupancy:   37

 Molecular orbital dump at record        2100.2

 ITERATION    DDIFF          GRAD             ENERGY        2-EL.EN.            DIPOLE MOMENTS         DIIS
    1      0.000D+00      0.000D+00      -196.27088013    527.677329    0.00001    0.00001   -0.00317    0
    2      0.000D+00      0.467D-02      -196.33873924    521.943883   -0.00000   -0.00000    0.00318    1
    3      0.930D-02      0.177D-02      -196.34652966    524.513961   -0.00000   -0.00000    0.00232    2
    4      0.346D-02      0.571D-03      -196.34767641    523.812629   -0.00000   -0.00000    0.00294    3
    5      0.114D-02      0.118D-03      -196.34771099    523.879145   -0.00000   -0.00000    0.00297    4
    6      0.198D-03      0.238D-04      -196.34771267    523.875386   -0.00000   -0.00000    0.00299    5
    7      0.659D-04      0.226D-05      -196.34771269    523.875152   -0.00000   -0.00000    0.00299    6
    8      0.684D-05      0.488D-06      -196.34771269    523.875110   -0.00000   -0.00000    0.00299    6
    9      0.138D-05      0.703D-07      -196.34771269    523.875102   -0.00000   -0.00000    0.00299    5
   10      0.244D-06      0.945D-08      -196.34771269    523.875111   -0.00000   -0.00000    0.00299    5
   11      0.316D-07      0.291D-08      -196.34771269    523.875107   -0.00000   -0.00000    0.00299    5
   12      0.602D-08      0.105D-08      -196.34771269    523.875108   -0.00000   -0.00000    0.00299    6
   13      0.217D-08      0.873D-10      -196.34771269    523.875108   -0.00000   -0.00000    0.00299    6
   14      0.193D-09      0.257D-10      -196.34771269    523.875108   -0.00000   -0.00000    0.00299    6
   15      0.681D-10      0.811D-11      -196.34771269    523.875108   -0.00000   -0.00000    0.00299    6
   16      0.249D-10      0.215D-11      -196.34771269    523.875108   -0.00000   -0.00000    0.00299    7
   17      0.483D-11      0.638D-12      -196.34771269    523.875108   -0.00000   -0.00000    0.00299    7
   18      0.170D-11      0.132D-12      -196.34771269    523.875108   -0.00000   -0.00000    0.00299    6
   19      0.490D-12      0.473D-13      -196.34771269    523.875108   -0.00000   -0.00000    0.00299    7
   20      0.222D-12      0.368D-13      -196.34771269    523.875108   -0.00000   -0.00000    0.00299    8
   21      0.134D-12      0.268D-13      -196.34771269    523.875108   -0.00000   -0.00000    0.00299    0

 Final occupancy:  21

 !RHF STATE 1.1 Energy               -196.347712692428
 Nuclear energy                       198.59922582
 One-electron energy                 -656.88449241
 Two-electron energy                  261.93755390
 Virial quotient                       -1.00118106
 !RHF STATE 1.1 Dipole moment          -0.00000176    -0.00000176     0.00298689
 Dipole moment /Debye                  -0.00000447    -0.00000446     0.00759142

 Orbital energies:

         1.1          2.1          3.1          4.1          5.1          6.1          7.1          8.1          9.1         10.1
    -11.230716   -11.214143   -11.214126   -11.214064   -11.214033    -1.103749    -0.927586    -0.927562    -0.927539    -0.728614

        11.1         12.1         13.1         14.1         15.1         16.1         17.1         18.1         19.1         20.1
     -0.609146    -0.609078    -0.609008    -0.550490    -0.550483    -0.508109    -0.507785    -0.507464    -0.450445    -0.450332

        21.1         22.1         23.1
     -0.450219     0.170676     0.231122


 **********************************************************************************************************************************
 DATASETS  * FILE   NREC   LENGTH (MB)   RECORD NAMES
              1      19      283.59       500      610      700      900      950      970     1000      129      960     1100   
                                          VAR    BASINP    GEOM    SYMINP    ZMAT    AOBASIS   BASIS     P2S    ABASIS      S 
                                         1400     1410     1200     1210     1080     1600     1650     1300     1700   
                                           T        V       H0       H01     AOSYM     SMH    MOLCAS    ERIS     OPER   

              2       3        0.89       700     1000     2100   
                                         GEOM     BASIS     RHF  

 PROGRAMS   *        TOTAL       RHF       INT
 CPU TIMES  *         7.88      4.43      3.41
 REAL TIME  *         9.18 SEC
 DISK USED  *         1.03 GB      
 GA USED    *         0.01 MB       (max)       0.00 MB       (current)
 **********************************************************************************************************************************


1PROGRAM * CCSD (Closed-shell coupled cluster)     Authors: C. Hampel, H.-J. Werner, 1991, M. Deegan, P.J. Knowles, 1992


 Convergence thresholds:  THRVAR = 1.00D-08  THRDEN = 1.00D-12

 CCSD(T)     terms to be evaluated (factor= 1.000)


 Number of core orbitals:           5 (   5 )
 Number of closed-shell orbitals:  16 (  16 )
 Number of external orbitals:     109 ( 109 )

 Molecular orbitals read from record     2100.2  Type=RHF/CANONICAL (state 1.1)

 Number of N-1 electron functions:              16
 Number of N-2 electron functions:             136
 Number of singly external CSFs:              1744
 Number of doubly external CSFs:           1521640
 Total number of CSFs:                     1523385

 Length of J-op  integral file:               0.00 MB
 Length of K-op  integral file:               1.20 MB
 Length of 3-ext integral record:             0.00 MB

 Memory could be reduced to 28.13 Mwords without degradation in triples

 Integral transformation finished. Total CPU:   1.47 sec, npass=  1  Memory used:  22.98 MW

 Reference energy:                   -196.34771269

 MP2 singlet pair energy:              -0.48845280
 MP2 triplet pair energy:              -0.25007756
 MP2 correlation energy:               -0.73853036
 MP2 total energy:                   -197.08624305

 SCS-MP2 correlation energy:           -0.74174717   (PS=  1.200000  PT=  0.333333)
 SCS-MP2 total energy:               -197.08945987

 ITER.      SQ.NORM     CORR.ENERGY   TOTAL ENERGY   ENERGY CHANGE        DEN1      VAR(S)    VAR(P)  DIIS     TIME
   1      1.28821652    -0.80655568  -197.15426837    -0.06802532    -0.04667768  0.17D-02  0.47D-02  1  1     5.83
   2      1.31153065    -0.81148918  -197.15920187    -0.00493350    -0.02353917  0.47D-04  0.32D-03  2  2    10.23
   3      1.31554003    -0.81163903  -197.15935172    -0.00014985    -0.00243443  0.53D-05  0.22D-04  3  3    14.64
   4      1.31658416    -0.81170131  -197.15941400    -0.00006228    -0.00046367  0.25D-06  0.12D-05  4  4    19.05
   5      1.31671011    -0.81170569  -197.15941838    -0.00000438    -0.00005129  0.15D-07  0.93D-07  5  5    23.47
   6      1.31672258    -0.81170327  -197.15941596     0.00000242    -0.00000846  0.68D-09  0.61D-08  6  6    27.89
   7      1.31672115    -0.81170355  -197.15941624    -0.00000028     0.00000063  0.16D-09  0.52D-09  6  1    32.32
   8      1.31672086    -0.81170370  -197.15941639    -0.00000015     0.00000027  0.78D-11  0.30D-10  6  2    36.75
   9      1.31672057    -0.81170374  -197.15941644    -0.00000005     0.00000025  0.11D-11  0.25D-11  6  3    41.18
  10      1.31672046    -0.81170375  -197.15941644    -0.00000001     0.00000009  0.89D-13  0.22D-12  6  4    45.61
  11      1.31672040    -0.81170376  -197.15941645    -0.00000000     0.00000004  0.95D-14  0.24D-13  6  5    50.03
  12      1.31672036    -0.81170376  -197.15941645    -0.00000000     0.00000002  0.90D-15  0.12D-14  6  1    54.45
  13      1.31672036    -0.81170376  -197.15941645    -0.00000000     0.00000000  0.79D-16  0.70D-16  6  6    58.88
  14      1.31672036    -0.81170376  -197.15941645    -0.00000000     0.00000000  0.15D-16  0.96D-17  6  2    63.29
  15      1.31672036    -0.81170376  -197.15941645    -0.00000000     0.00000000  0.13D-17  0.11D-17  6  3    67.72
  16      1.31672036    -0.81170376  -197.15941645     0.00000000    -0.00000000  0.69D-19  0.92D-19  6  4    72.14
  17      1.31672036    -0.81170376  -197.15941645     0.00000000    -0.00000000  0.34D-20  0.85D-20  6  5    76.56
  18      1.31672036    -0.81170376  -197.15941645     0.00000000    -0.00000000  0.38D-21  0.12D-20  6  1    80.99
  19      1.31672036    -0.81170376  -197.15941645     0.00000000    -0.00000000  0.30D-22  0.16D-21  6  6    85.42

 Norm of t1 vector:      0.05469812      S-energy:    -0.00000000      T1 diagnostic:  0.00683726
                                                                       D1 diagnostic:  0.01260380


 Total CPU time for triples:     67.18 sec


 RESULTS
 =======

  Reference energy                   -196.347712692429
  CCSD singlet pair energy             -0.577587702915
  CCSD triplet pair energy             -0.234116053797
  CCSD correlation energy              -0.811703756713

  Triples (T) contribution             -0.023942425924
  Total correlation energy             -0.835646182637

  CCSD total energy                  -197.159416449142
  CCSD[T] energy                     -197.183818219944
  CCSD-T energy                      -197.183110211939
 !CCSD(T) total energy               -197.183358875066

 Timing summary (sec):

 STEP                 CPU(USER)    SYS     CPU(TOT)    WALL
 Transformation          1.53      0.16      1.69      1.70
 CCSD iterations        83.89      1.90     85.79     86.59
 Triples                67.18      1.38     68.56     68.58

 Program statistics:

 Available memory in ccsd:               999998876
 Min. memory needed in ccsd:               3966807
 Max. memory used in ccsd:                 5311887
 Max. memory used in cckext:               4858018 (19 integral passes)



 **********************************************************************************************************************************
 DATASETS  * FILE   NREC   LENGTH (MB)   RECORD NAMES
              1      20      395.30       500      610      700      900      950      970     1000      129      960     1100   
                                          VAR    BASINP    GEOM    SYMINP    ZMAT    AOBASIS   BASIS     P2S    ABASIS      S 
                                         1400     1410     1200     1210     1080     1600     1650     1300     1700     1380   
                                           T        V       H0       H01     AOSYM     SMH    MOLCAS    ERIS     OPER     JKOP   

              2       3        0.89       700     1000     2100   
                                         GEOM     BASIS     RHF  

 PROGRAMS   *        TOTAL   CCSD(T)       RHF       INT
 CPU TIMES  *       160.50    152.62      4.43      3.41
 REAL TIME  *       166.10 SEC
 DISK USED  *         1.03 GB      
 GA USED    *         0.01 MB       (max)       0.00 MB       (current)
 **********************************************************************************************************************************

        CCSD(T)         RHF-SCF 
   -197.18335888   -196.34771269
 **********************************************************************************************************************************
 Variable memory released
