
 Primary working directories    : /tmp/879303.864.gen4.q
 Secondary working directories  : /tmp/879303.864.gen4.q
 Wavefunction directory         : /home/vulcan/lo21740/wfu/
 Main file repository           : /tmp/879303.864.gen4.q/

 ARCHNAME  : Linux/x86_64
 FC        : /opt/intel/compilers_and_libraries_2016.1.150/linux/bin/intel64/ifort
 FCVERSION : 16.0.1
 BLASLIB   : -mkl
 id        : ccgc

 Nodes     nprocs
 n033         1
 ga_uses_ma=false, calling ma_init with nominal heap.
 GA-space will be limited to   8.0 MW (determined by -G option)

 Using customized tuning parameters: mindgm=10; mindgv=16; mindgc=4; mindgr=1; noblas=0; mincuda=1000; minvec=7
 default implementation of scratch files=df  

 ***,Optimization of formamide
 memory,1000,m
 gthresh,energy=1.0d-12,orbital=1.0d-10,oneint=1.0d-16,twoint=1.0d-16,optgrad=1.0d-6,compress=1.0d-13
 geomtyp=xyz
 
 bohr
 geometry = {
  C   -3.8259001834    0.0842859155   -0.0000000000
  O   -2.7294229382    2.1352976278   -0.0000000000
  N   -2.6810298185   -2.1764612420   -0.0000000000
  H   -3.7426224558   -3.7455066494    0.0000000000
  H   -0.7492150629   -2.3063056161    0.0000000000
  H   -5.9047458878   -0.0252987372   -0.0000000000
  C    3.8236015219   -0.0866461142    0.0000000000
  O    2.7320120030   -2.1433831450    0.0000000000
  N    2.6828632707    2.1783191368   -0.0000000000
  H    3.7460999465    3.7543069518   -0.0000000000
  H    0.7524443750    2.3040657321   -0.0000000000
  H    5.8959152293    0.0273261399    0.0000000000
 }
 
 basis=AVDZ, H=VDZ
 {rhf;maxit,200}
 {ccsd(t);maxit,200}

 Variables initialized (661), CPU time= 0.00 sec
 Commands  initialized (458), CPU time= 0.00 sec, 486 directives.
 Default parameters read. Elapsed time= 0.05 sec

 Checking input...
 Passed
1


                                         ***  PROGRAM SYSTEM MOLPRO  ***
                         Copyright, University College Cardiff Consultants Limited, 2008

                                    Version 2010.1 linked May 16 2016 07:17:05


 **********************************************************************************************************************************
 LABEL *   Optimization of formamide                                                     
 Linux-4.4.3/n033(x86_64) 64 bit mpp version                                             DATE: 23-May-23          TIME: 20:13:08  
 **********************************************************************************************************************************

 SHA1:             9e8077add272b0f3cad6f7df79ec5211205f459d
 **********************************************************************************************************************************

 THRESHOLDS:

 ZERO    =  1.00D-12  ONEINT  =  1.00D-16  TWOINT  =  1.00D-16  PREFAC  =  1.00D-14  LOCALI  =  1.00D-09  EORDER  =  1.00D-04
 ENERGY  =  1.00D-12  ETEST   =  0.00D+00  EDENS   =  0.00D+00  THRDEDEF=  1.00D-06  GRADIENT=  1.00D-02  STEP    =  1.00D-03
 ORBITAL =  1.00D-10  CIVEC   =  1.00D-05  COEFF   =  1.00D-04  PRINTCI =  5.00D-02  PUNCHCI =  9.90D+01  OPTGRAD =  1.00D-06
 OPTENERG=  1.00D-06  OPTSTEP =  3.00D-04  THRGRAD =  1.00D-10  COMPRESS=  1.00D-13  VARMIN  =  1.00D-07  VARMAX  =  1.00D-03
 THRDOUB =  0.00D+00  THRDIV  =  1.00D-05  THRRED  =  1.00D-07  THRPSP  =  1.00D+00  THRDC   =  1.00D-10  THRCS   =  1.00D-10
 THRNRM  =  1.00D-08  THREQ   =  0.00D+00  THRDE   =  1.00D+00  THRREF  =  1.00D-05  SPARFAC =  1.00D+00  THRDLP  =  1.00D-07
 THRDIA  =  1.00D-10  THRDLS  =  1.00D-07  THRGPS  =  0.00D+00  THRKEX  =  0.00D+00  THRDIS  =  2.00D-01  THRVAR  =  1.00D-10
 THRLOC  =  1.00D-06  THRGAP  =  1.00D-06  THRLOCT = -1.00D+00  THRGAPT = -1.00D+00  THRORB  =  1.00D-06  THRMLTP =  0.00D+00
 THRCPQCI=  1.00D-10  KEXTA   =  0.00D+00  THRCOARS=  0.00D+00  SYMTOL  =  1.00D-06  GRADTOL =  1.00D-06  THROVL  =  1.00D-08
 THRORTH =  1.00D-08  GRID    =  1.00D-06  GRIDMAX =  1.00D-03  DTMAX   =  0.00D+00

 SETTING GEOMTYP        =    XYZ
 ZUNIT=BOHR
 

 Variable memory set to 1000000000 words,  buffer space   230000 words

 SETTING BASIS          =    AVDZ,H=VDZ


 Recomputing integrals since basis changed


 Using spherical harmonics

 Library entry C      S aug-cc-pVDZ          selected for orbital group  1
 Library entry C      P aug-cc-pVDZ          selected for orbital group  1
 Library entry C      D aug-cc-pVDZ          selected for orbital group  1
 Library entry O      S aug-cc-pVDZ          selected for orbital group  2
 Library entry O      P aug-cc-pVDZ          selected for orbital group  2
 Library entry O      D aug-cc-pVDZ          selected for orbital group  2
 Library entry N      S aug-cc-pVDZ          selected for orbital group  3
 Library entry N      P aug-cc-pVDZ          selected for orbital group  3
 Library entry N      D aug-cc-pVDZ          selected for orbital group  3
 Library entry H      S cc-pVDZ              selected for orbital group  4
 Library entry H      P cc-pVDZ              selected for orbital group  4

1PROGRAM * SEWARD (Integral evaluation for generally contracted gaussian basis sets)     Author: Roland Lindh, 1990

 Geometry written to block  1 of record 700


 Point group  Cs  



 ATOMIC COORDINATES

 NR  ATOM    CHARGE       X              Y              Z

   1  C       6.00   -3.825900183    0.084285916    0.000000000
   2  O       8.00   -2.729422938    2.135297628    0.000000000
   3  N       7.00   -2.681029818   -2.176461242    0.000000000
   4  H       1.00   -3.742622456   -3.745506649    0.000000000
   5  H       1.00   -0.749215063   -2.306305616    0.000000000
   6  H       1.00   -5.904745888   -0.025298737    0.000000000
   7  C       6.00    3.823601522   -0.086646114    0.000000000
   8  O       8.00    2.732012003   -2.143383145    0.000000000
   9  N       7.00    2.682863271    2.178319137    0.000000000
  10  H       1.00    3.746099947    3.754306952    0.000000000
  11  H       1.00    0.752444375    2.304065732    0.000000000
  12  H       1.00    5.895915229    0.027326140    0.000000000

 Bond lengths in Bohr (Angstrom)

 1-2  2.325706644  1-3  2.534108495  1-6  2.081732033  3-4  1.894434591  3-5  1.936173497
     ( 1.230710951)     ( 1.340992460)     ( 1.101605147)     ( 1.002491609)     ( 1.024578887)

  7- 8  2.328461915   7- 9  2.536010912   7-12  2.075445441   9-10  1.901107525   9-11  1.934510098
       ( 1.232168978)       ( 1.341999176)       ( 1.098278426)       ( 1.006022774)       ( 1.023698654)

 Bond angles

  1-3-4  119.06008758   1-3-5  120.70349526   2-1-3  125.01268250   2-1-6  121.14660594

  3- 1- 6  113.84071156   4- 3- 5  120.23641716   7- 9-10  119.26263788   7- 9-11  120.45883369

  8- 7- 9  125.31150832   8- 7-12  121.10457149   9- 7-12  113.58392019  10- 9-11  120.27852844

 NUCLEAR CHARGE:                   48
 NUMBER OF PRIMITIVE AOS:         264
 NUMBER OF SYMMETRY AOS:          252
 NUMBER OF CONTRACTIONS:          168   ( 120A'  +  48A"  )
 NUMBER OF CORE ORBITALS:           6   (   6A'  +   0A"  )
 NUMBER OF VALENCE ORBITALS:       30   (  24A'  +   6A"  )


 NUCLEAR REPULSION ENERGY  230.56749752


 Eigenvalues of metric

         1 0.415E-03 0.624E-03 0.114E-02 0.134E-02 0.161E-02 0.168E-02 0.365E-02 0.437E-02
         2 0.210E-01 0.255E-01 0.333E-01 0.381E-01 0.522E-01 0.591E-01 0.104E+00 0.140E+00


 Contracted 2-electron integrals neglected if value below      1.0D-16
 AO integral compression algorithm  1   Integral accuracy      1.0D-16

     435.683 MB (compressed) written to integral file ( 92.7%)

     Node minimum: 435.683 MB, node maximum: 435.683 MB


 NUMBER OF SORTED TWO-ELECTRON INTEGRALS:   52662786.     BUFFER LENGTH:  32768
 NUMBER OF SEGMENTS:   4  SEGMENT LENGTH:   15997996      RECORD LENGTH: 524288

 Memory used in sort:      16.56 MW

 SORT1 READ    58801076. AND WROTE    51997175. INTEGRALS IN    151 RECORDS. CPU TIME:     0.73 SEC, REAL TIME:     1.07 SEC
 SORT2 READ    51997175. AND WROTE    52662786. INTEGRALS IN   1662 RECORDS. CPU TIME:     0.49 SEC, REAL TIME:     0.73 SEC

 FILE SIZES:   FILE 1:   399.8 MBYTE,  FILE 4:   633.4 MBYTE,   TOTAL:   1033.1 MBYTE

 OPERATOR DM      FOR CENTER  0  COORDINATES:    0.000000    0.000000    0.000000


 **********************************************************************************************************************************
 DATASETS  * FILE   NREC   LENGTH (MB)   RECORD NAMES
              1      19      399.94       500      610      700      900      950      970     1000      129      960     1100   
                                          VAR    BASINP    GEOM    SYMINP    ZMAT    AOBASIS   BASIS     P2S    ABASIS      S 
                                         1400     1410     1200     1210     1080     1600     1650     1300     1700   
                                           T        V       H0       H01     AOSYM     SMH    MOLCAS    ERIS     OPER   

 PROGRAMS   *        TOTAL       INT
 CPU TIMES  *         6.53      6.48
 REAL TIME  *         7.54 SEC
 DISK USED  *         1.47 GB      
 GA USED    *         0.00 MB       (max)       0.00 MB       (current)
 **********************************************************************************************************************************

1PROGRAM * RHF-SCF (CLOSED SHELL)       Authors: W. Meyer, H.-J. Werner


 NUMBER OF ELECTRONS:      24+   24-
 CONVERGENCE THRESHOLDS:    1.00E-10 (Density)    1.00E-13 (Energy)
 MAX. NUMBER OF ITERATIONS:      200
 INTERPOLATION TYPE:            DIIS
 INTERPOLATION STEPS:              2 (START)      1 (STEP)
 LEVEL SHIFTS:                  0.00 (CLOSED)  0.00 (OPEN) 



 Orbital guess generated from atomic densities. Full valence occupancy:   30   6

 Molecular orbital dump at record        2100.2

 Initial alpha occupancy:  20   4
 Initial beta  occupancy:  20   4
 Wave function symmetry:    1

 ITERATION    DDIFF          GRAD             ENERGY        2-EL.EN.            DIPOLE MOMENTS         DIIS
    1      0.000D+00      0.000D+00      -337.80400996    704.794682   -0.00171    0.01242    0.00000    0
    2      0.000D+00      0.834D-02      -337.88145899    699.186200    0.00233    0.00526    0.00000    1
    3      0.159D-01      0.608D-02      -337.93920232    701.926817    0.00065    0.00763    0.00000    2
    4      0.630D-02      0.803D-03      -337.94140880    701.830748    0.00033    0.00655    0.00000    3
    5      0.139D-02      0.276D-03      -337.94167418    701.764717    0.00047    0.00687    0.00000    4
    6      0.497D-03      0.903D-04      -337.94173460    701.790254    0.00036    0.00656    0.00000    5
    7      0.214D-03      0.400D-04      -337.94174540    701.781510    0.00039    0.00674    0.00000    6
    8      0.106D-03      0.119D-04      -337.94174633    701.786934    0.00034    0.00652    0.00000    7
    9      0.327D-04      0.373D-05      -337.94174640    701.784670    0.00039    0.00673    0.00000    8
   10      0.872D-05      0.145D-05      -337.94174641    701.784909    0.00036    0.00659    0.00000    7
   11      0.380D-05      0.596D-06      -337.94174641    701.785057    0.00037    0.00666    0.00000    8
   12      0.949D-06      0.184D-06      -337.94174641    701.785004    0.00037    0.00665    0.00000    9
   13      0.448D-06      0.267D-07      -337.94174641    701.785003    0.00037    0.00665    0.00000    8
   14      0.743D-07      0.994D-08      -337.94174641    701.785007    0.00037    0.00665    0.00000    7
   15      0.275D-07      0.373D-08      -337.94174641    701.785006    0.00037    0.00665    0.00000    8
   16      0.828D-08      0.641D-09      -337.94174641    701.785006    0.00037    0.00665    0.00000    8
   17      0.137D-08      0.246D-09      -337.94174641    701.785006    0.00037    0.00665    0.00000    7
   18      0.444D-09      0.622D-10      -337.94174641    701.785006    0.00037    0.00665    0.00000    7
   19      0.133D-09      0.224D-10      -337.94174641    701.785006    0.00037    0.00665    0.00000    7
   20      0.357D-10      0.946D-11      -337.94174641    701.785006    0.00037    0.00665    0.00000    0

 Final occupancy:  20   4

 !RHF STATE 1.1 Energy               -337.941746412045
 Nuclear energy                       230.56749752
 One-electron energy                 -919.40174697
 Two-electron energy                  350.89250304
 Virial quotient                       -1.00173568
 !RHF STATE 1.1 Dipole moment           0.00037128     0.00664570     0.00000000
 Dipole moment /Debye                   0.00094364     0.01689057     0.00000000

 Orbital energies:

         1.1          2.1          3.1          4.1          5.1          6.1          7.1          8.1          9.1         10.1
    -20.540815   -20.540419   -15.589879   -15.589186   -11.368172   -11.368013    -1.389278    -1.384445    -1.219335    -1.213124

        11.1         12.1         13.1         14.1         15.1         16.1         17.1         18.1         19.1         20.1
     -0.861051    -0.835880    -0.750256    -0.741361    -0.705781    -0.645126    -0.619067    -0.593551    -0.454282    -0.428968

        21.1         22.1
      0.067938     0.068753

         1.2          2.2          3.2          4.2          5.2          6.2
     -0.573996    -0.565929    -0.420515    -0.409940     0.093986     0.104168


 **********************************************************************************************************************************
 DATASETS  * FILE   NREC   LENGTH (MB)   RECORD NAMES
              1      19      399.94       500      610      700      900      950      970     1000      129      960     1100   
                                          VAR    BASINP    GEOM    SYMINP    ZMAT    AOBASIS   BASIS     P2S    ABASIS      S 
                                         1400     1410     1200     1210     1080     1600     1650     1300     1700   
                                           T        V       H0       H01     AOSYM     SMH    MOLCAS    ERIS     OPER   

              2       3        0.80       700     1000     2100   
                                         GEOM     BASIS     RHF  

 PROGRAMS   *        TOTAL       RHF       INT
 CPU TIMES  *        13.24      6.71      6.48
 REAL TIME  *        15.20 SEC
 DISK USED  *         1.47 GB      
 GA USED    *         0.00 MB       (max)       0.00 MB       (current)
 **********************************************************************************************************************************


1PROGRAM * CCSD (Closed-shell coupled cluster)     Authors: C. Hampel, H.-J. Werner, 1991, M. Deegan, P.J. Knowles, 1992


 Convergence thresholds:  THRVAR = 1.00D-08  THRDEN = 1.00D-12

 CCSD(T)     terms to be evaluated (factor= 1.000)


 Number of core orbitals:           6 (   6   0 )
 Number of closed-shell orbitals:  18 (  14   4 )
 Number of external orbitals:     144 ( 100  44 )

 Molecular orbitals read from record     2100.2  Type=RHF/CANONICAL (state 1.1)

 Number of N-1 electron functions:              18
 Number of N-2 electron functions:             171
 Number of singly external CSFs:              1576
 Number of doubly external CSFs:           1759312
 Total number of CSFs:                     1760889

 Length of J-op  integral file:               0.00 MB
 Length of K-op  integral file:               1.19 MB
 Length of 3-ext integral record:             0.00 MB

 Memory could be reduced to 36.48 Mwords without degradation in triples

 Integral transformation finished. Total CPU:   2.46 sec, npass=  1  Memory used:  15.90 MW

 Reference energy:                   -337.94174641

 MP2 singlet pair energy:              -0.61947208
 MP2 triplet pair energy:              -0.40479724
 MP2 correlation energy:               -1.02426932
 MP2 total energy:                   -338.96601573

 SCS-MP2 correlation energy:           -0.99524033   (PS=  1.200000  PT=  0.333333)
 SCS-MP2 total energy:               -338.93698675

 ITER.      SQ.NORM     CORR.ENERGY   TOTAL ENERGY   ENERGY CHANGE        DEN1      VAR(S)    VAR(P)  DIIS     TIME
   1      1.31854937    -1.05297784  -338.99472425    -0.02870852     0.00237368  0.10D-01  0.60D-02  1  1     8.94
   2      1.34396385    -1.05492383  -338.99667024    -0.00194599    -0.02584468  0.22D-03  0.11D-02  2  2    15.54
   3      1.35651900    -1.05581694  -338.99756336    -0.00089311    -0.00553822  0.22D-03  0.51D-04  3  3    22.14
   4      1.36170276    -1.05555348  -338.99729990     0.00026346    -0.00168273  0.21D-04  0.92D-05  4  4    28.74
   5      1.36381939    -1.05549723  -338.99724364     0.00005625    -0.00044123  0.26D-05  0.11D-05  5  5    35.36
   6      1.36432594    -1.05546787  -338.99721428     0.00002937    -0.00004731  0.24D-06  0.17D-06  6  6    41.98
   7      1.36445297    -1.05545597  -338.99720239     0.00001189    -0.00000762  0.32D-07  0.22D-07  6  2    48.57
   8      1.36447699    -1.05545583  -338.99720224     0.00000015     0.00000001  0.58D-08  0.26D-08  6  1    55.22
   9      1.36447934    -1.05545552  -338.99720194     0.00000030     0.00000183  0.92D-09  0.46D-09  6  4    61.85
  10      1.36448342    -1.05545547  -338.99720188     0.00000006    -0.00000043  0.26D-09  0.46D-10  6  3    68.47
  11      1.36448365    -1.05545554  -338.99720195    -0.00000007     0.00000015  0.39D-10  0.11D-10  6  5    75.08
  12      1.36448345    -1.05545555  -338.99720197    -0.00000002     0.00000009  0.51D-11  0.26D-11  6  6    81.72
  13      1.36448316    -1.05545559  -338.99720201    -0.00000004     0.00000013  0.79D-12  0.34D-12  6  2    88.36
  14      1.36448300    -1.05545560  -338.99720201    -0.00000001     0.00000004  0.10D-12  0.67D-13  6  1    94.98
  15      1.36448293    -1.05545561  -338.99720202    -0.00000000     0.00000001  0.20D-13  0.13D-13  6  4   101.60
  16      1.36448290    -1.05545561  -338.99720202    -0.00000000     0.00000000  0.35D-14  0.20D-14  6  3   108.23
  17      1.36448289    -1.05545561  -338.99720202    -0.00000000    -0.00000000  0.80D-15  0.33D-15  6  5   114.88
  18      1.36448289    -1.05545561  -338.99720202    -0.00000000     0.00000000  0.10D-15  0.75D-16  6  6   121.51
  19      1.36448289    -1.05545561  -338.99720202    -0.00000000     0.00000000  0.29D-16  0.12D-16  6  2   128.12
  20      1.36448289    -1.05545561  -338.99720202    -0.00000000     0.00000000  0.46D-17  0.18D-17  6  1   134.76
  21      1.36448289    -1.05545561  -338.99720202    -0.00000000     0.00000000  0.71D-18  0.48D-18  6  4   141.36
  22      1.36448289    -1.05545561  -338.99720202    -0.00000000     0.00000000  0.26D-18  0.10D-18  6  3   147.97
  23      1.36448289    -1.05545561  -338.99720202    -0.00000000     0.00000000  0.61D-19  0.19D-19  6  5   154.60
  24      1.36448289    -1.05545561  -338.99720202    -0.00000000     0.00000000  0.13D-19  0.51D-20  6  6   161.23
  25      1.36448289    -1.05545561  -338.99720202    -0.00000000    -0.00000000  0.33D-20  0.11D-20  6  4   167.85
  26      1.36448289    -1.05545561  -338.99720202    -0.00000000    -0.00000000  0.29D-21  0.15D-21  6  2   174.47

 Norm of t1 vector:      0.14788301      S-energy:     0.00000000      T1 diagnostic:  0.01742818
                                                                       D1 diagnostic:  0.05898825


 Total CPU time for triples:    143.89 sec


 RESULTS
 =======

  Reference energy                   -337.941746412046
  CCSD singlet pair energy             -0.696566444285
  CCSD triplet pair energy             -0.358889163779
  CCSD correlation energy              -1.055455608057

  Triples (T) contribution             -0.039248539048
  Total correlation energy             -1.094704147105

  CCSD total energy                  -338.997202020102
  CCSD[T] energy                     -339.039641996099
  CCSD-T energy                      -339.035355589823
 !CCSD(T) total energy               -339.036450559151

 Timing summary (sec):

 STEP                 CPU(USER)    SYS     CPU(TOT)    WALL
 Transformation          2.57      0.25      2.82      2.82
 CCSD iterations       171.90      3.62    175.52    175.64
 Triples               143.89      2.68    146.57    146.59

 Program statistics:

 Available memory in ccsd:               999998604
 Min. memory needed in ccsd:               4522204
 Max. memory used in ccsd:                 6130884
 Max. memory used in cckext:               6038575 (26 integral passes)



 **********************************************************************************************************************************
 DATASETS  * FILE   NREC   LENGTH (MB)   RECORD NAMES
              1      20      544.15       500      610      700      900      950      970     1000      129      960     1100   
                                          VAR    BASINP    GEOM    SYMINP    ZMAT    AOBASIS   BASIS     P2S    ABASIS      S 
                                         1400     1410     1200     1210     1080     1600     1650     1300     1700     1380   
                                           T        V       H0       H01     AOSYM     SMH    MOLCAS    ERIS     OPER     JKOP   

              2       3        0.80       700     1000     2100   
                                         GEOM     BASIS     RHF  

 PROGRAMS   *        TOTAL   CCSD(T)       RHF       INT
 CPU TIMES  *       331.62    318.38      6.71      6.48
 REAL TIME  *       340.31 SEC
 DISK USED  *         1.47 GB      
 GA USED    *         0.00 MB       (max)       0.00 MB       (current)
 **********************************************************************************************************************************

        CCSD(T)         RHF-SCF 
   -339.03645056   -337.94174641
 **********************************************************************************************************************************
 Variable memory released
