
 Primary working directories    : /tmp/878919.791.gen6.q
 Secondary working directories  : /tmp/878919.791.gen6.q
 Wavefunction directory         : /home/vulcan/lo21740/wfu/
 Main file repository           : /tmp/878919.791.gen6.q/

 ARCHNAME  : Linux/x86_64
 FC        : /opt/intel/compilers_and_libraries_2016.1.150/linux/bin/intel64/ifort
 FCVERSION : 16.0.1
 BLASLIB   : -mkl
 id        : ccgc

 Nodes     nprocs
 n087         1
 ga_uses_ma=false, calling ma_init with nominal heap.
 GA-space will be limited to   8.0 MW (determined by -G option)

 Using customized tuning parameters: mindgm=10; mindgv=16; mindgc=4; mindgr=1; noblas=0; mincuda=1000; minvec=7
 default implementation of scratch files=df  

 ***,Optimization of formamide
 memory,1000,m
 gthresh,energy=1.0d-12,orbital=1.0d-10,oneint=1.0d-16,twoint=1.0d-16,optgrad=1.0d-6,compress=1.0d-13
 geomtyp=xyz
 
 bohr
 geometry = {
  C   -3.8277707232    0.0863088363    0.0000000000
  O   -2.7286156804    2.1388625563   -0.0000000000
  N   -2.6801726173   -2.1823405304   -0.0000000000
  H   -3.7311004660   -3.7588833297   -0.0000000000
  H   -0.7515394191   -2.3081392761   -0.0000000000
  H   -5.9089507254   -0.0118063233   -0.0000000000
  C    3.8232983819   -0.0843444985   -0.0000000000
  O    2.7280121212   -2.1370279925   -0.0000000000
  N    2.6809980810    2.1783433505    0.0000000000
  H    3.7423978250    3.7459207153   -0.0000000000
  H    0.7519498736    2.3086475954   -0.0000000000
  H    5.9014933486    0.0244588966   -0.0000000000
 }
 
 basis=VDZ
 {rhf;maxit,200}
 {ccsd(t);maxit,200}

 Variables initialized (661), CPU time= 0.00 sec
 Commands  initialized (458), CPU time= 0.01 sec, 486 directives.
 Default parameters read. Elapsed time= 0.05 sec

 Checking input...
 Passed
1


                                         ***  PROGRAM SYSTEM MOLPRO  ***
                         Copyright, University College Cardiff Consultants Limited, 2008

                                    Version 2010.1 linked May 16 2016 07:17:05


 **********************************************************************************************************************************
 LABEL *   Optimization of formamide                                                     
 Linux-4.4.3/n087(x86_64) 64 bit mpp version                                             DATE: 22-May-23          TIME: 21:38:37  
 **********************************************************************************************************************************

 SHA1:             9e8077add272b0f3cad6f7df79ec5211205f459d
 **********************************************************************************************************************************

 THRESHOLDS:

 ZERO    =  1.00D-12  ONEINT  =  1.00D-16  TWOINT  =  1.00D-16  PREFAC  =  1.00D-14  LOCALI  =  1.00D-09  EORDER  =  1.00D-04
 ENERGY  =  1.00D-12  ETEST   =  0.00D+00  EDENS   =  0.00D+00  THRDEDEF=  1.00D-06  GRADIENT=  1.00D-02  STEP    =  1.00D-03
 ORBITAL =  1.00D-10  CIVEC   =  1.00D-05  COEFF   =  1.00D-04  PRINTCI =  5.00D-02  PUNCHCI =  9.90D+01  OPTGRAD =  1.00D-06
 OPTENERG=  1.00D-06  OPTSTEP =  3.00D-04  THRGRAD =  1.00D-10  COMPRESS=  1.00D-13  VARMIN  =  1.00D-07  VARMAX  =  1.00D-03
 THRDOUB =  0.00D+00  THRDIV  =  1.00D-05  THRRED  =  1.00D-07  THRPSP  =  1.00D+00  THRDC   =  1.00D-10  THRCS   =  1.00D-10
 THRNRM  =  1.00D-08  THREQ   =  0.00D+00  THRDE   =  1.00D+00  THRREF  =  1.00D-05  SPARFAC =  1.00D+00  THRDLP  =  1.00D-07
 THRDIA  =  1.00D-10  THRDLS  =  1.00D-07  THRGPS  =  0.00D+00  THRKEX  =  0.00D+00  THRDIS  =  2.00D-01  THRVAR  =  1.00D-10
 THRLOC  =  1.00D-06  THRGAP  =  1.00D-06  THRLOCT = -1.00D+00  THRGAPT = -1.00D+00  THRORB  =  1.00D-06  THRMLTP =  0.00D+00
 THRCPQCI=  1.00D-10  KEXTA   =  0.00D+00  THRCOARS=  0.00D+00  SYMTOL  =  1.00D-06  GRADTOL =  1.00D-06  THROVL  =  1.00D-08
 THRORTH =  1.00D-08  GRID    =  1.00D-06  GRIDMAX =  1.00D-03  DTMAX   =  0.00D+00

 SETTING GEOMTYP        =    XYZ
 ZUNIT=BOHR
 

 Variable memory set to 1000000000 words,  buffer space   230000 words

 SETTING BASIS          =    VDZ


 Recomputing integrals since basis changed


 Using spherical harmonics

 Library entry C      S cc-pVDZ              selected for orbital group  1
 Library entry C      P cc-pVDZ              selected for orbital group  1
 Library entry C      D cc-pVDZ              selected for orbital group  1
 Library entry O      S cc-pVDZ              selected for orbital group  2
 Library entry O      P cc-pVDZ              selected for orbital group  2
 Library entry O      D cc-pVDZ              selected for orbital group  2
 Library entry N      S cc-pVDZ              selected for orbital group  3
 Library entry N      P cc-pVDZ              selected for orbital group  3
 Library entry N      D cc-pVDZ              selected for orbital group  3
 Library entry H      S cc-pVDZ              selected for orbital group  4
 Library entry H      P cc-pVDZ              selected for orbital group  4

1PROGRAM * SEWARD (Integral evaluation for generally contracted gaussian basis sets)     Author: Roland Lindh, 1990

 Geometry written to block  1 of record 700


 Point group  Cs  



 ATOMIC COORDINATES

 NR  ATOM    CHARGE       X              Y              Z

   1  C       6.00   -3.827770723    0.086308836    0.000000000
   2  O       8.00   -2.728615680    2.138862556    0.000000000
   3  N       7.00   -2.680172617   -2.182340530    0.000000000
   4  H       1.00   -3.731100466   -3.758883330    0.000000000
   5  H       1.00   -0.751539419   -2.308139276    0.000000000
   6  H       1.00   -5.908950725   -0.011806323    0.000000000
   7  C       6.00    3.823298382   -0.084344499    0.000000000
   8  O       8.00    2.728012121   -2.137027993    0.000000000
   9  N       7.00    2.680998081    2.178343351    0.000000000
  10  H       1.00    3.742397825    3.745920715    0.000000000
  11  H       1.00    0.751949874    2.308647595    0.000000000
  12  H       1.00    5.901493349    0.024458897    0.000000000

 Bond lengths in Bohr (Angstrom)

 1-2  2.328329569  1-3  2.542390875  1-6  2.083491489  3-4  1.894712786  3-5  1.932731574
     ( 1.232098943)     ( 1.345375307)     ( 1.102536211)     ( 1.002638824)     ( 1.022757500)

  7- 8  2.326620192   7- 9  2.534680706   7-12  2.081041205   9-10  1.893110723   9-11  1.933444125
       ( 1.231194380)       ( 1.341295262)       ( 1.101239577)       ( 1.001791049)       ( 1.023134566)

 Bond angles

  1-3-4  119.47986163   1-3-5  120.56454310   2-1-3  124.99807468   2-1-6  120.86847516

  3- 1- 6  114.13345016   4- 3- 5  119.95559527   7- 9-10  119.11167282   7- 9-11  120.65094253

  8- 7- 9  125.12960549   8- 7-12  121.08079404   9- 7-12  113.78960046  10- 9-11  120.23738465

 NUCLEAR CHARGE:                   48
 NUMBER OF PRIMITIVE AOS:         204
 NUMBER OF SYMMETRY AOS:          198
 NUMBER OF CONTRACTIONS:          114   (  84A'  +  30A"  )
 NUMBER OF CORE ORBITALS:           6   (   6A'  +   0A"  )
 NUMBER OF VALENCE ORBITALS:       30   (  24A'  +   6A"  )


 NUCLEAR REPULSION ENERGY  230.52621690


 Eigenvalues of metric

         1 0.555E-02 0.571E-02 0.108E-01 0.113E-01 0.153E-01 0.154E-01 0.238E-01 0.242E-01
         2 0.105E+00 0.106E+00 0.169E+00 0.173E+00 0.192E+00 0.196E+00 0.400E+00 0.409E+00


 Contracted 2-electron integrals neglected if value below      1.0D-16
 AO integral compression algorithm  1   Integral accuracy      1.0D-16

     84.935 MB (compressed) written to integral file ( 86.0%)

     Node minimum: 84.935 MB, node maximum: 84.935 MB


 NUMBER OF SORTED TWO-ELECTRON INTEGRALS:   11462730.     BUFFER LENGTH:  32768
 NUMBER OF SEGMENTS:   1  SEGMENT LENGTH:   11462730      RECORD LENGTH: 524288

 Memory used in sort:      12.02 MW

 SORT1 READ    12321056. AND WROTE    11136536. INTEGRALS IN     32 RECORDS. CPU TIME:     0.15 SEC, REAL TIME:     0.20 SEC
 SORT2 READ    11136536. AND WROTE    11462730. INTEGRALS IN    324 RECORDS. CPU TIME:     0.12 SEC, REAL TIME:     0.16 SEC

 FILE SIZES:   FILE 1:    81.1 MBYTE,  FILE 4:   134.3 MBYTE,   TOTAL:    215.3 MBYTE

 OPERATOR DM      FOR CENTER  0  COORDINATES:    0.000000    0.000000    0.000000


 **********************************************************************************************************************************
 DATASETS  * FILE   NREC   LENGTH (MB)   RECORD NAMES
              1      19       81.16       500      610      700      900      950      970     1000      129      960     1100   
                                          VAR    BASINP    GEOM    SYMINP    ZMAT    AOBASIS   BASIS     P2S    ABASIS      S 
                                         1400     1410     1200     1210     1080     1600     1650     1300     1700   
                                           T        V       H0       H01     AOSYM     SMH    MOLCAS    ERIS     OPER   

 PROGRAMS   *        TOTAL       INT
 CPU TIMES  *         2.16      2.12
 REAL TIME  *         2.48 SEC
 DISK USED  *       301.12 MB      
 GA USED    *         0.00 MB       (max)       0.00 MB       (current)
 **********************************************************************************************************************************

1PROGRAM * RHF-SCF (CLOSED SHELL)       Authors: W. Meyer, H.-J. Werner


 NUMBER OF ELECTRONS:      24+   24-
 CONVERGENCE THRESHOLDS:    1.00E-10 (Density)    1.00E-13 (Energy)
 MAX. NUMBER OF ITERATIONS:      200
 INTERPOLATION TYPE:            DIIS
 INTERPOLATION STEPS:              2 (START)      1 (STEP)
 LEVEL SHIFTS:                  0.00 (CLOSED)  0.00 (OPEN) 



 Orbital guess generated from atomic densities. Full valence occupancy:   30   6

 Molecular orbital dump at record        2100.2

 Initial alpha occupancy:  20   4
 Initial beta  occupancy:  20   4
 Wave function symmetry:    1

 ITERATION    DDIFF          GRAD             ENERGY        2-EL.EN.            DIPOLE MOMENTS         DIIS
    1      0.000D+00      0.000D+00      -337.77911416    705.450242   -0.00498    0.00593    0.00000    0
    2      0.000D+00      0.122D-01      -337.85770898    700.250272   -0.00227    0.00517    0.00000    1
    3      0.242D-01      0.864D-02      -337.91347968    702.732138   -0.00372    0.00433    0.00000    2
    4      0.930D-02      0.114D-02      -337.91557538    702.716095   -0.00355    0.00515    0.00000    3
    5      0.204D-02      0.400D-03      -337.91584155    702.645572   -0.00357    0.00472    0.00000    4
    6      0.735D-03      0.133D-03      -337.91590896    702.664449   -0.00350    0.00501    0.00000    5
    7      0.340D-03      0.595D-04      -337.91592025    702.659971   -0.00352    0.00485    0.00000    6
    8      0.173D-03      0.157D-04      -337.91592095    702.660508   -0.00348    0.00507    0.00000    7
    9      0.441D-04      0.430D-05      -337.91592100    702.660149   -0.00353    0.00481    0.00000    7
   10      0.113D-04      0.206D-05      -337.91592101    702.660207   -0.00349    0.00498    0.00000    7
   11      0.379D-05      0.542D-06      -337.91592101    702.660284   -0.00350    0.00495    0.00000    8
   12      0.127D-05      0.920D-07      -337.91592101    702.660251   -0.00350    0.00495    0.00000    8
   13      0.221D-06      0.352D-07      -337.91592101    702.660257   -0.00350    0.00495    0.00000    8
   14      0.713D-07      0.125D-07      -337.91592101    702.660260   -0.00350    0.00495    0.00000    7
   15      0.329D-07      0.346D-08      -337.91592101    702.660259   -0.00350    0.00495    0.00000    7
   16      0.680D-08      0.787D-09      -337.91592101    702.660259   -0.00350    0.00495    0.00000    7
   17      0.174D-08      0.354D-09      -337.91592101    702.660259   -0.00350    0.00495    0.00000    7
   18      0.761D-09      0.138D-09      -337.91592101    702.660259   -0.00350    0.00495    0.00000    7
   19      0.358D-09      0.500D-10      -337.91592101    702.660259   -0.00350    0.00495    0.00000    8
   20      0.846D-10      0.204D-10      -337.91592101    702.660259   -0.00350    0.00495    0.00000    8
   21      0.479D-10      0.552D-11      -337.91592101    702.660259   -0.00350    0.00495    0.00000    8
   22      0.133D-10      0.157D-11      -337.91592101    702.660259   -0.00350    0.00495    0.00000    8
   23      0.406D-11      0.558D-12      -337.91592101    702.660259   -0.00350    0.00495    0.00000    8
   24      0.138D-11      0.266D-12      -337.91592101    702.660259   -0.00350    0.00495    0.00000    8
   25      0.773D-12      0.925D-13      -337.91592101    702.660259   -0.00350    0.00495    0.00000    0

 Final occupancy:  20   4

 !RHF STATE 1.1 Energy               -337.915921005595
 Nuclear energy                       230.52621690
 One-electron energy                 -919.77226731
 Two-electron energy                  351.33012941
 Virial quotient                       -1.00143548
 !RHF STATE 1.1 Dipole moment          -0.00350122     0.00495024     0.00000000
 Dipole moment /Debye                  -0.00889864     0.01258142     0.00000000

 Orbital energies:

         1.1          2.1          3.1          4.1          5.1          6.1          7.1          8.1          9.1         10.1
    -20.525616   -20.524918   -15.577086   -15.577062   -11.360003   -11.358949    -1.377809    -1.373016    -1.208808    -1.202375

        11.1         12.1         13.1         14.1         15.1         16.1         17.1         18.1         19.1         20.1
     -0.851842    -0.826782    -0.740802    -0.731800    -0.695584    -0.634231    -0.610041    -0.583562    -0.443369    -0.418508

        21.1         22.1
      0.186450     0.188341

         1.2          2.2          3.2          4.2          5.2          6.2
     -0.564915    -0.557389    -0.410568    -0.400968     0.194196     0.201213


 **********************************************************************************************************************************
 DATASETS  * FILE   NREC   LENGTH (MB)   RECORD NAMES
              1      19       81.16       500      610      700      900      950      970     1000      129      960     1100   
                                          VAR    BASINP    GEOM    SYMINP    ZMAT    AOBASIS   BASIS     P2S    ABASIS      S 
                                         1400     1410     1200     1210     1080     1600     1650     1300     1700   
                                           T        V       H0       H01     AOSYM     SMH    MOLCAS    ERIS     OPER   

              2       3        0.62       700     1000     2100   
                                         GEOM     BASIS     RHF  

 PROGRAMS   *        TOTAL       RHF       INT
 CPU TIMES  *         3.69      1.53      2.12
 REAL TIME  *         4.21 SEC
 DISK USED  *       301.12 MB      
 GA USED    *         0.00 MB       (max)       0.00 MB       (current)
 **********************************************************************************************************************************


1PROGRAM * CCSD (Closed-shell coupled cluster)     Authors: C. Hampel, H.-J. Werner, 1991, M. Deegan, P.J. Knowles, 1992


 Convergence thresholds:  THRVAR = 1.00D-08  THRDEN = 1.00D-12

 CCSD(T)     terms to be evaluated (factor= 1.000)


 Number of core orbitals:           6 (   6   0 )
 Number of closed-shell orbitals:  18 (  14   4 )
 Number of external orbitals:      90 (  64  26 )

 Molecular orbitals read from record     2100.2  Type=RHF/CANONICAL (state 1.1)

 Number of N-1 electron functions:              18
 Number of N-2 electron functions:             171
 Number of singly external CSFs:              1000
 Number of doubly external CSFs:            693010
 Total number of CSFs:                      694011

 Length of J-op  integral file:               0.00 MB
 Length of K-op  integral file:               0.59 MB
 Length of 3-ext integral record:             0.00 MB

 Memory could be reduced to 9.94 Mwords without degradation in triples

 Integral transformation finished. Total CPU:   0.37 sec, npass=  1  Memory used:   5.91 MW

 Reference energy:                   -337.91592101

 MP2 singlet pair energy:              -0.58958051
 MP2 triplet pair energy:              -0.38311166
 MP2 correlation energy:               -0.97269217
 MP2 total energy:                   -338.88861318

 SCS-MP2 correlation energy:           -0.94587720   (PS=  1.200000  PT=  0.333333)
 SCS-MP2 total energy:               -338.86179821

 ITER.      SQ.NORM     CORR.ENERGY   TOTAL ENERGY   ENERGY CHANGE        DEN1      VAR(S)    VAR(P)  DIIS     TIME
   1      1.29763327    -1.00466625  -338.92058725    -0.03197408    -0.00230871  0.97D-02  0.55D-02  1  1     1.53
   2      1.32253788    -1.00729870  -338.92321970    -0.00263245    -0.02515160  0.22D-03  0.11D-02  2  2     2.72
   3      1.33520575    -1.00827517  -338.92419617    -0.00097647    -0.00560737  0.22D-03  0.47D-04  3  3     3.91
   4      1.34058215    -1.00804504  -338.92396605     0.00023013    -0.00169864  0.20D-04  0.81D-05  4  4     5.11
   5      1.34270161    -1.00798096  -338.92390197     0.00006408    -0.00043647  0.19D-05  0.10D-05  5  5     6.30
   6      1.34317069    -1.00795001  -338.92387102     0.00003095    -0.00004146  0.15D-06  0.13D-06  6  6     7.50
   7      1.34327591    -1.00794032  -338.92386132     0.00000970    -0.00000526  0.14D-07  0.15D-07  6  2     8.70
   8      1.34329364    -1.00794041  -338.92386142    -0.00000009     0.00000005  0.17D-08  0.17D-08  6  1     9.89
   9      1.34329507    -1.00794009  -338.92386110     0.00000032     0.00000149  0.26D-09  0.21D-09  6  4    11.08
  10      1.34329801    -1.00794005  -338.92386106     0.00000004    -0.00000040  0.69D-10  0.19D-10  6  3    12.27
  11      1.34329788    -1.00794012  -338.92386113    -0.00000007     0.00000017  0.13D-10  0.43D-11  6  5    13.47
  12      1.34329767    -1.00794014  -338.92386115    -0.00000002     0.00000008  0.27D-11  0.11D-11  6  6    14.67
  13      1.34329744    -1.00794017  -338.92386118    -0.00000003     0.00000009  0.39D-12  0.15D-12  6  2    15.87
  14      1.34329735    -1.00794018  -338.92386118    -0.00000001     0.00000002  0.61D-13  0.27D-13  6  1    17.07
  15      1.34329734    -1.00794018  -338.92386118    -0.00000000    -0.00000000  0.11D-13  0.58D-14  6  4    18.26
  16      1.34329733    -1.00794018  -338.92386118    -0.00000000    -0.00000000  0.26D-14  0.10D-14  6  3    19.46
  17      1.34329733    -1.00794018  -338.92386118    -0.00000000    -0.00000000  0.74D-15  0.15D-15  6  5    20.66
  18      1.34329733    -1.00794018  -338.92386118    -0.00000000    -0.00000000  0.63D-16  0.49D-16  6  6    21.86
  19      1.34329733    -1.00794018  -338.92386118    -0.00000000     0.00000000  0.16D-16  0.66D-17  6  2    23.07
  20      1.34329733    -1.00794018  -338.92386118    -0.00000000     0.00000000  0.23D-17  0.11D-17  6  1    24.27
  21      1.34329733    -1.00794018  -338.92386118    -0.00000000     0.00000000  0.26D-18  0.22D-18  6  4    25.47
  22      1.34329733    -1.00794018  -338.92386118     0.00000000     0.00000000  0.73D-19  0.35D-19  6  3    26.67
  23      1.34329733    -1.00794018  -338.92386118    -0.00000000     0.00000000  0.14D-19  0.48D-20  6  5    27.87
  24      1.34329733    -1.00794018  -338.92386118     0.00000000    -0.00000000  0.22D-20  0.12D-20  6  6    29.07
  25      1.34329733    -1.00794018  -338.92386118     0.00000000    -0.00000000  0.47D-21  0.22D-21  6  4    30.27

 Norm of t1 vector:      0.14918609      S-energy:    -0.00000000      T1 diagnostic:  0.01758175
                                                                       D1 diagnostic:  0.06238428

 Singles amplitudes (print threshold =  0.500E-01):

         I         SYM. A    A   T(IA)

        15         2         1      0.05731666
        16         2         2     -0.05824896


 Total CPU time for triples:     16.52 sec


 RESULTS
 =======

  Reference energy                   -337.915921005595
  CCSD singlet pair energy             -0.667839629390
  CCSD triplet pair energy             -0.340100548503
  CCSD correlation energy              -1.007940177894

  Triples (T) contribution             -0.032247917734
  Total correlation energy             -1.040188095628

  CCSD total energy                  -338.923861183489
  CCSD[T] energy                     -338.959112454893
  CCSD-T energy                      -338.955128728129
 !CCSD(T) total energy               -338.956109101224

 Timing summary (sec):

 STEP                 CPU(USER)    SYS     CPU(TOT)    WALL
 Transformation          0.40      0.06      0.46      0.47
 CCSD iterations        29.87      0.91     30.78     30.83
 Triples                16.52      0.49     17.01     17.00

 Program statistics:

 Available memory in ccsd:               999998604
 Min. memory needed in ccsd:               1904590
 Max. memory used in ccsd:                 2522532
 Max. memory used in cckext:               2734922 (25 integral passes)



 **********************************************************************************************************************************
 DATASETS  * FILE   NREC   LENGTH (MB)   RECORD NAMES
              1      20      123.96       500      610      700      900      950      970     1000      129      960     1100   
                                          VAR    BASINP    GEOM    SYMINP    ZMAT    AOBASIS   BASIS     P2S    ABASIS      S 
                                         1400     1410     1200     1210     1080     1600     1650     1300     1700     1380   
                                           T        V       H0       H01     AOSYM     SMH    MOLCAS    ERIS     OPER     JKOP   

              2       3        0.62       700     1000     2100   
                                         GEOM     BASIS     RHF  

 PROGRAMS   *        TOTAL   CCSD(T)       RHF       INT
 CPU TIMES  *        50.50     46.81      1.53      2.12
 REAL TIME  *        52.55 SEC
 DISK USED  *       332.24 MB      
 GA USED    *         0.00 MB       (max)       0.00 MB       (current)
 **********************************************************************************************************************************

        CCSD(T)         RHF-SCF 
   -338.95610910   -337.91592101
 **********************************************************************************************************************************
 Variable memory released
