
 Primary working directories    : /tmp/944438.844.gen4.q
 Secondary working directories  : /tmp/944438.844.gen4.q
 Wavefunction directory         : /home/vulcan/mel64643/wfu/
 Main file repository           : /tmp/944438.844.gen4.q/

 ARCHNAME  : Linux/x86_64
 FC        : /opt/intel/compilers_and_libraries_2016.1.150/linux/bin/intel64/ifort
 FCVERSION : 16.0.1
 BLASLIB   : -mkl
 id        : ccgc

 Nodes     nprocs
 n029         1
 ga_uses_ma=false, calling ma_init with nominal heap.
 GA-space will be limited to   8.0 MW (determined by -G option)

 Using customized tuning parameters: mindgm=10; mindgv=16; mindgc=4; mindgr=1; noblas=0; mincuda=1000; minvec=7
 default implementation of scratch files=df  

 ***,Optimization of min3
 memory,1000,m
 gthresh,energy=1.0d-12,orbital=1.0d-10,oneint=1.0d-16,twoint=1.0d-16,optgrad=1.0d-6,compress=1.0d-13
 geomtyp=xyz
 
 
 
  bohr
  geometry = {
  C   -0.2841799347    2.4018118105   -2.1332467348
  C    0.7670762760   -0.0000379407   -0.8940522175
  C    0.1931314179    0.0006949358    1.8336133001
  N   -0.2961749775    0.0013010693    3.9767177126
  H    2.8265387327   -0.0016829558   -1.0642507835
  C   -0.2879751719   -2.4004767971   -2.1327550221
  H   -2.3433014259   -2.4496002367   -1.9615255321
  H    0.4795221201   -4.0972282697   -1.2508027779
  H    0.2023364837   -2.4154102721   -4.1362003687
  H   -2.3394166899    2.4542458476   -1.9619247798
  H    0.1942700693    2.4088286072   -4.1396011767
  H    0.4754571301    4.0975542017   -1.2425915321
 }
 
 basis=cc-pvdz
 {rhf;maxit,200}
 {ccsd(t);maxit,200}

 Variables initialized (661), CPU time= 0.00 sec
 Commands  initialized (458), CPU time= 0.00 sec, 486 directives.
 Default parameters read. Elapsed time= 0.06 sec

 Checking input...
 Passed
1


                                         ***  PROGRAM SYSTEM MOLPRO  ***
                         Copyright, University College Cardiff Consultants Limited, 2008

                                    Version 2010.1 linked May 16 2016 07:17:05


 **********************************************************************************************************************************
 LABEL *   Optimization of min3                                                          
 Linux-4.4.3/n029(x86_64) 64 bit mpp version                                             DATE: 27-Oct-23          TIME: 11:48:49  
 **********************************************************************************************************************************

 SHA1:             9e8077add272b0f3cad6f7df79ec5211205f459d
 **********************************************************************************************************************************

 THRESHOLDS:

 ZERO    =  1.00D-12  ONEINT  =  1.00D-16  TWOINT  =  1.00D-16  PREFAC  =  1.00D-14  LOCALI  =  1.00D-09  EORDER  =  1.00D-04
 ENERGY  =  1.00D-12  ETEST   =  0.00D+00  EDENS   =  0.00D+00  THRDEDEF=  1.00D-06  GRADIENT=  1.00D-02  STEP    =  1.00D-03
 ORBITAL =  1.00D-10  CIVEC   =  1.00D-05  COEFF   =  1.00D-04  PRINTCI =  5.00D-02  PUNCHCI =  9.90D+01  OPTGRAD =  1.00D-06
 OPTENERG=  1.00D-06  OPTSTEP =  3.00D-04  THRGRAD =  1.00D-10  COMPRESS=  1.00D-13  VARMIN  =  1.00D-07  VARMAX  =  1.00D-03
 THRDOUB =  0.00D+00  THRDIV  =  1.00D-05  THRRED  =  1.00D-07  THRPSP  =  1.00D+00  THRDC   =  1.00D-10  THRCS   =  1.00D-10
 THRNRM  =  1.00D-08  THREQ   =  0.00D+00  THRDE   =  1.00D+00  THRREF  =  1.00D-05  SPARFAC =  1.00D+00  THRDLP  =  1.00D-07
 THRDIA  =  1.00D-10  THRDLS  =  1.00D-07  THRGPS  =  0.00D+00  THRKEX  =  0.00D+00  THRDIS  =  2.00D-01  THRVAR  =  1.00D-10
 THRLOC  =  1.00D-06  THRGAP  =  1.00D-06  THRLOCT = -1.00D+00  THRGAPT = -1.00D+00  THRORB  =  1.00D-06  THRMLTP =  0.00D+00
 THRCPQCI=  1.00D-10  KEXTA   =  0.00D+00  THRCOARS=  0.00D+00  SYMTOL  =  1.00D-06  GRADTOL =  1.00D-06  THROVL  =  1.00D-08
 THRORTH =  1.00D-08  GRID    =  1.00D-06  GRIDMAX =  1.00D-03  DTMAX   =  0.00D+00

 SETTING GEOMTYP        =    XYZ
 ZUNIT=BOHR
 

 Variable memory set to 1000000000 words,  buffer space   230000 words

 SETTING BASIS          =    CC-PVDZ


 Recomputing integrals since basis changed


 Using spherical harmonics

 Library entry C      S cc-pVDZ              selected for orbital group  1
 Library entry C      P cc-pVDZ              selected for orbital group  1
 Library entry C      D cc-pVDZ              selected for orbital group  1
 Library entry N      S cc-pVDZ              selected for orbital group  2
 Library entry N      P cc-pVDZ              selected for orbital group  2
 Library entry N      D cc-pVDZ              selected for orbital group  2
 Library entry H      S cc-pVDZ              selected for orbital group  3
 Library entry H      P cc-pVDZ              selected for orbital group  3

1PROGRAM * SEWARD (Integral evaluation for generally contracted gaussian basis sets)     Author: Roland Lindh, 1990

 Geometry written to block  1 of record 700


 Point group  C1  



 ATOMIC COORDINATES

 NR  ATOM    CHARGE       X              Y              Z

   1  C       6.00   -0.284179935    2.401811810   -2.133246735
   2  C       6.00    0.767076276   -0.000037941   -0.894052217
   3  C       6.00    0.193131418    0.000694936    1.833613300
   4  N       7.00   -0.296174977    0.001301069    3.976717713
   5  H       1.00    2.826538733   -0.001682956   -1.064250783
   6  C       6.00   -0.287975172   -2.400476797   -2.132755022
   7  H       1.00   -2.343301426   -2.449600237   -1.961525532
   8  H       1.00    0.479522120   -4.097228270   -1.250802778
   9  H       1.00    0.202336484   -2.415410272   -4.136200369
  10  H       1.00   -2.339416690    2.454245848   -1.961924780
  11  H       1.00    0.194270069    2.408828607   -4.139601177
  12  H       1.00    0.475457130    4.097554202   -1.242591532

 Bond lengths in Bohr (Angstrom)

  1- 2  2.899935327   1-10  2.063031425   1-11  2.062624975   1-12  2.060547844   2- 3  2.787395274
       ( 1.534579683)       ( 1.091709212)       ( 1.091494128)       ( 1.090394957)       ( 1.475026051)

 2-5  2.066483939  2-6  2.899935327  3-4  2.198253315  6-7  2.063031425  6-8  2.060547843
     ( 1.093536203)     ( 1.534579682)     ( 1.163265554)     ( 1.091709212)     ( 1.090394957)

 6-9  2.062624974
     ( 1.091494127)

 Bond angles

  1- 2- 3  110.07805271   1- 2- 5  109.07122528   1- 2- 6  111.78757136   2- 1-10  110.28591535

  2- 1-11  109.53541189   2- 1-12  111.30060367   2- 3- 4  179.02148592   2- 6- 7  110.28665507

  2-6-8  111.30134573   2-6-9  109.53615451   3-2-5  106.60693501   3-2-6  110.07805271

  5-2-6  109.07122528   7-6-8  108.41810712   7-6-9  108.49789727   8-6-9  108.73761402

 10- 1-11  108.16635966  10- 1-12  108.08657046  11- 1-12  109.39846388

 NUCLEAR CHARGE:                   38
 NUMBER OF PRIMITIVE AOS:         184
 NUMBER OF SYMMETRY AOS:          179
 NUMBER OF CONTRACTIONS:          105   ( 105A   )
 NUMBER OF CORE ORBITALS:           5   (   5A   )
 NUMBER OF VALENCE ORBITALS:       27   (  27A   )


 NUCLEAR REPULSION ENERGY  158.94959216


 Eigenvalues of metric

         1 0.197E-02 0.463E-02 0.574E-02 0.601E-02 0.167E-01 0.195E-01 0.209E-01 0.264E-01


 Contracted 2-electron integrals neglected if value below      1.0D-16
 AO integral compression algorithm  1   Integral accuracy      1.0D-16

     130.023 MB (compressed) written to integral file ( 94.9%)

     Node minimum: 130.023 MB, node maximum: 130.023 MB


 NUMBER OF SORTED TWO-ELECTRON INTEGRALS:   15487395.     BUFFER LENGTH:  32768
 NUMBER OF SEGMENTS:   1  SEGMENT LENGTH:   15487395      RECORD LENGTH: 524288

 Memory used in sort:      16.04 MW

 SORT1 READ    17101285. AND WROTE    15442290. INTEGRALS IN     45 RECORDS. CPU TIME:     0.16 SEC, REAL TIME:     0.37 SEC
 SORT2 READ    15442290. AND WROTE    15487395. INTEGRALS IN    496 RECORDS. CPU TIME:     0.16 SEC, REAL TIME:     0.24 SEC

 FILE SIZES:   FILE 1:   120.7 MBYTE,  FILE 4:   188.8 MBYTE,   TOTAL:    309.5 MBYTE

 OPERATOR DM      FOR CENTER  0  COORDINATES:    0.000000    0.000000    0.000000


 **********************************************************************************************************************************
 DATASETS  * FILE   NREC   LENGTH (MB)   RECORD NAMES
              1      19      120.86       500      610      700      900      950      970     1000      129      960     1100   
                                          VAR    BASINP    GEOM    SYMINP    ZMAT    AOBASIS   BASIS     P2S    ABASIS      S 
                                         1400     1410     1200     1210     1080     1600     1650     1300     1700   
                                           T        V       H0       H01     AOSYM     SMH    MOLCAS    ERIS     OPER   

 PROGRAMS   *        TOTAL       INT
 CPU TIMES  *         2.15      2.10
 REAL TIME  *         3.00 SEC
 DISK USED  *       440.38 MB      
 GA USED    *         0.00 MB       (max)       0.00 MB       (current)
 **********************************************************************************************************************************

1PROGRAM * RHF-SCF (CLOSED SHELL)       Authors: W. Meyer, H.-J. Werner


 NUMBER OF ELECTRONS:      19+   19-    SPACE SYMMETRY=1    SPIN SYMMETRY: Singlet 
 CONVERGENCE THRESHOLDS:    1.00E-10 (Density)    1.00E-13 (Energy)
 MAX. NUMBER OF ITERATIONS:      200
 INTERPOLATION TYPE:            DIIS
 INTERPOLATION STEPS:              2 (START)      1 (STEP)
 LEVEL SHIFTS:                  0.00 (CLOSED)  0.00 (OPEN) 



 Orbital guess generated from atomic densities. Full valence occupancy:   32

 Molecular orbital dump at record        2100.2

 ITERATION    DDIFF          GRAD             ENERGY        2-EL.EN.            DIPOLE MOMENTS         DIIS
    1      0.000D+00      0.000D+00      -209.94376954    457.122177    0.48308   -0.00190   -2.25059    0
    2      0.000D+00      0.590D-02      -209.98971783    456.677793    0.14958   -0.00094   -1.29332    1
    3      0.124D-01      0.414D-02      -210.01005046    456.362116    0.30573   -0.00106   -1.70166    2
    4      0.554D-02      0.106D-02      -210.01229766    456.689192    0.29226   -0.00103   -1.61346    3
    5      0.196D-02      0.235D-03      -210.01241562    456.529729    0.28609   -0.00099   -1.62472    4
    6      0.425D-03      0.579D-04      -210.01242499    456.548745    0.28631   -0.00099   -1.62280    5
    7      0.169D-03      0.160D-04      -210.01242554    456.546744    0.28666   -0.00099   -1.62411    6
    8      0.307D-04      0.501D-05      -210.01242560    456.546413    0.28653   -0.00099   -1.62422    7
    9      0.110D-04      0.107D-05      -210.01242560    456.546349    0.28656   -0.00099   -1.62421    7
   10      0.261D-05      0.376D-06      -210.01242560    456.546446    0.28656   -0.00099   -1.62424    7
   11      0.943D-06      0.197D-06      -210.01242560    456.546414    0.28656   -0.00099   -1.62424    7
   12      0.662D-06      0.913D-07      -210.01242560    456.546430    0.28656   -0.00099   -1.62424    7
   13      0.427D-06      0.240D-07      -210.01242560    456.546424    0.28656   -0.00099   -1.62424    8
   14      0.115D-06      0.475D-08      -210.01242560    456.546423    0.28656   -0.00099   -1.62424    8
   15      0.148D-07      0.196D-08      -210.01242560    456.546424    0.28656   -0.00099   -1.62424    8
   16      0.372D-08      0.521D-09      -210.01242560    456.546423    0.28656   -0.00099   -1.62424    8
   17      0.112D-08      0.102D-09      -210.01242560    456.546423    0.28656   -0.00099   -1.62424    8
   18      0.231D-09      0.253D-10      -210.01242560    456.546423    0.28656   -0.00099   -1.62424    7
   19      0.595D-10      0.715D-11      -210.01242560    456.546423    0.28656   -0.00099   -1.62424    7
   20      0.170D-10      0.232D-11      -210.01242560    456.546423    0.28656   -0.00099   -1.62424    0

 Final occupancy:  19

 !RHF STATE 1.1 Energy               -210.012425601245
 Nuclear energy                       158.94959216
 One-electron energy                 -597.23522947
 Two-electron energy                  228.27321171
 Virial quotient                       -1.00163727
 !RHF STATE 1.1 Dipole moment           0.28655534    -0.00098823    -1.62423713
 Dipole moment /Debye                   0.72830331    -0.00251167    -4.12812860

 Orbital energies:

         1.1          2.1          3.1          4.1          5.1          6.1          7.1          8.1          9.1         10.1
    -15.572644   -11.290170   -11.274805   -11.250164   -11.250134    -1.212677    -1.107777    -0.960695    -0.876381    -0.704132

        11.1         12.1         13.1         14.1         15.1         16.1         17.1         18.1         19.1         20.1
     -0.642516    -0.597217    -0.572739    -0.563272    -0.530639    -0.523282    -0.520395    -0.447392    -0.447370     0.155276

        21.1
      0.190301


 **********************************************************************************************************************************
 DATASETS  * FILE   NREC   LENGTH (MB)   RECORD NAMES
              1      19      120.86       500      610      700      900      950      970     1000      129      960     1100   
                                          VAR    BASINP    GEOM    SYMINP    ZMAT    AOBASIS   BASIS     P2S    ABASIS      S 
                                         1400     1410     1200     1210     1080     1600     1650     1300     1700   
                                           T        V       H0       H01     AOSYM     SMH    MOLCAS    ERIS     OPER   

              2       3        0.68       700     1000     2100   
                                         GEOM     BASIS     RHF  

 PROGRAMS   *        TOTAL       RHF       INT
 CPU TIMES  *         4.61      2.46      2.10
 REAL TIME  *         5.76 SEC
 DISK USED  *       440.38 MB      
 GA USED    *         0.00 MB       (max)       0.00 MB       (current)
 **********************************************************************************************************************************


1PROGRAM * CCSD (Closed-shell coupled cluster)     Authors: C. Hampel, H.-J. Werner, 1991, M. Deegan, P.J. Knowles, 1992


 Convergence thresholds:  THRVAR = 1.00D-08  THRDEN = 1.00D-12

 CCSD(T)     terms to be evaluated (factor= 1.000)


 Number of core orbitals:           5 (   5 )
 Number of closed-shell orbitals:  14 (  14 )
 Number of external orbitals:      86 (  86 )

 Molecular orbitals read from record     2100.2  Type=RHF/CANONICAL (state 1.1)

 Number of N-1 electron functions:              14
 Number of N-2 electron functions:             105
 Number of singly external CSFs:              1204
 Number of doubly external CSFs:            725410
 Total number of CSFs:                      726615

 Length of J-op  integral file:               0.00 MB
 Length of K-op  integral file:               0.79 MB
 Length of 3-ext integral record:             0.00 MB

 Memory could be reduced to 12.72 Mwords without degradation in triples

 Integral transformation finished. Total CPU:   0.89 sec, npass=  1  Memory used:  10.92 MW

 Reference energy:                   -210.01242560

 MP2 singlet pair energy:              -0.45163611
 MP2 triplet pair energy:              -0.25976285
 MP2 correlation energy:               -0.71139896
 MP2 total energy:                   -210.72382456

 SCS-MP2 correlation energy:           -0.70359355   (PS=  1.200000  PT=  0.333333)
 SCS-MP2 total energy:               -210.71601915

 ITER.      SQ.NORM     CORR.ENERGY   TOTAL ENERGY   ENERGY CHANGE        DEN1      VAR(S)    VAR(P)  DIIS     TIME
   1      1.27016208    -0.75347391  -210.76589951    -0.04207495    -0.01887843  0.35D-02  0.56D-02  1  1     3.42
   2      1.29282189    -0.75713125  -210.76955685    -0.00365734    -0.02204463  0.58D-04  0.76D-03  2  2     5.99
   3      1.30020418    -0.75750788  -210.76993348    -0.00037663    -0.00407702  0.27D-04  0.55D-04  3  3     8.56
   4      1.30276915    -0.75760463  -210.77003023    -0.00009675    -0.00100782  0.13D-05  0.65D-05  4  4    11.13
   5      1.30333650    -0.75761320  -210.77003880    -0.00000857    -0.00016824  0.16D-06  0.78D-06  5  5    13.75
   6      1.30345919    -0.75760763  -210.77003323     0.00000557    -0.00003126  0.97D-08  0.53D-07  6  6    16.37
   7      1.30347732    -0.75761003  -210.77003563    -0.00000240    -0.00000404  0.15D-08  0.48D-08  6  2    18.96
   8      1.30347875    -0.75760995  -210.77003555     0.00000008    -0.00000004  0.14D-09  0.42D-09  6  1    21.55
   9      1.30347911    -0.75760994  -210.77003554     0.00000002     0.00000023  0.16D-10  0.36D-10  6  3    24.13
  10      1.30347937    -0.75760995  -210.77003555    -0.00000001    -0.00000006  0.17D-11  0.33D-11  6  4    26.71
  11      1.30347900    -0.75760997  -210.77003558    -0.00000002     0.00000022  0.34D-12  0.34D-12  6  6    29.28
  12      1.30347893    -0.75760998  -210.77003558    -0.00000001     0.00000004  0.44D-13  0.27D-13  6  5    31.86
  13      1.30347889    -0.75760998  -210.77003558    -0.00000000     0.00000002  0.51D-14  0.45D-14  6  2    34.43
  14      1.30347889    -0.75760998  -210.77003558     0.00000000     0.00000000  0.14D-14  0.64D-15  6  1    37.02
  15      1.30347889    -0.75760998  -210.77003558     0.00000000    -0.00000000  0.97D-16  0.10D-15  6  4    39.59
  16      1.30347889    -0.75760998  -210.77003558     0.00000000    -0.00000000  0.15D-16  0.70D-17  6  3    42.17
  17      1.30347889    -0.75760998  -210.77003558     0.00000000    -0.00000000  0.32D-17  0.15D-17  6  6    44.74
  18      1.30347889    -0.75760998  -210.77003558    -0.00000000    -0.00000000  0.53D-18  0.25D-18  6  5    47.32
  19      1.30347889    -0.75760998  -210.77003558     0.00000000     0.00000000  0.59D-19  0.41D-19  6  2    49.91
  20      1.30347889    -0.75760998  -210.77003558     0.00000000    -0.00000000  0.63D-20  0.39D-20  6  4    52.52

 Norm of t1 vector:      0.07770591      S-energy:    -0.00000000      T1 diagnostic:  0.01038389
                                                                       D1 diagnostic:  0.02935502


 Total CPU time for triples:     31.76 sec


 RESULTS
 =======

  Reference energy                   -210.012425601244
  CCSD singlet pair energy             -0.527326553529
  CCSD triplet pair energy             -0.230283429142
  CCSD correlation energy              -0.757609982671

  Triples (T) contribution             -0.026791694149
  Total correlation energy             -0.784401676820

  CCSD total energy                  -210.770035583915
  CCSD[T] energy                     -210.797836614421
  CCSD-T energy                      -210.796357427869
 !CCSD(T) total energy               -210.796827278065

 Timing summary (sec):

 STEP                 CPU(USER)    SYS     CPU(TOT)    WALL
 Transformation          0.94      0.09      1.03      1.04
 CCSD iterations        51.58      1.02     52.60     54.01
 Triples                31.76      0.55     32.31     32.32

 Program statistics:

 Available memory in ccsd:               999999116
 Min. memory needed in ccsd:               1995783
 Max. memory used in ccsd:                 2628247
 Max. memory used in cckext:               2458865 (20 integral passes)



 **********************************************************************************************************************************
 DATASETS  * FILE   NREC   LENGTH (MB)   RECORD NAMES
              1      20      171.01       500      610      700      900      950      970     1000      129      960     1100   
                                          VAR    BASINP    GEOM    SYMINP    ZMAT    AOBASIS   BASIS     P2S    ABASIS      S 
                                         1400     1410     1200     1210     1080     1600     1650     1300     1700     1380   
                                           T        V       H0       H01     AOSYM     SMH    MOLCAS    ERIS     OPER     JKOP   

              2       3        0.68       700     1000     2100   
                                         GEOM     BASIS     RHF  

 PROGRAMS   *        TOTAL   CCSD(T)       RHF       INT
 CPU TIMES  *        88.91     84.29      2.46      2.10
 REAL TIME  *        93.64 SEC
 DISK USED  *       440.38 MB      
 GA USED    *         0.00 MB       (max)       0.00 MB       (current)
 **********************************************************************************************************************************

        CCSD(T)         RHF-SCF 
   -210.79682728   -210.01242560
 **********************************************************************************************************************************
 Variable memory released
