
 Primary working directories    : /tmp/985636.633.gen4.q
 Secondary working directories  : /tmp/985636.633.gen4.q
 Wavefunction directory         : /home/vulcan/jj04645/wfu/
 Main file repository           : /tmp/985636.633.gen4.q/

 ARCHNAME  : Linux/x86_64
 FC        : /opt/intel/compilers_and_libraries_2016.1.150/linux/bin/intel64/ifort
 FCVERSION : 16.0.1
 BLASLIB   : -mkl
 id        : ccgc

 Nodes     nprocs
 n027         1
 ga_uses_ma=false, calling ma_init with nominal heap.
 GA-space will be limited to   8.0 MW (determined by -G option)

 Using customized tuning parameters: mindgm=10; mindgv=16; mindgc=4; mindgr=1; noblas=0; mincuda=1000; minvec=7
 default implementation of scratch files=df  

 ***,Optimization of tetrahydrothiopyran
 memory,1000,m
 gthresh,energy=1.0d-12,orbital=1.0d-10,oneint=1.0d-16,twoint=1.0d-16,optgrad=1.0d-6,compress=1.0d-13
 geomtyp=xyz
 
 bohr
 geometry = {
  S    0.3510145283    2.6989427951    0.0000000000
  C   -0.3293592690   -3.3663999420   -0.0000000000
  C   -0.6635661835    0.6678326520   -2.5812259378
  C   -0.6635661835    0.6678326520    2.5812259378
  C    0.4721060403   -1.9823876588   -2.4139026549
  C    0.4721060403   -1.9823876588    2.4139026549
  H   -2.7247846081    0.5691643497   -2.5850426829
  H   -2.7247846081    0.5691643497    2.5850426829
  H   -0.0733070577    1.6255040257   -4.3157993539
  H   -0.0733070577    1.6255040257    4.3157993539
  H    2.5340915157   -1.8364963919   -2.4808008657
  H    2.5340915157   -1.8364963919    2.4808008657
  H   -0.1274078806   -3.0755119205   -4.0655826056
  H   -0.1274078806   -3.0755119205    4.0655826056
  H    0.4641156988   -5.2663395471   -0.0000000000
  H   -2.3987696267   -3.5822348352   -0.0000000000
 }
 
 basis=VDZ
 {rhf;maxit,200}
 {ccsd(t);maxit,200}

 Variables initialized (661), CPU time= 0.00 sec
 Commands  initialized (458), CPU time= 0.01 sec, 486 directives.
 Default parameters read. Elapsed time= 0.06 sec

 Checking input...
 Passed
1


                                         ***  PROGRAM SYSTEM MOLPRO  ***
                         Copyright, University College Cardiff Consultants Limited, 2008

                                    Version 2010.1 linked May 16 2016 07:17:05


 **********************************************************************************************************************************
 LABEL *   Optimization of tetrahydrothiopyran                                           
 Linux-4.4.3/n027(x86_64) 64 bit mpp version                                             DATE: 26-Jan-24          TIME: 14:00:15  
 **********************************************************************************************************************************

 SHA1:             9e8077add272b0f3cad6f7df79ec5211205f459d
 **********************************************************************************************************************************

 THRESHOLDS:

 ZERO    =  1.00D-12  ONEINT  =  1.00D-16  TWOINT  =  1.00D-16  PREFAC  =  1.00D-14  LOCALI  =  1.00D-09  EORDER  =  1.00D-04
 ENERGY  =  1.00D-12  ETEST   =  0.00D+00  EDENS   =  0.00D+00  THRDEDEF=  1.00D-06  GRADIENT=  1.00D-02  STEP    =  1.00D-03
 ORBITAL =  1.00D-10  CIVEC   =  1.00D-05  COEFF   =  1.00D-04  PRINTCI =  5.00D-02  PUNCHCI =  9.90D+01  OPTGRAD =  1.00D-06
 OPTENERG=  1.00D-06  OPTSTEP =  3.00D-04  THRGRAD =  1.00D-10  COMPRESS=  1.00D-13  VARMIN  =  1.00D-07  VARMAX  =  1.00D-03
 THRDOUB =  0.00D+00  THRDIV  =  1.00D-05  THRRED  =  1.00D-07  THRPSP  =  1.00D+00  THRDC   =  1.00D-10  THRCS   =  1.00D-10
 THRNRM  =  1.00D-08  THREQ   =  0.00D+00  THRDE   =  1.00D+00  THRREF  =  1.00D-05  SPARFAC =  1.00D+00  THRDLP  =  1.00D-07
 THRDIA  =  1.00D-10  THRDLS  =  1.00D-07  THRGPS  =  0.00D+00  THRKEX  =  0.00D+00  THRDIS  =  2.00D-01  THRVAR  =  1.00D-10
 THRLOC  =  1.00D-06  THRGAP  =  1.00D-06  THRLOCT = -1.00D+00  THRGAPT = -1.00D+00  THRORB  =  1.00D-06  THRMLTP =  0.00D+00
 THRCPQCI=  1.00D-10  KEXTA   =  0.00D+00  THRCOARS=  0.00D+00  SYMTOL  =  1.00D-06  GRADTOL =  1.00D-06  THROVL  =  1.00D-08
 THRORTH =  1.00D-08  GRID    =  1.00D-06  GRIDMAX =  1.00D-03  DTMAX   =  0.00D+00

 SETTING GEOMTYP        =    XYZ
 ZUNIT=BOHR
 

 Variable memory set to 1000000000 words,  buffer space   230000 words

 SETTING BASIS          =    VDZ


 Recomputing integrals since basis changed


 Using spherical harmonics

 Library entry S      S cc-pVDZ              selected for orbital group  1
 Library entry S      P cc-pVDZ              selected for orbital group  1
 Library entry S      D cc-pVDZ              selected for orbital group  1
 Library entry C      S cc-pVDZ              selected for orbital group  2
 Library entry C      P cc-pVDZ              selected for orbital group  2
 Library entry C      D cc-pVDZ              selected for orbital group  2
 Library entry H      S cc-pVDZ              selected for orbital group  3
 Library entry H      P cc-pVDZ              selected for orbital group  3

1PROGRAM * SEWARD (Integral evaluation for generally contracted gaussian basis sets)     Author: Roland Lindh, 1990

 Geometry written to block  1 of record 700


 Point group  Cs  



 ATOMIC COORDINATES

 NR  ATOM    CHARGE       X              Y              Z

   1  S      16.00    0.351014528    2.698942795    0.000000000
   2  C       6.00   -0.329359269   -3.366399942    0.000000000
   3  C       6.00   -0.663566183    0.667832652   -2.581225938
   4  C       6.00   -0.663566183    0.667832652    2.581225938
   5  C       6.00    0.472106040   -1.982387659   -2.413902655
   6  C       6.00    0.472106040   -1.982387659    2.413902655
   7  H       1.00   -2.724784608    0.569164350   -2.585042683
   8  H       1.00   -2.724784608    0.569164350    2.585042683
   9  H       1.00   -0.073307058    1.625504026   -4.315799354
  10  H       1.00   -0.073307058    1.625504026    4.315799354
  11  H       1.00    2.534091516   -1.836496392   -2.480800866
  12  H       1.00    2.534091516   -1.836496392    2.480800866
  13  H       1.00   -0.127407881   -3.075511920   -4.065582606
  14  H       1.00   -0.127407881   -3.075511920    4.065582606
  15  H       1.00    0.464115699   -5.266339547    0.000000000
  16  H       1.00   -2.398769627   -3.582234835    0.000000000

 Bond lengths in Bohr (Angstrom)

  1- 3  3.437660509   1- 4  3.437660509   2- 5  2.895645467   2- 6  2.895645467   2-15  2.058973780
       ( 1.819131594)       ( 1.819131594)       ( 1.532309586)       ( 1.532309586)       ( 1.089561998)

  2-16  2.080635463   3- 5  2.888150996   3- 7  2.063582176   3- 9  2.067434456   4- 6  2.888150996
       ( 1.101024867)       ( 1.528343683)       ( 1.092000656)       ( 1.094039195)       ( 1.528343683)

  4- 8  2.063582176   4-10  2.067434456   5-11  2.068222361   5-13  2.069392242   6-12  2.068222361
       ( 1.092000656)       ( 1.094039195)       ( 1.094456136)       ( 1.095075211)       ( 1.094456136)

  6-14  2.069392242
       ( 1.095075211)

 Bond angles

  1-3-5  112.49558526   1-3-7  108.93154214   1-3-9  105.78484508   1-4-6  112.49558526

  1- 4- 8  108.93154214   1- 4-10  105.78484508   2- 5- 3  112.21281676   2- 5-11  109.67156731

  2- 5-13  109.43267507   2- 6- 4  112.21281676   2- 6-12  109.67156731   2- 6-14  109.43267507

  3- 1- 4   97.33107729   3- 5-11  108.99161286   3- 5-13  108.93892944   4- 6-12  108.99161286

  4- 6-14  108.93892944   5- 2- 6  112.94731570   5- 2-15  109.53488234   5- 2-16  108.95777576

  5- 3- 7  110.42612612   5- 3- 9  111.18611353   6- 2-15  109.53488234   6- 2-16  108.95777576

  6- 4- 8  110.42612612   6- 4-10  111.18611353   7- 3- 9  107.80465616   8- 4-10  107.80465616

 11- 5-13  107.47420331  12- 6-14  107.47420331  15- 2-16  106.71266659

 NUCLEAR CHARGE:                   56
 NUMBER OF PRIMITIVE AOS:         247
 NUMBER OF SYMMETRY AOS:          241
 NUMBER OF CONTRACTIONS:          138   (  79A'  +  59A"  )
 NUMBER OF CORE ORBITALS:          10   (   7A'  +   3A"  )
 NUMBER OF VALENCE ORBITALS:       34   (  20A'  +  14A"  )


 NUCLEAR REPULSION ENERGY  312.12661089


 Eigenvalues of metric

         1 0.305E-02 0.426E-02 0.634E-02 0.157E-01 0.197E-01 0.237E-01 0.284E-01 0.342E-01
         2 0.286E-02 0.704E-02 0.151E-01 0.196E-01 0.220E-01 0.343E-01 0.352E-01 0.358E-01


 Contracted 2-electron integrals neglected if value below      1.0D-16
 AO integral compression algorithm  1   Integral accuracy      1.0D-16

     207.094 MB (compressed) written to integral file ( 97.7%)

     Node minimum: 207.094 MB, node maximum: 207.094 MB


 NUMBER OF SORTED TWO-ELECTRON INTEGRALS:   23341315.     BUFFER LENGTH:  32768
 NUMBER OF SEGMENTS:   2  SEGMENT LENGTH:   15994315      RECORD LENGTH: 524288

 Memory used in sort:      16.55 MW

 SORT1 READ    26508478. AND WROTE    23262030. INTEGRALS IN     68 RECORDS. CPU TIME:     0.34 SEC, REAL TIME:     0.51 SEC
 SORT2 READ    23262030. AND WROTE    23341315. INTEGRALS IN    790 RECORDS. CPU TIME:     0.28 SEC, REAL TIME:     0.38 SEC

 FILE SIZES:   FILE 1:   187.9 MBYTE,  FILE 4:   285.2 MBYTE,   TOTAL:    473.2 MBYTE

 OPERATOR DM      FOR CENTER  0  COORDINATES:    0.000000    0.000000    0.000000


 **********************************************************************************************************************************
 DATASETS  * FILE   NREC   LENGTH (MB)   RECORD NAMES
              1      19      188.04       500      610      700      900      950      970     1000      129      960     1100   
                                          VAR    BASINP    GEOM    SYMINP    ZMAT    AOBASIS   BASIS     P2S    ABASIS      S 
                                         1400     1410     1200     1210     1080     1600     1650     1300     1700   
                                           T        V       H0       H01     AOSYM     SMH    MOLCAS    ERIS     OPER   

 PROGRAMS   *        TOTAL       INT
 CPU TIMES  *         4.21      4.14
 REAL TIME  *         4.76 SEC
 DISK USED  *       681.27 MB      
 GA USED    *         0.00 MB       (max)       0.00 MB       (current)
 **********************************************************************************************************************************

1PROGRAM * RHF-SCF (CLOSED SHELL)       Authors: W. Meyer, H.-J. Werner


 NUMBER OF ELECTRONS:      28+   28-
 CONVERGENCE THRESHOLDS:    1.00E-10 (Density)    1.00E-13 (Energy)
 MAX. NUMBER OF ITERATIONS:      200
 INTERPOLATION TYPE:            DIIS
 INTERPOLATION STEPS:              2 (START)      1 (STEP)
 LEVEL SHIFTS:                  0.00 (CLOSED)  0.00 (OPEN) 



 Orbital guess generated from atomic densities. Full valence occupancy:   27  17

 Molecular orbital dump at record        2100.2

 Initial alpha occupancy:  18  10
 Initial beta  occupancy:  18  10
 Wave function symmetry:    1

 ITERATION    DDIFF          GRAD             ENERGY        2-EL.EN.            DIPOLE MOMENTS         DIIS
    1      0.000D+00      0.000D+00      -592.64384935   1056.823452   -0.40743   -0.80330    0.00000    0
    2      0.000D+00      0.552D-02      -592.70488540   1054.235983   -0.20743   -0.74115    0.00000    1
    3      0.109D-01      0.185D-02      -592.71082462   1055.672333   -0.28011   -0.67858    0.00000    2
    4      0.375D-02      0.753D-03      -592.71183511   1055.053490   -0.25278   -0.71196    0.00000    3
    5      0.130D-02      0.108D-03      -592.71186086   1055.116486   -0.24888   -0.70353    0.00000    4
    6      0.253D-03      0.373D-04      -592.71186339   1055.085582   -0.25061   -0.70383    0.00000    5
    7      0.703D-04      0.865D-05      -592.71186360   1055.088735   -0.24994   -0.70371    0.00000    6
    8      0.230D-04      0.243D-05      -592.71186362   1055.087874   -0.24993   -0.70358    0.00000    7
    9      0.754D-05      0.633D-06      -592.71186362   1055.087756   -0.24991   -0.70353    0.00000    7
   10      0.178D-05      0.226D-06      -592.71186362   1055.087794   -0.24990   -0.70353    0.00000    7
   11      0.672D-06      0.479D-07      -592.71186362   1055.087780   -0.24991   -0.70353    0.00000    7
   12      0.159D-06      0.964D-08      -592.71186362   1055.087786   -0.24990   -0.70353    0.00000    7
   13      0.256D-07      0.402D-08      -592.71186362   1055.087783   -0.24991   -0.70353    0.00000    7
   14      0.886D-08      0.118D-08      -592.71186362   1055.087784   -0.24991   -0.70353    0.00000    7
   15      0.316D-08      0.384D-09      -592.71186362   1055.087783   -0.24991   -0.70353    0.00000    7
   16      0.923D-09      0.118D-09      -592.71186362   1055.087783   -0.24991   -0.70353    0.00000    8
   17      0.285D-09      0.255D-10      -592.71186362   1055.087783   -0.24991   -0.70353    0.00000    7
   18      0.673D-10      0.748D-11      -592.71186362   1055.087783   -0.24991   -0.70353    0.00000    7
   19      0.234D-10      0.219D-11      -592.71186362   1055.087783   -0.24991   -0.70353    0.00000    0

 Final occupancy:  18  10

 !RHF STATE 1.1 Energy               -592.711863618636
 Nuclear energy                       312.12661089
 One-electron energy                -1432.38236620
 Two-electron energy                  527.54389170
 Virial quotient                       -1.00019567
 !RHF STATE 1.1 Dipole moment          -0.24990507    -0.70352944     0.00000000
 Dipole moment /Debye                  -0.63515374    -1.78807635     0.00000000

 Orbital energies:

         1.1          2.1          3.1          4.1          5.1          6.1          7.1          8.1          9.1         10.1
    -91.929738   -11.254946   -11.231055   -11.229165    -8.933626    -6.614088    -6.611886    -1.119562    -1.006519    -0.835843

        11.1         12.1         13.1         14.1         15.1         16.1         17.1         18.1         19.1         20.1
     -0.755711    -0.646699    -0.609590    -0.578445    -0.495864    -0.472679    -0.411739    -0.328713     0.176883     0.201282

         1.2          2.2          3.2          4.2          5.2          6.2          7.2          8.2          9.2         10.2
    -11.254959   -11.230971    -6.615520    -1.019930    -0.842376    -0.614677    -0.546760    -0.523634    -0.498112    -0.434486

        11.2         12.2
      0.190445     0.222998


 **********************************************************************************************************************************
 DATASETS  * FILE   NREC   LENGTH (MB)   RECORD NAMES
              1      19      188.04       500      610      700      900      950      970     1000      129      960     1100   
                                          VAR    BASINP    GEOM    SYMINP    ZMAT    AOBASIS   BASIS     P2S    ABASIS      S 
                                         1400     1410     1200     1210     1080     1600     1650     1300     1700   
                                           T        V       H0       H01     AOSYM     SMH    MOLCAS    ERIS     OPER   

              2       3        0.73       700     1000     2100   
                                         GEOM     BASIS     RHF  

 PROGRAMS   *        TOTAL       RHF       INT
 CPU TIMES  *         6.56      2.35      4.14
 REAL TIME  *         7.51 SEC
 DISK USED  *       681.27 MB      
 GA USED    *         0.00 MB       (max)       0.00 MB       (current)
 **********************************************************************************************************************************


1PROGRAM * CCSD (Closed-shell coupled cluster)     Authors: C. Hampel, H.-J. Werner, 1991, M. Deegan, P.J. Knowles, 1992


 Convergence thresholds:  THRVAR = 1.00D-08  THRDEN = 1.00D-12

 CCSD(T)     terms to be evaluated (factor= 1.000)


 Number of core orbitals:          10 (   7   3 )
 Number of closed-shell orbitals:  18 (  11   7 )
 Number of external orbitals:     110 (  61  49 )

 Molecular orbitals read from record     2100.2  Type=RHF/CANONICAL (state 1.1)

 Number of N-1 electron functions:              18
 Number of N-2 electron functions:             171
 Number of singly external CSFs:              1014
 Number of doubly external CSFs:            981666
 Total number of CSFs:                      982681

 Length of J-op  integral file:               0.00 MB
 Length of K-op  integral file:               0.70 MB
 Length of 3-ext integral record:             0.00 MB

 Memory could be reduced to 16.31 Mwords without degradation in triples

 Integral transformation finished. Total CPU:   1.06 sec, npass=  1  Memory used:  10.63 MW

 Reference energy:                   -592.71186362

 MP2 singlet pair energy:              -0.53945816
 MP2 triplet pair energy:              -0.30435725
 MP2 correlation energy:               -0.84381542
 MP2 total energy:                   -593.55567903

 SCS-MP2 correlation energy:           -0.83672764   (PS=  1.200000  PT=  0.333333)
 SCS-MP2 total energy:               -593.54859126

 ITER.      SQ.NORM     CORR.ENERGY   TOTAL ENERGY   ENERGY CHANGE        DEN1      VAR(S)    VAR(P)  DIIS     TIME
   1      1.33970144    -0.91079497  -593.62265858    -0.06697955    -0.04302064  0.26D-02  0.55D-02  1  1     3.57
   2      1.36669815    -0.91614288  -593.62800650    -0.00534791    -0.02577763  0.69D-04  0.46D-03  2  2     6.17
   3      1.37203197    -0.91627083  -593.62813445    -0.00012796    -0.00303792  0.16D-04  0.28D-04  3  3     8.78
   4      1.37352530    -0.91632890  -593.62819252    -0.00005807    -0.00059402  0.76D-06  0.20D-05  4  4    11.39
   5      1.37376603    -0.91633552  -593.62819914    -0.00000661    -0.00007087  0.17D-06  0.16D-06  5  5    14.00
   6      1.37381170    -0.91633107  -593.62819469     0.00000445    -0.00001393  0.30D-07  0.14D-07  6  6    16.61
   7      1.37381929    -0.91633096  -593.62819458     0.00000011     0.00000064  0.53D-08  0.23D-08  6  2    19.21
   8      1.37382538    -0.91633065  -593.62819426     0.00000031    -0.00000125  0.73D-09  0.27D-09  6  1    21.81
   9      1.37382620    -0.91633058  -593.62819420     0.00000006     0.00000051  0.66D-10  0.44D-10  6  4    24.43
  10      1.37382709    -0.91633055  -593.62819417     0.00000003    -0.00000011  0.48D-11  0.35D-11  6  3    27.05
  11      1.37382710    -0.91633055  -593.62819417    -0.00000000     0.00000004  0.12D-11  0.54D-12  6  5    29.68
  12      1.37382706    -0.91633055  -593.62819417    -0.00000000     0.00000002  0.17D-12  0.78D-13  6  6    32.29
  13      1.37382701    -0.91633055  -593.62819417    -0.00000000     0.00000002  0.24D-13  0.11D-13  6  1    34.91
  14      1.37382700    -0.91633055  -593.62819417    -0.00000000     0.00000000  0.31D-14  0.12D-14  6  2    37.53
  15      1.37382700    -0.91633055  -593.62819417     0.00000000    -0.00000000  0.67D-15  0.31D-15  6  4    40.15
  16      1.37382700    -0.91633055  -593.62819417     0.00000000    -0.00000000  0.32D-16  0.23D-16  6  5    42.77
  17      1.37382700    -0.91633055  -593.62819417     0.00000000    -0.00000000  0.58D-17  0.24D-17  6  3    45.38
  18      1.37382700    -0.91633055  -593.62819417     0.00000000    -0.00000000  0.18D-17  0.50D-18  6  6    47.99
  19      1.37382700    -0.91633055  -593.62819417     0.00000000    -0.00000000  0.38D-18  0.12D-18  6  1    50.60
  20      1.37382700    -0.91633055  -593.62819417     0.00000000     0.00000000  0.46D-19  0.18D-19  6  2    53.21
  21      1.37382700    -0.91633055  -593.62819417    -0.00000000     0.00000000  0.83D-20  0.35D-20  6  4    55.81

 Norm of t1 vector:      0.07014802      S-energy:    -0.00000000      T1 diagnostic:  0.00826702
                                                                       D1 diagnostic:  0.02108229


 Total CPU time for triples:     49.29 sec


 RESULTS
 =======

  Reference energy                   -592.711863618637
  CCSD singlet pair energy             -0.634215949275
  CCSD triplet pair energy             -0.282114604705
  CCSD correlation energy              -0.916330553981

  Triples (T) contribution             -0.029866525916
  Total correlation energy             -0.946197079897

  CCSD total energy                  -593.628194172618
  CCSD[T] energy                     -593.658680108493
  CCSD-T energy                      -593.657749518872
 !CCSD(T) total energy               -593.658060698534

 Timing summary (sec):

 STEP                 CPU(USER)    SYS     CPU(TOT)    WALL
 Transformation          1.11      0.13      1.24      1.23
 CCSD iterations        54.70      1.50     56.20     56.30
 Triples                49.29      1.20     50.49     50.50

 Program statistics:

 Available memory in ccsd:               999998604
 Min. memory needed in ccsd:               2548392
 Max. memory used in ccsd:                 3412984
 Max. memory used in cckext:               3730705 (21 integral passes)



 **********************************************************************************************************************************
 DATASETS  * FILE   NREC   LENGTH (MB)   RECORD NAMES
              1      20      256.21       500      610      700      900      950      970     1000      129      960     1100   
                                          VAR    BASINP    GEOM    SYMINP    ZMAT    AOBASIS   BASIS     P2S    ABASIS      S 
                                         1400     1410     1200     1210     1080     1600     1650     1300     1700     1380   
                                           T        V       H0       H01     AOSYM     SMH    MOLCAS    ERIS     OPER     JKOP   

              2       3        0.73       700     1000     2100   
                                         GEOM     BASIS     RHF  

 PROGRAMS   *        TOTAL   CCSD(T)       RHF       INT
 CPU TIMES  *       111.67    105.11      2.35      4.14
 REAL TIME  *       115.59 SEC
 DISK USED  *       681.27 MB      
 GA USED    *         0.00 MB       (max)       0.00 MB       (current)
 **********************************************************************************************************************************

        CCSD(T)         RHF-SCF 
   -593.65806070   -592.71186362
 **********************************************************************************************************************************
 Variable memory released
