
 Primary working directories    : /tmp/942031.149.gen4.q
 Secondary working directories  : /tmp/942031.149.gen4.q
 Wavefunction directory         : /home/vulcan/mel64643/wfu/
 Main file repository           : /tmp/942031.149.gen4.q/

 ARCHNAME  : Linux/x86_64
 FC        : /opt/intel/compilers_and_libraries_2016.1.150/linux/bin/intel64/ifort
 FCVERSION : 16.0.1
 BLASLIB   : -mkl
 id        : ccgc

 Nodes     nprocs
 n040         1
 ga_uses_ma=false, calling ma_init with nominal heap.
 GA-space will be limited to   8.0 MW (determined by -G option)

 Using customized tuning parameters: mindgm=10; mindgv=16; mindgc=4; mindgr=1; noblas=0; mincuda=1000; minvec=7
 default implementation of scratch files=df  

 ***,Optimization of h2o_2
 memory,1000,m
 gthresh,energy=1.0d-12,orbital=1.0d-10,oneint=1.0d-16,twoint=1.0d-16,optgrad=1.0d-6,compress=1.0d-13
 geomtyp=xyz
 
 bohr
 geometry = {
  O   -2.8116456226   -0.2070130139   -0.0106875411
  H   -3.5614780643    1.4463341660    0.0149843333
  H   -1.0099266955    0.1061616172   -0.0070088606
  O    2.6795162429    0.1976773451   -0.0024433842
  H    3.3362056718   -0.7082209274   -1.4362328213
  H    3.3323164757   -0.6949854330    1.4413882739
 }
 
 basis=aug-cc-pvdz, H=cc-pvdz
 {rhf;maxit,200}
 {mp2}

 Variables initialized (661), CPU time= 0.00 sec
 Commands  initialized (458), CPU time= 0.01 sec, 486 directives.
 Default parameters read. Elapsed time= 0.06 sec

 Checking input...
 Passed
1


                                         ***  PROGRAM SYSTEM MOLPRO  ***
                         Copyright, University College Cardiff Consultants Limited, 2008

                                    Version 2010.1 linked May 16 2016 07:17:05


 **********************************************************************************************************************************
 LABEL *   Optimization of h2o_2                                                         
 Linux-4.4.3/n040(x86_64) 64 bit mpp version                                             DATE: 21-Oct-23          TIME: 21:02:04  
 **********************************************************************************************************************************

 SHA1:             9e8077add272b0f3cad6f7df79ec5211205f459d
 **********************************************************************************************************************************

 THRESHOLDS:

 ZERO    =  1.00D-12  ONEINT  =  1.00D-16  TWOINT  =  1.00D-16  PREFAC  =  1.00D-14  LOCALI  =  1.00D-09  EORDER  =  1.00D-04
 ENERGY  =  1.00D-12  ETEST   =  0.00D+00  EDENS   =  0.00D+00  THRDEDEF=  1.00D-06  GRADIENT=  1.00D-02  STEP    =  1.00D-03
 ORBITAL =  1.00D-10  CIVEC   =  1.00D-05  COEFF   =  1.00D-04  PRINTCI =  5.00D-02  PUNCHCI =  9.90D+01  OPTGRAD =  1.00D-06
 OPTENERG=  1.00D-06  OPTSTEP =  3.00D-04  THRGRAD =  1.00D-10  COMPRESS=  1.00D-13  VARMIN  =  1.00D-07  VARMAX  =  1.00D-03
 THRDOUB =  0.00D+00  THRDIV  =  1.00D-05  THRRED  =  1.00D-07  THRPSP  =  1.00D+00  THRDC   =  1.00D-10  THRCS   =  1.00D-10
 THRNRM  =  1.00D-08  THREQ   =  0.00D+00  THRDE   =  1.00D+00  THRREF  =  1.00D-05  SPARFAC =  1.00D+00  THRDLP  =  1.00D-07
 THRDIA  =  1.00D-10  THRDLS  =  1.00D-07  THRGPS  =  0.00D+00  THRKEX  =  0.00D+00  THRDIS  =  2.00D-01  THRVAR  =  1.00D-10
 THRLOC  =  1.00D-06  THRGAP  =  1.00D-06  THRLOCT = -1.00D+00  THRGAPT = -1.00D+00  THRORB  =  1.00D-06  THRMLTP =  0.00D+00
 THRCPQCI=  1.00D-10  KEXTA   =  0.00D+00  THRCOARS=  0.00D+00  SYMTOL  =  1.00D-06  GRADTOL =  1.00D-06  THROVL  =  1.00D-08
 THRORTH =  1.00D-08  GRID    =  1.00D-06  GRIDMAX =  1.00D-03  DTMAX   =  0.00D+00

 SETTING GEOMTYP        =    XYZ
 ZUNIT=BOHR
 

 Variable memory set to 1000000000 words,  buffer space   230000 words

 SETTING BASIS          =    AUG-CC-PVDZ,H=CC-PVDZ


 Recomputing integrals since basis changed


 Using spherical harmonics

 Library entry O      S aug-cc-pVDZ          selected for orbital group  1
 Library entry O      P aug-cc-pVDZ          selected for orbital group  1
 Library entry O      D aug-cc-pVDZ          selected for orbital group  1
 Library entry H      S cc-pVDZ              selected for orbital group  2
 Library entry H      P cc-pVDZ              selected for orbital group  2

1PROGRAM * SEWARD (Integral evaluation for generally contracted gaussian basis sets)     Author: Roland Lindh, 1990

 Geometry written to block  1 of record 700


 Point group  C1  



 ATOMIC COORDINATES

 NR  ATOM    CHARGE       X              Y              Z

   1  O       8.00   -2.811645623   -0.207013014   -0.010687541
   2  H       1.00   -3.561478064    1.446334166    0.014984333
   3  H       1.00   -1.009926695    0.106161617   -0.007008861
   4  O       8.00    2.679516243    0.197677345   -0.002443384
   5  H       1.00    3.336205672   -0.708220927   -1.436232821
   6  H       1.00    3.332316476   -0.694985433    1.441388274

 Bond lengths in Bohr (Angstrom)

 1-2  1.815616874  1-3  1.828738083  4-5  1.818693167  4-6  1.818693167
     ( 0.960783070)     ( 0.967726515)     ( 0.962410974)     ( 0.962410974)

 Bond angles

  2-1-3  104.53160097   5-4-6  104.58292363

 NUCLEAR CHARGE:                   20
 NUMBER OF PRIMITIVE AOS:         102
 NUMBER OF SYMMETRY AOS:           98
 NUMBER OF CONTRACTIONS:           66   (  66A   )
 NUMBER OF CORE ORBITALS:           2   (   2A   )
 NUMBER OF VALENCE ORBITALS:       12   (  12A   )


 NUCLEAR REPULSION ENERGY   36.55000438


 Eigenvalues of metric

         1 0.609E-02 0.782E-02 0.121E-01 0.129E-01 0.165E-01 0.166E-01 0.209E-01 0.284E-01


 Contracted 2-electron integrals neglected if value below      1.0D-16
 AO integral compression algorithm  1   Integral accuracy      1.0D-16

     22.544 MB (compressed) written to integral file ( 89.5%)

     Node minimum: 22.544 MB, node maximum: 22.544 MB


 NUMBER OF SORTED TWO-ELECTRON INTEGRALS:    2445366.     BUFFER LENGTH:  32768
 NUMBER OF SEGMENTS:   1  SEGMENT LENGTH:    2445366      RECORD LENGTH: 524288

 Memory used in sort:       3.00 MW

 SORT1 READ     3139200. AND WROTE     2377587. INTEGRALS IN      7 RECORDS. CPU TIME:     0.02 SEC, REAL TIME:     0.05 SEC
 SORT2 READ     2377587. AND WROTE     2445366. INTEGRALS IN     86 RECORDS. CPU TIME:     0.05 SEC, REAL TIME:     0.06 SEC

 FILE SIZES:   FILE 1:    20.5 MBYTE,  FILE 4:    29.4 MBYTE,   TOTAL:     49.9 MBYTE

 OPERATOR DM      FOR CENTER  0  COORDINATES:    0.000000    0.000000    0.000000


 **********************************************************************************************************************************
 DATASETS  * FILE   NREC   LENGTH (MB)   RECORD NAMES
              1      19       20.59       500      610      700      900      950      970     1000      129      960     1100   
                                          VAR    BASINP    GEOM    SYMINP    ZMAT    AOBASIS   BASIS     P2S    ABASIS      S 
                                         1400     1410     1200     1210     1080     1600     1650     1300     1700   
                                           T        V       H0       H01     AOSYM     SMH    MOLCAS    ERIS     OPER   

 PROGRAMS   *        TOTAL       INT
 CPU TIMES  *         0.46      0.40
 REAL TIME  *         0.67 SEC
 DISK USED  *        73.11 MB      
 GA USED    *         0.00 MB       (max)       0.00 MB       (current)
 **********************************************************************************************************************************

1PROGRAM * RHF-SCF (CLOSED SHELL)       Authors: W. Meyer, H.-J. Werner


 NUMBER OF ELECTRONS:      10+   10-    SPACE SYMMETRY=1    SPIN SYMMETRY: Singlet 
 CONVERGENCE THRESHOLDS:    1.00E-10 (Density)    1.00E-13 (Energy)
 MAX. NUMBER OF ITERATIONS:      200
 INTERPOLATION TYPE:            DIIS
 INTERPOLATION STEPS:              2 (START)      1 (STEP)
 LEVEL SHIFTS:                  0.00 (CLOSED)  0.00 (OPEN) 



 Orbital guess generated from atomic densities. Full valence occupancy:   14

 Molecular orbital dump at record        2100.2

 ITERATION    DDIFF          GRAD             ENERGY        2-EL.EN.            DIPOLE MOMENTS         DIIS
    1      0.000D+00      0.000D+00      -152.02059584    191.279367    1.37215    0.09414    0.02048    0
    2      0.000D+00      0.119D-01      -152.07009759    184.807162    1.02636    0.03233    0.01246    1
    3      0.225D-01      0.667D-02      -152.08693488    187.587237    1.08567    0.05801    0.01443    2
    4      0.767D-02      0.748D-03      -152.08732589    187.365444    1.07198    0.05586    0.01435    3
    5      0.126D-02      0.179D-03      -152.08735546    187.386469    1.06803    0.05692    0.01432    4
    6      0.357D-03      0.374D-04      -152.08735695    187.389136    1.06724    0.05632    0.01432    5
    7      0.870D-04      0.168D-04      -152.08735712    187.388233    1.06701    0.05665    0.01431    6
    8      0.240D-04      0.358D-05      -152.08735714    187.388201    1.06689    0.05661    0.01431    7
    9      0.946D-05      0.521D-06      -152.08735714    187.388207    1.06687    0.05661    0.01431    6
   10      0.124D-05      0.993D-07      -152.08735714    187.388204    1.06687    0.05661    0.01431    6
   11      0.237D-06      0.259D-07      -152.08735714    187.388208    1.06687    0.05661    0.01431    6
   12      0.543D-07      0.745D-08      -152.08735714    187.388206    1.06687    0.05661    0.01431    6
   13      0.187D-07      0.229D-08      -152.08735714    187.388207    1.06687    0.05661    0.01431    6
   14      0.429D-08      0.780D-09      -152.08735714    187.388207    1.06687    0.05661    0.01431    7
   15      0.146D-08      0.215D-09      -152.08735714    187.388207    1.06687    0.05661    0.01431    7
   16      0.394D-09      0.112D-09      -152.08735714    187.388207    1.06687    0.05661    0.01431    8
   17      0.192D-09      0.154D-10      -152.08735714    187.388207    1.06687    0.05661    0.01431    8
   18      0.322D-10      0.604D-11      -152.08735714    187.388207    1.06687    0.05661    0.01431    0

 Final occupancy:  10

 !RHF STATE 1.1 Energy               -152.087357139929
 Nuclear energy                        36.55000438
 One-electron energy                 -282.33146494
 Two-electron energy                   93.69410342
 Virial quotient                       -1.00166994
 !RHF STATE 1.1 Dipole moment           1.06687128     0.05661216     0.01431224
 Dipole moment /Debye                   2.71153871     0.14388434     0.03637571

 Orbital energies:

         1.1          2.1          3.1          4.1          5.1          6.1          7.1          8.1          9.1         10.1
    -20.602698   -20.546020    -1.381197    -1.323429    -0.741625    -0.693915    -0.614167    -0.558938    -0.529806    -0.479832

        11.1         12.1
      0.112432     0.152831


 **********************************************************************************************************************************
 DATASETS  * FILE   NREC   LENGTH (MB)   RECORD NAMES
              1      19       20.59       500      610      700      900      950      970     1000      129      960     1100   
                                          VAR    BASINP    GEOM    SYMINP    ZMAT    AOBASIS   BASIS     P2S    ABASIS      S 
                                         1400     1410     1200     1210     1080     1600     1650     1300     1700   
                                           T        V       H0       H01     AOSYM     SMH    MOLCAS    ERIS     OPER   

              2       3        0.44       700     1000     2100   
                                         GEOM     BASIS     RHF  

 PROGRAMS   *        TOTAL       RHF       INT
 CPU TIMES  *         0.82      0.36      0.40
 REAL TIME  *         1.10 SEC
 DISK USED  *        73.11 MB      
 GA USED    *         0.00 MB       (max)       0.00 MB       (current)
 **********************************************************************************************************************************


1PROGRAM * MP2 (Closed-shell)     Authors: C. Hampel, H.-J. Werner, 1991, M. Deegan, P.J. Knowles, 1992


 Convergence thresholds:  THRVAR = 1.00D-08  THRDEN = 1.00D-12

 Number of core orbitals:           2 (   2 )
 Number of closed-shell orbitals:   8 (   8 )
 Number of external orbitals:      56 (  56 )

 Molecular orbitals read from record     2100.2  Type=RHF/CANONICAL (state 1.1)

 Number of N-1 electron functions:               8
 Number of N-2 electron functions:              36
 Number of singly external CSFs:               448
 Number of doubly external CSFs:            100576
 Total number of CSFs:                      101025

 Length of J-op  integral file:               0.00 MB
 Length of K-op  integral file:               0.33 MB

 Integral transformation finished. Total CPU:   0.04 sec, npass=  1  Memory used:   0.40 MW

 Memory needed for MP2:                      0.02 MW

 SCS-MP2 correlation energy:           -0.429144464886   (PS=  1.200000  PT=  0.333333)
 SCS-MP2 total energy:               -152.516501604815


  Reference energy                   -152.087357139929
  MP2 singlet pair energy              -0.270188196372
  MP2 triplet pair energy              -0.168619225564
  MP2 correlation energy               -0.438807421936

 !MP2 total energy                   -152.526164561865


 **********************************************************************************************************************************
 DATASETS  * FILE   NREC   LENGTH (MB)   RECORD NAMES
              1      20       22.57       500      610      700      900      950      970     1000      129      960     1100   
                                          VAR    BASINP    GEOM    SYMINP    ZMAT    AOBASIS   BASIS     P2S    ABASIS      S 
                                         1400     1410     1200     1210     1080     1600     1650     1300     1700     1380   
                                           T        V       H0       H01     AOSYM     SMH    MOLCAS    ERIS     OPER     JKOP   

              2       3        0.44       700     1000     2100   
                                         GEOM     BASIS     RHF  

 PROGRAMS   *        TOTAL       MP2       RHF       INT
 CPU TIMES  *         0.88      0.06      0.36      0.40
 REAL TIME  *         1.19 SEC
 DISK USED  *        73.11 MB      
 GA USED    *         0.00 MB       (max)       0.00 MB       (current)
 **********************************************************************************************************************************

        MP2             RHF-SCF 
   -152.52616456   -152.08735714
 **********************************************************************************************************************************
 Variable memory released
