
    -----------------------------------------------------------------------
          Psi4: An Open-Source Ab Initio Electronic Structure Package
                               Psi4 1.4a2.dev629 

                         Git: Rev {master} 2938fc2 dirty


    D. G. A. Smith, L. A. Burns, A. C. Simmonett, R. M. Parrish,
    M. C. Schieber, R. Galvelis, P. Kraus, H. Kruse, R. Di Remigio,
    A. Alenaizan, A. M. James, S. Lehtola, J. P. Misiewicz, M. Scheurer,
    R. A. Shaw, J. B. Schriber, Y. Xie, Z. L. Glick, D. A. Sirianni,
    J. S. O'Brien, J. M. Waldrop, A. Kumar, E. G. Hohenstein,
    B. P. Pritchard, B. R. Brooks, H. F. Schaefer III, A. Yu. Sokolov,
    K. Patkowski, A. E. DePrince III, U. Bozkaya, R. A. King,
    F. A. Evangelista, J. M. Turney, T. D. Crawford, C. D. Sherrill,
    J. Chem. Phys. 152(18) 184108 (2020). https://doi.org/10.1063/5.0006002

                            Additional Code Authors
    E. T. Seidl, C. L. Janssen, E. F. Valeev, M. L. Leininger,
    J. F. Gonthier, R. M. Richard, H. R. McAlexander, M. Saitow, X. Wang,
    P. Verma, and M. H. Lechner

             Previous Authors, Complete List of Code Contributors,
                       and Citations for Specific Modules
    https://github.com/psi4/psi4/blob/master/codemeta.json
    https://github.com/psi4/psi4/graphs/contributors
    http://psicode.org/psi4manual/master/introduction.html#citing-psifour

    -----------------------------------------------------------------------


    Psi4 started on: Tuesday, 16 November 2021 03:30PM

    Process ID: 4177
    Host:       n036
    PSIDATADIR: /opt/psi/4/master/share/psi4
    Memory:     500.0 MiB
    Threads:    4
    
  ==> Input File <==

--------------------------------------------------------------------------
import os
memory 14 GB 
 
molecule {
 S   -1.9492524683    0.3246001006   -0.0007402229
 C    1.1149816742   -1.2931345414   -0.0015695006
 C    3.2006859624    0.6979813264   -0.0000021317
 H   -3.3849150913   -1.7570683773    0.0007455296
 H    1.2550806209   -2.4872599521    1.6718852830
 H    1.2492535720   -2.4802088405   -1.6712588295
 H    5.0518349295   -0.2081968886    0.0033668843
 H    3.0676088141    1.9024905741    1.6704465168
 H    3.0689542765    1.8992492488   -1.6728735288
units bohr
}

basis {

assign 6-31g_2dfp_

[ 6-31g_2dfp_ ]

spherical

!----------------------------------------------------------------------
! Basis Set Exchange
! Version v0.8.13
! https://www.basissetexchange.org
!----------------------------------------------------------------------
!   Basis set: 6-31G(2df,p)
! Description: 6-31G(2df,p)
!        Role: orbital
!     Version: 0  (Data from the original Basis Set Exchange)
!----------------------------------------------------------------------


****
H     0
S    3   1.00
     18.7311370              0.03349460
      2.8253937              0.23472695
      0.6401217              0.81375733
S    1   1.00
      0.1612778              1.00000000
P    1   1.00
      1.5000000              1.0000000
P    1   1.00
      0.3750000              1.0000000
****
B     0
S    6   1.00
   2068.8823000              0.0018663
    310.6495700              0.0142515
     70.6830330              0.0695516
     19.8610800              0.2325729
      6.2993048              0.4670787
      2.1270270              0.3634314
SP   3   1.00
      4.7279710             -0.1303938              0.0745976
      1.1903377             -0.1307889              0.3078467
      0.3594117              1.1309444              0.7434568
SP   1   1.00
      0.1267512              1.0000000              1.0000000
D    1   1.00
      0.8020000              1.0000000
D    1   1.00
      0.2005000              1.0000000
F    1   1.00
      0.5000000              1.0000000
****
C     0
S    6   1.00
   3047.5249000              0.0018347
    457.3695100              0.0140373
    103.9486900              0.0688426
     29.2101550              0.2321844
      9.2866630              0.4679413
      3.1639270              0.3623120
SP   3   1.00
      7.8682724             -0.1193324              0.0689991
      1.8812885             -0.1608542              0.3164240
      0.5442493              1.1434564              0.7443083
SP   1   1.00
      0.1687144              1.0000000              1.0000000
D    1   1.00
      1.2520000              1.0000000
D    1   1.00
      0.3130000              1.0000000
F    1   1.00
      0.8000000              1.0000000
****
N     0
S    6   1.00
   4173.5110000              0.0018348
    627.4579000              0.0139950
    142.9021000              0.0685870
     40.2343300              0.2322410
     12.8202100              0.4690700
      4.3904370              0.3604550
SP   3   1.00
     11.6263580             -0.1149610              0.0675800
      2.7162800             -0.1691180              0.3239070
      0.7722180              1.1458520              0.7408950
SP   1   1.00
      0.2120313              1.0000000              1.0000000
D    1   1.00
      1.8260000              1.0000000
D    1   1.00
      0.4565000              1.0000000
F    1   1.00
      1.0000000              1.0000000
****
O     0
S    6   1.00
   5484.6717000              0.0018311
    825.2349500              0.0139501
    188.0469600              0.0684451
     52.9645000              0.2327143
     16.8975700              0.4701930
      5.7996353              0.3585209
SP   3   1.00
     15.5396160             -0.1107775              0.0708743
      3.5999336             -0.1480263              0.3397528
      1.0137618              1.1307670              0.7271586
SP   1   1.00
      0.2700058              1.0000000              1.0000000
D    1   1.00
      2.5840000              1.0000000
D    1   1.00
      0.6460000              1.0000000
F    1   1.00
      1.4000000              1.0000000
****
F     0
S    6   1.00
   7001.7130900              0.0018196169
   1051.3660900              0.0139160796
    239.2856900              0.0684053245
     67.3974453              0.233185760
     21.5199573              0.471267439
      7.40310130             0.356618546
SP   3   1.00
     20.8479528             -0.108506975            0.0716287243
      4.80830834            -0.146451658            0.3459121030
      1.34406986             1.128688580            0.7224699570
SP   1   1.00
      0.358151393            1.0000000              1.0000000
D    1   1.00
      3.5000000              1.0000000
D    1   1.00
      0.8750000              1.0000000
F    1   1.00
      1.8500000              1.0000000
****
Al     0
S    6   1.00
  13983.1000000              0.00194267
   2098.7500000              0.0148599
    477.7050000              0.0728494
    134.3600000              0.2468300
     42.8709000              0.4872580
     14.5189000              0.3234960
SP   6   1.00
    239.6680000             -0.00292619             0.00460285
     57.4419000             -0.0374080              0.0331990
     18.2859000             -0.1144870              0.1362820
      6.5991400              0.1156350              0.3304760
      2.4904900              0.6125950              0.4491460
      0.9445400              0.3937990              0.2657040
SP   3   1.00
      1.2779000             -0.2276060             -0.0175130
      0.3975900              0.00144583             0.2445330
      0.1600950              1.0927900              0.8049340
SP   1   1.00
      0.0556577              1.0000000              1.0000000
D    1   1.00
      0.6500000              1.0000000
D    1   1.00
      0.1625000              1.0000000
F    1   1.00
      0.2500000              1.0000000
****
Si     0
S    6   1.00
  16115.9000000              0.00195948
   2425.5800000              0.01492880
    553.8670000              0.07284780
    156.3400000              0.24613000
     50.0683000              0.48591400
     17.0178000              0.32500200
SP   6   1.00
    292.7180000             -0.00278094             0.00443826
     69.8731000             -0.03571460             0.03266790
     22.3363000             -0.11498500             0.13472100
      8.1503900              0.09356340             0.32867800
      3.1345800              0.60301700             0.44964000
      1.2254300              0.41895900             0.26137200
SP   3   1.00
      1.7273800             -0.24463000            -0.01779510
      0.5729220              0.00431572             0.25353900
      0.2221920              1.09818000             0.80066900
SP   1   1.00
      0.0778369              1.00000000             1.00000000
D    1   1.00
      0.9000000              1.0000000
D    1   1.00
      0.2250000              1.0000000
F    1   1.00
      0.3200000              1.0000000
****
P     0
S    6   1.00
  19413.3000000              0.0018516
   2909.4200000              0.0142062
    661.3640000              0.0699995
    185.7590000              0.2400790
     59.1943000              0.4847620
     20.0310000              0.3352000
SP   6   1.00
    339.4780000             -0.00278217             0.00456462
     81.0101000             -0.0360499              0.03369360
     25.8780000             -0.1166310              0.13975500
      9.4522100              0.0968328              0.33936200
      3.6656600              0.6144180              0.45092100
      1.4674600              0.4037980              0.23858600
SP   3   1.00
      2.1562300             -0.2529230             -0.01776530
      0.7489970              0.0328517              0.27405800
      0.2831450              1.0812500              0.78542100
SP   1   1.00
      0.0998317              1.0000000              1.00000000
D    1   1.00
      1.1000000              1.0000000
D    1   1.00
      0.2750000              1.0000000
F    1   1.00
      0.4500000              1.0000000
****
S     0
S    6   1.00
  21917.1000000              0.0018690
   3301.4900000              0.0142300
    754.1460000              0.0696960
    212.7110000              0.2384870
     67.9896000              0.4833070
     23.0515000              0.3380740
SP   6   1.00
    423.7350000             -0.0023767              0.0040610
    100.7100000             -0.0316930              0.0306810
     32.1599000             -0.1133170              0.1304520
     11.8079000              0.0560900              0.3272050
      4.6311000              0.5922550              0.4528510
      1.8702500              0.4550060              0.2560420
SP   3   1.00
      2.6158400             -0.2503740             -0.0145110
      0.9221670              0.0669570              0.3102630
      0.3412870              1.0545100              0.7544830
SP   1   1.00
      0.1171670              1.0000000              1.0000000
D    1   1.00
      1.3000000              1.0000000
D    1   1.00
      0.3250000              1.0000000
F    1   1.00
      0.5500000              1.0000000
****
Cl     0
S    6   1.00
  25180.1000000              0.0018330
   3780.3500000              0.0140340
    860.4740000              0.0690970
    242.1450000              0.2374520
     77.3349000              0.4830340
     26.2470000              0.3398560
SP   6   1.00
    491.7650000             -0.0022974              0.0039894
    116.9840000             -0.0307140              0.0303180
     37.4153000             -0.1125280              0.1298800
     13.7834000              0.0450160              0.3279510
      5.4521500              0.5893530              0.4535270
      2.2258800              0.4652060              0.2521540
SP   3   1.00
      3.1864900             -0.2518300             -0.0142990
      1.1442700              0.0615890              0.3235720
      0.4203770              1.0601800              0.7435070
SP   1   1.00
      0.1426570              1.0000000              1.0000000
D    1   1.00
      1.5000000              1.0000000
D    1   1.00
      0.3750000              1.0000000
F    1   1.00
      0.7000000              1.0000000
****
}


set {
reference rhf                          
freeze_core true
e_convergence 10                       
d_convergence 10                      
dft_spherical_points 1202
dft_radial_points 99
}

e = energy('b3lyp')

print_out('Grab this energy {0}'.format(e))
--------------------------------------------------------------------------

  Memory set to  13.039 GiB by Python driver.

Scratch directory: /tmp/

*** tstart() called on n036
*** at Tue Nov 16 15:30:03 2021

   => Loading Basis Set <=

    Name: ANONYMOUS663D956C
    Role: ORBITAL
    Keyword: BASIS
    atoms 1   entry S          line   216 inputblock 6-31g_2dfp_ 
    atoms 2-3 entry C          line    48 inputblock 6-31g_2dfp_ 
    atoms 4-9 entry H          line    15 inputblock 6-31g_2dfp_ 


         ---------------------------------------------------------
                                   SCF
               by Justin Turney, Rob Parrish, Andy Simmonett
                          and Daniel G. A. Smith
                              RKS Reference
                        4 Threads,  13351 MiB Core
         ---------------------------------------------------------

  ==> Geometry <==

    Molecular point group: c1
    Full point group: C1

    Geometry (in Bohr), charge = 0, multiplicity = 1:

       Center              X                  Y                   Z               Mass       
    ------------   -----------------  -----------------  -----------------  -----------------
         S           -1.946912042926     0.323297200757    -0.000092097531    31.972071174400
         C            1.117322099574    -1.294437441243    -0.000921375231    12.000000000000
         C            3.203026387774     0.696678426557     0.000645993669    12.000000000000
         H           -3.382574665926    -1.758371277143     0.001393654969     1.007825032230
         H            1.257421046274    -2.488562851943     1.672533408369     1.007825032230
         H            1.251593997374    -2.481511740343    -1.670610704131     1.007825032230
         H            5.054175354874    -0.209499788443     0.004015009669     1.007825032230
         H            3.069949239474     1.901187674257     1.671094642169     1.007825032230
         H            3.071294701874     1.897946348957    -1.672225403431     1.007825032230

  Running in c1 symmetry.

  Rotational constants: A =      0.94925  B =      0.18242  C =      0.16231 [cm^-1]
  Rotational constants: A =  28457.76623  B =   5468.90129  C =   4865.98039 [MHz]
  Nuclear repulsion =  107.418681937264708

  Charge       = 0
  Multiplicity = 1
  Electrons    = 34
  Nalpha       = 17
  Nbeta        = 17

  ==> Algorithm <==

  SCF Algorithm Type is DF.
  DIIS enabled.
  MOM disabled.
  Fractional occupation disabled.
  Guess Type is SAD.
  Energy threshold   = 1.00e-10
  Density threshold  = 1.00e-10
  Integral threshold = 0.00e+00

  ==> Primary Basis <==

  Basis Set: ANONYMOUS663D956C
    Blend: 6-31G_2DFP_
    Number of shells: 50
    Number of basis function: 130
    Number of Cartesian functions: 145
    Spherical Harmonics?: true
    Max angular momentum: 3

  ==> DFT Potential <==

   => Composite Functional: B3LYP <= 

    B3LYP Hyb-GGA Exchange-Correlation Functional

    P. J. Stephens, F. J. Devlin, C. F. Chabalowski, and M. J. Frisch, J. Phys. Chem. 98, 11623 (1994)

    Deriv               =              1
    GGA                 =           TRUE
    Meta                =          FALSE

    Exchange Hybrid     =           TRUE
    MP2 Hybrid          =          FALSE

   => Exchange Functionals <=

    0.0800   Slater exchange
    0.7200         Becke 88

   => Exact (HF) Exchange <=

    0.2000               HF 

   => Correlation Functionals <=

    0.1900   Vosko, Wilk & Nusair (VWN5_RPA)
    0.8100   Lee, Yang & Parr

   => Molecular Quadrature <=

    Radial Scheme          =       TREUTLER
    Pruning Scheme         =           NONE
    Nuclear Scheme         =       TREUTLER

    BS radius alpha        =              1
    Pruning alpha          =              1
    Radial Points          =             99
    Spherical Points       =           1202
    Total Points           =        1008111
    Total Blocks           =           6811
    Max Points             =            256
    Max Functions          =            129
    Weights Tolerance      =       1.00E-15

   => Loading Basis Set <=

    Name: (ANONYMOUS663D956C AUX)
    Role: JKFIT
    Keyword: DF_BASIS_SCF
    atoms 1   entry S          line   903 file /opt/psi/4/master/share/psi4/basis/def2-universal-jkfit.gbs 
    atoms 2-3 entry C          line   198 file /opt/psi/4/master/share/psi4/basis/def2-universal-jkfit.gbs 
    atoms 4-9 entry H          line    18 file /opt/psi/4/master/share/psi4/basis/def2-universal-jkfit.gbs 

  ==> Integral Setup <==

  DFHelper Memory: AOs need 0.053 GiB; user supplied 6.639 GiB. Using in-core AOs.

  ==> MemDFJK: Density-Fitted J/K Matrices <==

    J tasked:                   Yes
    K tasked:                   Yes
    wK tasked:                   No
    OpenMP threads:               4
    Memory [MiB]:              6798
    Algorithm:                 Core
    Schwarz Cutoff:           1E-12
    Mask sparsity (%):       1.1834
    Fitting Condition:        1E-10

   => Auxiliary Basis Set <=

  Basis Set: (ANONYMOUS663D956C AUX)
    Blend: DEF2-UNIVERSAL-JKFIT
    Number of shells: 124
    Number of basis function: 386
    Number of Cartesian functions: 453
    Spherical Harmonics?: true
    Max angular momentum: 4

  Cached 100.0% of DFT collocation blocks in 3.140 [GiB].

  Minimum eigenvalue in the overlap matrix is 2.0414067208E-03.
  Reciprocal condition number of the overlap matrix is 3.5249289763E-04.
    Using symmetric orthogonalization.

  ==> Pre-Iterations <==

  SCF Guess: Superposition of Atomic Densities via on-the-fly atomic UHF (no occupation information).

   -------------------------
    Irrep   Nso     Nmo    
   -------------------------
     A        130     130 
   -------------------------
    Total     130     130
   -------------------------

  ==> Iterations <==

                           Total Energy        Delta E     RMS |[F,P]|

   @DF-RKS iter SAD:  -477.56300345876747   -4.77563e+02   0.00000e+00 
   @DF-RKS iter   1:  -477.80327829543978   -2.40275e-01   4.88382e-03 DIIS
   @DF-RKS iter   2:  -477.68249436763307    1.20784e-01   5.97490e-03 DIIS
   @DF-RKS iter   3:  -478.02290832182052   -3.40414e-01   6.84212e-04 DIIS
   @DF-RKS iter   4:  -478.02710889364624   -4.20057e-03   2.08963e-04 DIIS
   @DF-RKS iter   5:  -478.02747024315198   -3.61350e-04   6.85034e-05 DIIS
   @DF-RKS iter   6:  -478.02750974835971   -3.95052e-05   9.65792e-06 DIIS
   @DF-RKS iter   7:  -478.02751063613948   -8.87780e-07   1.73340e-06 DIIS
   @DF-RKS iter   8:  -478.02751066531857   -2.91791e-08   3.35203e-07 DIIS
   @DF-RKS iter   9:  -478.02751066643009   -1.11152e-09   5.18683e-08 DIIS
   @DF-RKS iter  10:  -478.02751066645254   -2.24532e-11   1.73558e-08 DIIS
   @DF-RKS iter  11:  -478.02751066645590   -3.35376e-12   4.50329e-09 DIIS
   @DF-RKS iter  12:  -478.02751066645646   -5.68434e-13   3.78957e-10 DIIS
   @DF-RKS iter  13:  -478.02751066645612    3.41061e-13   6.02631e-11 DIIS
  Energy and wave function converged.


  ==> Post-Iterations <==

    Orbital Energies [Eh]
    ---------------------

    Doubly Occupied:                                                      

       1A    -88.856293     2A    -10.213258     3A    -10.181656  
       4A     -7.928722     5A     -5.892934     6A     -5.889649  
       7A     -5.883601     8A     -0.799141     9A     -0.702043  
      10A     -0.601614    11A     -0.461054    12A     -0.457674  
      13A     -0.390680    14A     -0.364846    15A     -0.363449  
      16A     -0.324220    17A     -0.234808  

    Virtual:                                                              

      18A      0.027118    19A      0.078461    20A      0.100571  
      21A      0.132336    22A      0.133212    23A      0.158110  
      24A      0.165212    25A      0.193552    26A      0.310772  
      27A      0.325107    28A      0.343487    29A      0.344213  
      30A      0.354676    31A      0.371076    32A      0.377780  
      33A      0.430048    34A      0.434074    35A      0.472819  
      36A      0.527047    37A      0.530614    38A      0.540879  
      39A      0.548214    40A      0.598400    41A      0.611127  
      42A      0.613928    43A      0.628807    44A      0.651976  
      45A      0.711506    46A      0.735846    47A      0.788350  
      48A      0.806759    49A      0.852135    50A      0.862835  
      51A      0.876623    52A      0.913853    53A      1.001569  
      54A      1.060295    55A      1.074873    56A      1.126839  
      57A      1.146231    58A      1.171892    59A      1.229428  
      60A      1.261914    61A      1.276149    62A      1.308877  
      63A      1.347190    64A      1.378468    65A      1.392034  
      66A      1.395313    67A      1.436828    68A      1.447173  
      69A      1.461672    70A      1.465361    71A      1.577497  
      72A      1.655784    73A      1.729467    74A      1.782547  
      75A      1.794771    76A      1.805069    77A      1.813024  
      78A      1.881987    79A      1.914378    80A      2.001872  
      81A      2.004238    82A      2.082791    83A      2.160549  
      84A      2.297932    85A      2.377814    86A      2.378764  
      87A      2.413135    88A      2.501244    89A      2.779612  
      90A      2.832244    91A      2.876223    92A      2.904402  
      93A      2.938648    94A      3.031303    95A      3.050370  
      96A      3.164733    97A      3.167019    98A      3.245444  
      99A      3.282538   100A      3.319716   101A      3.463674  
     102A      3.475626   103A      3.541399   104A      3.555051  
     105A      3.575037   106A      3.657344   107A      3.661140  
     108A      3.718772   109A      3.790266   110A      3.907819  
     111A      3.920167   112A      3.941319   113A      4.063128  
     114A      4.073954   115A      4.166614   116A      4.184324  
     117A      4.233662   118A      4.255297   119A      4.283123  
     120A      4.412843   121A      4.423968   122A      4.492008  
     123A      4.504038   124A      4.534054   125A      4.581642  
     126A      4.943230   127A      5.068778   128A      5.200322  
     129A      5.266146   130A      5.312195  

    Final Occupation by Irrep:
              A 
    DOCC [    17 ]

  @DF-RKS Final Energy:  -478.02751066645612

   => Energetics <=

    Nuclear Repulsion Energy =            107.4186819372647079
    One-Electron Energy =                -869.4506001594307918
    Two-Electron Energy =                 315.3187929200462918
    DFT Exchange-Correlation Energy =     -31.3143853643363528
    Empirical Dispersion Energy =           0.0000000000000000
    VV10 Nonlocal Energy =                  0.0000000000000000
    Total Energy =                       -478.0275106664561235

Computation Completed


Properties will be evaluated at   0.000000,   0.000000,   0.000000 [a0]

Properties computed using the SCF density matrix

  Nuclear Dipole Moment: [e a0]
     X:     5.0934      Y:    -1.5526      Z:     0.0031

  Electronic Dipole Moment: [e a0]
     X:    -4.6733      Y:     1.0626      Z:    -0.0036

  Dipole Moment: [e a0]
     X:     0.4201      Y:    -0.4900      Z:    -0.0005     Total:     0.6454

  Dipole Moment: [D]
     X:     1.0677      Y:    -1.2455      Z:    -0.0013     Total:     1.6405


*** tstop() called on n036 at Tue Nov 16 15:30:22 2021
Module time:
	user time   =      72.71 seconds =       1.21 minutes
	system time =       0.79 seconds =       0.01 minutes
	total time  =         19 seconds =       0.32 minutes
Total time:
	user time   =      72.71 seconds =       1.21 minutes
	system time =       0.79 seconds =       0.01 minutes
	total time  =         19 seconds =       0.32 minutes
Grab this energy -478.0275106664561
    Psi4 stopped on: Tuesday, 16 November 2021 03:30PM
    Psi4 wall time for execution: 0:00:18.98

*** Psi4 exiting successfully. Buy a developer a beer!
