
    -----------------------------------------------------------------------
          Psi4: An Open-Source Ab Initio Electronic Structure Package
                               Psi4 1.4a2.dev629 

                         Git: Rev {master} 2938fc2 dirty


    D. G. A. Smith, L. A. Burns, A. C. Simmonett, R. M. Parrish,
    M. C. Schieber, R. Galvelis, P. Kraus, H. Kruse, R. Di Remigio,
    A. Alenaizan, A. M. James, S. Lehtola, J. P. Misiewicz, M. Scheurer,
    R. A. Shaw, J. B. Schriber, Y. Xie, Z. L. Glick, D. A. Sirianni,
    J. S. O'Brien, J. M. Waldrop, A. Kumar, E. G. Hohenstein,
    B. P. Pritchard, B. R. Brooks, H. F. Schaefer III, A. Yu. Sokolov,
    K. Patkowski, A. E. DePrince III, U. Bozkaya, R. A. King,
    F. A. Evangelista, J. M. Turney, T. D. Crawford, C. D. Sherrill,
    J. Chem. Phys. 152(18) 184108 (2020). https://doi.org/10.1063/5.0006002

                            Additional Code Authors
    E. T. Seidl, C. L. Janssen, E. F. Valeev, M. L. Leininger,
    J. F. Gonthier, R. M. Richard, H. R. McAlexander, M. Saitow, X. Wang,
    P. Verma, and M. H. Lechner

             Previous Authors, Complete List of Code Contributors,
                       and Citations for Specific Modules
    https://github.com/psi4/psi4/blob/master/codemeta.json
    https://github.com/psi4/psi4/graphs/contributors
    http://psicode.org/psi4manual/master/introduction.html#citing-psifour

    -----------------------------------------------------------------------


    Psi4 started on: Tuesday, 16 November 2021 03:21PM

    Process ID: 32710
    Host:       n059
    PSIDATADIR: /opt/psi/4/master/share/psi4
    Memory:     500.0 MiB
    Threads:    4
    
  ==> Input File <==

--------------------------------------------------------------------------
import os
memory 14 GB 
 
molecule {
 S   -1.9442740850    0.3211822987    0.0007415062
 C    1.1151320241   -1.2908486851    0.0015688599
 C    3.1985990591    0.6966292200    0.0000030946
 H   -3.3859783163   -1.7570896399   -0.0007436953
 H    1.2474476302   -2.4794421251    1.6742714843
 H    1.2532766835   -2.4864994481   -1.6749026503
 H    5.0534302332   -0.2078605514   -0.0033679322
 H    3.0689701521    1.8995715092    1.6720699928
 H    3.0676289091    1.9028100717   -1.6696406600
units bohr
}

basis {

assign 6-31g_2dfp_

[ 6-31g_2dfp_ ]

spherical

!----------------------------------------------------------------------
! Basis Set Exchange
! Version v0.8.13
! https://www.basissetexchange.org
!----------------------------------------------------------------------
!   Basis set: 6-31G(2df,p)
! Description: 6-31G(2df,p)
!        Role: orbital
!     Version: 0  (Data from the original Basis Set Exchange)
!----------------------------------------------------------------------


****
H     0
S    3   1.00
     18.7311370              0.03349460
      2.8253937              0.23472695
      0.6401217              0.81375733
S    1   1.00
      0.1612778              1.00000000
P    1   1.00
      1.5000000              1.0000000
P    1   1.00
      0.3750000              1.0000000
****
B     0
S    6   1.00
   2068.8823000              0.0018663
    310.6495700              0.0142515
     70.6830330              0.0695516
     19.8610800              0.2325729
      6.2993048              0.4670787
      2.1270270              0.3634314
SP   3   1.00
      4.7279710             -0.1303938              0.0745976
      1.1903377             -0.1307889              0.3078467
      0.3594117              1.1309444              0.7434568
SP   1   1.00
      0.1267512              1.0000000              1.0000000
D    1   1.00
      0.8020000              1.0000000
D    1   1.00
      0.2005000              1.0000000
F    1   1.00
      0.5000000              1.0000000
****
C     0
S    6   1.00
   3047.5249000              0.0018347
    457.3695100              0.0140373
    103.9486900              0.0688426
     29.2101550              0.2321844
      9.2866630              0.4679413
      3.1639270              0.3623120
SP   3   1.00
      7.8682724             -0.1193324              0.0689991
      1.8812885             -0.1608542              0.3164240
      0.5442493              1.1434564              0.7443083
SP   1   1.00
      0.1687144              1.0000000              1.0000000
D    1   1.00
      1.2520000              1.0000000
D    1   1.00
      0.3130000              1.0000000
F    1   1.00
      0.8000000              1.0000000
****
N     0
S    6   1.00
   4173.5110000              0.0018348
    627.4579000              0.0139950
    142.9021000              0.0685870
     40.2343300              0.2322410
     12.8202100              0.4690700
      4.3904370              0.3604550
SP   3   1.00
     11.6263580             -0.1149610              0.0675800
      2.7162800             -0.1691180              0.3239070
      0.7722180              1.1458520              0.7408950
SP   1   1.00
      0.2120313              1.0000000              1.0000000
D    1   1.00
      1.8260000              1.0000000
D    1   1.00
      0.4565000              1.0000000
F    1   1.00
      1.0000000              1.0000000
****
O     0
S    6   1.00
   5484.6717000              0.0018311
    825.2349500              0.0139501
    188.0469600              0.0684451
     52.9645000              0.2327143
     16.8975700              0.4701930
      5.7996353              0.3585209
SP   3   1.00
     15.5396160             -0.1107775              0.0708743
      3.5999336             -0.1480263              0.3397528
      1.0137618              1.1307670              0.7271586
SP   1   1.00
      0.2700058              1.0000000              1.0000000
D    1   1.00
      2.5840000              1.0000000
D    1   1.00
      0.6460000              1.0000000
F    1   1.00
      1.4000000              1.0000000
****
F     0
S    6   1.00
   7001.7130900              0.0018196169
   1051.3660900              0.0139160796
    239.2856900              0.0684053245
     67.3974453              0.233185760
     21.5199573              0.471267439
      7.40310130             0.356618546
SP   3   1.00
     20.8479528             -0.108506975            0.0716287243
      4.80830834            -0.146451658            0.3459121030
      1.34406986             1.128688580            0.7224699570
SP   1   1.00
      0.358151393            1.0000000              1.0000000
D    1   1.00
      3.5000000              1.0000000
D    1   1.00
      0.8750000              1.0000000
F    1   1.00
      1.8500000              1.0000000
****
Al     0
S    6   1.00
  13983.1000000              0.00194267
   2098.7500000              0.0148599
    477.7050000              0.0728494
    134.3600000              0.2468300
     42.8709000              0.4872580
     14.5189000              0.3234960
SP   6   1.00
    239.6680000             -0.00292619             0.00460285
     57.4419000             -0.0374080              0.0331990
     18.2859000             -0.1144870              0.1362820
      6.5991400              0.1156350              0.3304760
      2.4904900              0.6125950              0.4491460
      0.9445400              0.3937990              0.2657040
SP   3   1.00
      1.2779000             -0.2276060             -0.0175130
      0.3975900              0.00144583             0.2445330
      0.1600950              1.0927900              0.8049340
SP   1   1.00
      0.0556577              1.0000000              1.0000000
D    1   1.00
      0.6500000              1.0000000
D    1   1.00
      0.1625000              1.0000000
F    1   1.00
      0.2500000              1.0000000
****
Si     0
S    6   1.00
  16115.9000000              0.00195948
   2425.5800000              0.01492880
    553.8670000              0.07284780
    156.3400000              0.24613000
     50.0683000              0.48591400
     17.0178000              0.32500200
SP   6   1.00
    292.7180000             -0.00278094             0.00443826
     69.8731000             -0.03571460             0.03266790
     22.3363000             -0.11498500             0.13472100
      8.1503900              0.09356340             0.32867800
      3.1345800              0.60301700             0.44964000
      1.2254300              0.41895900             0.26137200
SP   3   1.00
      1.7273800             -0.24463000            -0.01779510
      0.5729220              0.00431572             0.25353900
      0.2221920              1.09818000             0.80066900
SP   1   1.00
      0.0778369              1.00000000             1.00000000
D    1   1.00
      0.9000000              1.0000000
D    1   1.00
      0.2250000              1.0000000
F    1   1.00
      0.3200000              1.0000000
****
P     0
S    6   1.00
  19413.3000000              0.0018516
   2909.4200000              0.0142062
    661.3640000              0.0699995
    185.7590000              0.2400790
     59.1943000              0.4847620
     20.0310000              0.3352000
SP   6   1.00
    339.4780000             -0.00278217             0.00456462
     81.0101000             -0.0360499              0.03369360
     25.8780000             -0.1166310              0.13975500
      9.4522100              0.0968328              0.33936200
      3.6656600              0.6144180              0.45092100
      1.4674600              0.4037980              0.23858600
SP   3   1.00
      2.1562300             -0.2529230             -0.01776530
      0.7489970              0.0328517              0.27405800
      0.2831450              1.0812500              0.78542100
SP   1   1.00
      0.0998317              1.0000000              1.00000000
D    1   1.00
      1.1000000              1.0000000
D    1   1.00
      0.2750000              1.0000000
F    1   1.00
      0.4500000              1.0000000
****
S     0
S    6   1.00
  21917.1000000              0.0018690
   3301.4900000              0.0142300
    754.1460000              0.0696960
    212.7110000              0.2384870
     67.9896000              0.4833070
     23.0515000              0.3380740
SP   6   1.00
    423.7350000             -0.0023767              0.0040610
    100.7100000             -0.0316930              0.0306810
     32.1599000             -0.1133170              0.1304520
     11.8079000              0.0560900              0.3272050
      4.6311000              0.5922550              0.4528510
      1.8702500              0.4550060              0.2560420
SP   3   1.00
      2.6158400             -0.2503740             -0.0145110
      0.9221670              0.0669570              0.3102630
      0.3412870              1.0545100              0.7544830
SP   1   1.00
      0.1171670              1.0000000              1.0000000
D    1   1.00
      1.3000000              1.0000000
D    1   1.00
      0.3250000              1.0000000
F    1   1.00
      0.5500000              1.0000000
****
Cl     0
S    6   1.00
  25180.1000000              0.0018330
   3780.3500000              0.0140340
    860.4740000              0.0690970
    242.1450000              0.2374520
     77.3349000              0.4830340
     26.2470000              0.3398560
SP   6   1.00
    491.7650000             -0.0022974              0.0039894
    116.9840000             -0.0307140              0.0303180
     37.4153000             -0.1125280              0.1298800
     13.7834000              0.0450160              0.3279510
      5.4521500              0.5893530              0.4535270
      2.2258800              0.4652060              0.2521540
SP   3   1.00
      3.1864900             -0.2518300             -0.0142990
      1.1442700              0.0615890              0.3235720
      0.4203770              1.0601800              0.7435070
SP   1   1.00
      0.1426570              1.0000000              1.0000000
D    1   1.00
      1.5000000              1.0000000
D    1   1.00
      0.3750000              1.0000000
F    1   1.00
      0.7000000              1.0000000
****
}


set {
reference rhf                          
freeze_core true
e_convergence 10                       
d_convergence 10                      
dft_spherical_points 1202
dft_radial_points 99
}

e = energy('b3lyp')

print_out('Grab this energy {0}'.format(e))
--------------------------------------------------------------------------

  Memory set to  13.039 GiB by Python driver.

Scratch directory: /tmp/

*** tstart() called on n059
*** at Tue Nov 16 15:21:03 2021

   => Loading Basis Set <=

    Name: ANONYMOUSE30F5E71
    Role: ORBITAL
    Keyword: BASIS
    atoms 1   entry S          line   216 inputblock 6-31g_2dfp_ 
    atoms 2-3 entry C          line    48 inputblock 6-31g_2dfp_ 
    atoms 4-9 entry H          line    15 inputblock 6-31g_2dfp_ 


         ---------------------------------------------------------
                                   SCF
               by Justin Turney, Rob Parrish, Andy Simmonett
                          and Daniel G. A. Smith
                              RKS Reference
                        4 Threads,  13351 MiB Core
         ---------------------------------------------------------

  ==> Geometry <==

    Molecular point group: c1
    Full point group: C1

    Geometry (in Bohr), charge = 0, multiplicity = 1:

       Center              X                  Y                   Z               Mass       
    ------------   -----------------  -----------------  -----------------  -----------------
         S           -1.944075985467     0.321420308644     0.000092683008    31.972071174400
         C            1.115330123633    -1.290610675156     0.000920036708    12.000000000000
         C            3.198797158633     0.696867229944    -0.000645728592    12.000000000000
         H           -3.385780216767    -1.756851629956    -0.001392518492     1.007825032230
         H            1.247645729733    -2.479204115156     1.673622661108     1.007825032230
         H            1.253474783033    -2.486261438156    -1.675551473492     1.007825032230
         H            5.053628332733    -0.207622541456    -0.004016755392     1.007825032230
         H            3.069168251633     1.899809519144     1.671421169608     1.007825032230
         H            3.067827008633     1.903048081644    -1.670289483192     1.007825032230

  Running in c1 symmetry.

  Rotational constants: A =      0.95156  B =      0.18284  C =      0.16272 [cm^-1]
  Rotational constants: A =  28527.03173  B =   5481.29926  C =   4878.21545 [MHz]
  Nuclear repulsion =  107.516907840013474

  Charge       = 0
  Multiplicity = 1
  Electrons    = 34
  Nalpha       = 17
  Nbeta        = 17

  ==> Algorithm <==

  SCF Algorithm Type is DF.
  DIIS enabled.
  MOM disabled.
  Fractional occupation disabled.
  Guess Type is SAD.
  Energy threshold   = 1.00e-10
  Density threshold  = 1.00e-10
  Integral threshold = 0.00e+00

  ==> Primary Basis <==

  Basis Set: ANONYMOUSE30F5E71
    Blend: 6-31G_2DFP_
    Number of shells: 50
    Number of basis function: 130
    Number of Cartesian functions: 145
    Spherical Harmonics?: true
    Max angular momentum: 3

  ==> DFT Potential <==

   => Composite Functional: B3LYP <= 

    B3LYP Hyb-GGA Exchange-Correlation Functional

    P. J. Stephens, F. J. Devlin, C. F. Chabalowski, and M. J. Frisch, J. Phys. Chem. 98, 11623 (1994)

    Deriv               =              1
    GGA                 =           TRUE
    Meta                =          FALSE

    Exchange Hybrid     =           TRUE
    MP2 Hybrid          =          FALSE

   => Exchange Functionals <=

    0.0800   Slater exchange
    0.7200         Becke 88

   => Exact (HF) Exchange <=

    0.2000               HF 

   => Correlation Functionals <=

    0.1900   Vosko, Wilk & Nusair (VWN5_RPA)
    0.8100   Lee, Yang & Parr

   => Molecular Quadrature <=

    Radial Scheme          =       TREUTLER
    Pruning Scheme         =           NONE
    Nuclear Scheme         =       TREUTLER

    BS radius alpha        =              1
    Pruning alpha          =              1
    Radial Points          =             99
    Spherical Points       =           1202
    Total Points           =        1008125
    Total Blocks           =           6814
    Max Points             =            256
    Max Functions          =            129
    Weights Tolerance      =       1.00E-15

   => Loading Basis Set <=

    Name: (ANONYMOUSE30F5E71 AUX)
    Role: JKFIT
    Keyword: DF_BASIS_SCF
    atoms 1   entry S          line   903 file /opt/psi/4/master/share/psi4/basis/def2-universal-jkfit.gbs 
    atoms 2-3 entry C          line   198 file /opt/psi/4/master/share/psi4/basis/def2-universal-jkfit.gbs 
    atoms 4-9 entry H          line    18 file /opt/psi/4/master/share/psi4/basis/def2-universal-jkfit.gbs 

  ==> Integral Setup <==

  DFHelper Memory: AOs need 0.053 GiB; user supplied 6.638 GiB. Using in-core AOs.

  ==> MemDFJK: Density-Fitted J/K Matrices <==

    J tasked:                   Yes
    K tasked:                   Yes
    wK tasked:                   No
    OpenMP threads:               4
    Memory [MiB]:              6797
    Algorithm:                 Core
    Schwarz Cutoff:           1E-12
    Mask sparsity (%):       1.1598
    Fitting Condition:        1E-10

   => Auxiliary Basis Set <=

  Basis Set: (ANONYMOUSE30F5E71 AUX)
    Blend: DEF2-UNIVERSAL-JKFIT
    Number of shells: 124
    Number of basis function: 386
    Number of Cartesian functions: 453
    Spherical Harmonics?: true
    Max angular momentum: 4

  Cached 100.0% of DFT collocation blocks in 3.141 [GiB].

  Minimum eigenvalue in the overlap matrix is 2.0309615933E-03.
  Reciprocal condition number of the overlap matrix is 3.5061459596E-04.
    Using symmetric orthogonalization.

  ==> Pre-Iterations <==

  SCF Guess: Superposition of Atomic Densities via on-the-fly atomic UHF (no occupation information).

   -------------------------
    Irrep   Nso     Nmo    
   -------------------------
     A        130     130 
   -------------------------
    Total     130     130
   -------------------------

  ==> Iterations <==

                           Total Energy        Delta E     RMS |[F,P]|

   @DF-RKS iter SAD:  -477.56737664668856   -4.77567e+02   0.00000e+00 
   @DF-RKS iter   1:  -477.80276156933962   -2.35385e-01   4.88967e-03 DIIS
   @DF-RKS iter   2:  -477.68051450788136    1.22247e-01   5.99220e-03 DIIS
   @DF-RKS iter   3:  -478.02292827977675   -3.42414e-01   6.83416e-04 DIIS
   @DF-RKS iter   4:  -478.02711604789761   -4.18777e-03   2.08445e-04 DIIS
   @DF-RKS iter   5:  -478.02747556455910   -3.59517e-04   6.81949e-05 DIIS
   @DF-RKS iter   6:  -478.02751465659730   -3.90920e-05   9.65543e-06 DIIS
   @DF-RKS iter   7:  -478.02751554327034   -8.86673e-07   1.73144e-06 DIIS
   @DF-RKS iter   8:  -478.02751557238281   -2.91125e-08   3.33835e-07 DIIS
   @DF-RKS iter   9:  -478.02751557348535   -1.10253e-09   5.21045e-08 DIIS
   @DF-RKS iter  10:  -478.02751557350882   -2.34763e-11   1.75999e-08 DIIS
   @DF-RKS iter  11:  -478.02751557351189   -3.06954e-12   4.45436e-09 DIIS
   @DF-RKS iter  12:  -478.02751557351144    4.54747e-13   3.75171e-10 DIIS
   @DF-RKS iter  13:  -478.02751557351166   -2.27374e-13   5.95174e-11 DIIS
  Energy and wave function converged.


  ==> Post-Iterations <==

    Orbital Energies [Eh]
    ---------------------

    Doubly Occupied:                                                      

       1A    -88.856195     2A    -10.213304     3A    -10.181729  
       4A     -7.928659     5A     -5.892875     6A     -5.889573  
       7A     -5.883540     8A     -0.799790     9A     -0.702168  
      10A     -0.601183    11A     -0.461155    12A     -0.457998  
      13A     -0.390831    14A     -0.364646    15A     -0.363814  
      16A     -0.323946    17A     -0.234665  

    Virtual:                                                              

      18A      0.027609    19A      0.078540    20A      0.100585  
      21A      0.131743    22A      0.132977    23A      0.158089  
      24A      0.165212    25A      0.193865    26A      0.310721  
      27A      0.325245    28A      0.343356    29A      0.344670  
      30A      0.354903    31A      0.371317    32A      0.377724  
      33A      0.429908    34A      0.433911    35A      0.472678  
      36A      0.527050    37A      0.531148    38A      0.540982  
      39A      0.548013    40A      0.598037    41A      0.610946  
      42A      0.613442    43A      0.628752    44A      0.651669  
      45A      0.712397    46A      0.736373    47A      0.789130  
      48A      0.806514    49A      0.852374    50A      0.862723  
      51A      0.876685    52A      0.914158    53A      1.001306  
      54A      1.060021    55A      1.075025    56A      1.127551  
      57A      1.146110    58A      1.171430    59A      1.229962  
      60A      1.261802    61A      1.275975    62A      1.309609  
      63A      1.346917    64A      1.379259    65A      1.390860  
      66A      1.395557    67A      1.436813    68A      1.446361  
      69A      1.461159    70A      1.464575    71A      1.578650  
      72A      1.655290    73A      1.728888    74A      1.780934  
      75A      1.795155    76A      1.805624    77A      1.812779  
      78A      1.883206    79A      1.916292    80A      2.002014  
      81A      2.005619    82A      2.083327    83A      2.160631  
      84A      2.298021    85A      2.377506    86A      2.379816  
      87A      2.414650    88A      2.501162    89A      2.779914  
      90A      2.832116    91A      2.877358    92A      2.903660  
      93A      2.938293    94A      3.031891    95A      3.050068  
      96A      3.165044    97A      3.168066    98A      3.247122  
      99A      3.284358   100A      3.321462   101A      3.463888  
     102A      3.476097   103A      3.543002   104A      3.554617  
     105A      3.575884   106A      3.657364   107A      3.663168  
     108A      3.718902   109A      3.790551   110A      3.907597  
     111A      3.922018   112A      3.940241   113A      4.065239  
     114A      4.074094   115A      4.164842   116A      4.184151  
     117A      4.233947   118A      4.252520   119A      4.284473  
     120A      4.412243   121A      4.421750   122A      4.492080  
     123A      4.504761   124A      4.532938   125A      4.583241  
     126A      4.940897   127A      5.066959   128A      5.197168  
     129A      5.264889   130A      5.311898  

    Final Occupation by Irrep:
              A 
    DOCC [    17 ]

  @DF-RKS Final Energy:  -478.02751557351166

   => Energetics <=

    Nuclear Repulsion Energy =            107.5169078400134737
    One-Electron Energy =                -869.6461496749345770
    Two-Electron Energy =                 315.4162402985945164
    DFT Exchange-Correlation Energy =     -31.3145140371850381
    Empirical Dispersion Energy =           0.0000000000000000
    VV10 Nonlocal Energy =                  0.0000000000000000
    Total Energy =                       -478.0275155735116641

Computation Completed


Properties will be evaluated at   0.000000,   0.000000,   0.000000 [a0]

Properties computed using the SCF density matrix

  Nuclear Dipole Moment: [e a0]
     X:     5.0855      Y:    -1.5468      Z:    -0.0031

  Electronic Dipole Moment: [e a0]
     X:    -4.6667      Y:     1.0575      Z:     0.0036

  Dipole Moment: [e a0]
     X:     0.4188      Y:    -0.4893      Z:     0.0005     Total:     0.6441

  Dipole Moment: [D]
     X:     1.0646      Y:    -1.2438      Z:     0.0014     Total:     1.6372


*** tstop() called on n059 at Tue Nov 16 15:21:20 2021
Module time:
	user time   =      66.48 seconds =       1.11 minutes
	system time =       1.09 seconds =       0.02 minutes
	total time  =         17 seconds =       0.28 minutes
Total time:
	user time   =      66.48 seconds =       1.11 minutes
	system time =       1.09 seconds =       0.02 minutes
	total time  =         17 seconds =       0.28 minutes
Grab this energy -478.02751557351166
    Psi4 stopped on: Tuesday, 16 November 2021 03:21PM
    Psi4 wall time for execution: 0:00:17.44

*** Psi4 exiting successfully. Buy a developer a beer!
