
 Primary working directories    : /tmp/943417.301.gen6.q
 Secondary working directories  : /tmp/943417.301.gen6.q
 Wavefunction directory         : /home/vulcan/mel64643/wfu/
 Main file repository           : /tmp/943417.301.gen6.q/

 ARCHNAME  : Linux/x86_64
 FC        : /opt/intel/compilers_and_libraries_2016.1.150/linux/bin/intel64/ifort
 FCVERSION : 16.0.1
 BLASLIB   : -mkl
 id        : ccgc

 Nodes     nprocs
 n091         1
 ga_uses_ma=false, calling ma_init with nominal heap.
 GA-space will be limited to   8.0 MW (determined by -G option)

 Using customized tuning parameters: mindgm=10; mindgv=16; mindgc=4; mindgr=1; noblas=0; mincuda=1000; minvec=7
 default implementation of scratch files=df  

 ***,Optimization of nh3_nitrosmethane
 memory,1000,m
 gthresh,energy=1.0d-12,orbital=1.0d-10,oneint=1.0d-16,twoint=1.0d-16,optgrad=1.0d-6,compress=1.0d-13
 geomtyp=xyz
 
 bohr
 geometry = {
  N   -5.2222510144   -0.1834248949    0.0008934280
  H   -6.3048215280    0.2271360377   -1.5288179762
  H   -3.7569885833    1.0585707649   -0.0023000648
  H   -6.3030636898    0.2329279462    1.5302823413
  H   -0.9238612277   -2.3991517995   -0.0039448004
  H    1.8815246143   -3.4297931588   -1.6637228354
  H    1.8842859932   -3.4388903385    1.6696542466
  C    1.1366365676   -2.4699082916   -0.0025456646
  N    2.2679237796    0.0975508022    0.0001715989
  O    0.7047335785    1.7820399414    0.0003297267
 }
 
 basis=cc-pvdz
 {rhf;maxit,200}
 {ccsd(t);maxit,200}

 Variables initialized (661), CPU time= 0.01 sec
 Commands  initialized (458), CPU time= 0.00 sec, 486 directives.
 Default parameters read. Elapsed time= 0.04 sec

 Checking input...
 Passed
1


                                         ***  PROGRAM SYSTEM MOLPRO  ***
                         Copyright, University College Cardiff Consultants Limited, 2008

                                    Version 2010.1 linked May 16 2016 07:17:05


 **********************************************************************************************************************************
 LABEL *   Optimization of nh3_nitrosmethane                                             
 Linux-4.4.3/n091(x86_64) 64 bit mpp version                                             DATE: 25-Oct-23          TIME: 17:02:33  
 **********************************************************************************************************************************

 SHA1:             9e8077add272b0f3cad6f7df79ec5211205f459d
 **********************************************************************************************************************************

 THRESHOLDS:

 ZERO    =  1.00D-12  ONEINT  =  1.00D-16  TWOINT  =  1.00D-16  PREFAC  =  1.00D-14  LOCALI  =  1.00D-09  EORDER  =  1.00D-04
 ENERGY  =  1.00D-12  ETEST   =  0.00D+00  EDENS   =  0.00D+00  THRDEDEF=  1.00D-06  GRADIENT=  1.00D-02  STEP    =  1.00D-03
 ORBITAL =  1.00D-10  CIVEC   =  1.00D-05  COEFF   =  1.00D-04  PRINTCI =  5.00D-02  PUNCHCI =  9.90D+01  OPTGRAD =  1.00D-06
 OPTENERG=  1.00D-06  OPTSTEP =  3.00D-04  THRGRAD =  1.00D-10  COMPRESS=  1.00D-13  VARMIN  =  1.00D-07  VARMAX  =  1.00D-03
 THRDOUB =  0.00D+00  THRDIV  =  1.00D-05  THRRED  =  1.00D-07  THRPSP  =  1.00D+00  THRDC   =  1.00D-10  THRCS   =  1.00D-10
 THRNRM  =  1.00D-08  THREQ   =  0.00D+00  THRDE   =  1.00D+00  THRREF  =  1.00D-05  SPARFAC =  1.00D+00  THRDLP  =  1.00D-07
 THRDIA  =  1.00D-10  THRDLS  =  1.00D-07  THRGPS  =  0.00D+00  THRKEX  =  0.00D+00  THRDIS  =  2.00D-01  THRVAR  =  1.00D-10
 THRLOC  =  1.00D-06  THRGAP  =  1.00D-06  THRLOCT = -1.00D+00  THRGAPT = -1.00D+00  THRORB  =  1.00D-06  THRMLTP =  0.00D+00
 THRCPQCI=  1.00D-10  KEXTA   =  0.00D+00  THRCOARS=  0.00D+00  SYMTOL  =  1.00D-06  GRADTOL =  1.00D-06  THROVL  =  1.00D-08
 THRORTH =  1.00D-08  GRID    =  1.00D-06  GRIDMAX =  1.00D-03  DTMAX   =  0.00D+00

 SETTING GEOMTYP        =    XYZ
 ZUNIT=BOHR
 

 Variable memory set to 1000000000 words,  buffer space   230000 words

 SETTING BASIS          =    CC-PVDZ


 Recomputing integrals since basis changed


 Using spherical harmonics

 Library entry N      S cc-pVDZ              selected for orbital group  1
 Library entry N      P cc-pVDZ              selected for orbital group  1
 Library entry N      D cc-pVDZ              selected for orbital group  1
 Library entry H      S cc-pVDZ              selected for orbital group  2
 Library entry H      P cc-pVDZ              selected for orbital group  2
 Library entry C      S cc-pVDZ              selected for orbital group  3
 Library entry C      P cc-pVDZ              selected for orbital group  3
 Library entry C      D cc-pVDZ              selected for orbital group  3
 Library entry O      S cc-pVDZ              selected for orbital group  5
 Library entry O      P cc-pVDZ              selected for orbital group  5
 Library entry O      D cc-pVDZ              selected for orbital group  5

1PROGRAM * SEWARD (Integral evaluation for generally contracted gaussian basis sets)     Author: Roland Lindh, 1990

 Geometry written to block  1 of record 700


 Point group  C1  



 ATOMIC COORDINATES

 NR  ATOM    CHARGE       X              Y              Z

   1  N       7.00   -5.222251014   -0.183424895    0.000893428
   2  H       1.00   -6.304821528    0.227136038   -1.528817976
   3  H       1.00   -3.756988583    1.058570765   -0.002300065
   4  H       1.00   -6.303063690    0.232927946    1.530282341
   5  H       1.00   -0.923861228   -2.399151799   -0.003944800
   6  H       1.00    1.881524614   -3.429793159   -1.663722835
   7  H       1.00    1.884285993   -3.438890338    1.669654247
   8  C       6.00    1.136636568   -2.469908292   -0.002545665
   9  N       7.00    2.267923780    0.097550802    0.000171599
  10  O       8.00    0.704733578    1.782039941    0.000329727

 Bond lengths in Bohr (Angstrom)

 1-2  1.918472355  1-3  1.920822066  1-4  1.918472355  5-8  2.061712784  6-8  2.058092989
     ( 1.015211846)     ( 1.016455260)     ( 1.015211846)     ( 1.091011417)     ( 1.089095904)

  7- 8  2.072235125   8- 9  2.805648648   9-10  2.298057286
       ( 1.096579600)       ( 1.484685321)       ( 1.216079541)

 Bond angles

  2-1-3  106.90324190   2-1-4  105.74163994   3-1-4  106.90324183   5-8-6  112.15889784

  5-8-7  112.15889789   5-8-9  111.81278754   6-8-7  107.61735051   6-8-9  106.35838668

  7- 8- 9  106.35838671   8- 9-10  113.35946297

 NUCLEAR CHARGE:                   34
 NUMBER OF PRIMITIVE AOS:         150
 NUMBER OF SYMMETRY AOS:          146
 NUMBER OF CONTRACTIONS:           86   (  86A   )
 NUMBER OF CORE ORBITALS:           4   (   4A   )
 NUMBER OF VALENCE ORBITALS:       22   (  22A   )


 NUCLEAR REPULSION ENERGY  117.38458428


 Eigenvalues of metric

         1 0.629E-02 0.972E-02 0.151E-01 0.180E-01 0.298E-01 0.370E-01 0.392E-01 0.408E-01


 Contracted 2-electron integrals neglected if value below      1.0D-16
 AO integral compression algorithm  1   Integral accuracy      1.0D-16

     52.429 MB (compressed) written to integral file ( 81.7%)

     Node minimum: 52.429 MB, node maximum: 52.429 MB


 NUMBER OF SORTED TWO-ELECTRON INTEGRALS:    6999411.     BUFFER LENGTH:  32768
 NUMBER OF SEGMENTS:   1  SEGMENT LENGTH:    6999411      RECORD LENGTH: 524288

 Memory used in sort:       7.56 MW

 SORT1 READ     8003965. AND WROTE     6868488. INTEGRALS IN     20 RECORDS. CPU TIME:     0.07 SEC, REAL TIME:     0.11 SEC
 SORT2 READ     6868488. AND WROTE     6999411. INTEGRALS IN    200 RECORDS. CPU TIME:     0.08 SEC, REAL TIME:     0.11 SEC

 FILE SIZES:   FILE 1:    48.2 MBYTE,  FILE 4:    83.9 MBYTE,   TOTAL:    132.1 MBYTE

 OPERATOR DM      FOR CENTER  0  COORDINATES:    0.000000    0.000000    0.000000


 **********************************************************************************************************************************
 DATASETS  * FILE   NREC   LENGTH (MB)   RECORD NAMES
              1      19       48.30       500      610      700      900      950      970     1000      129      960     1100   
                                          VAR    BASINP    GEOM    SYMINP    ZMAT    AOBASIS   BASIS     P2S    ABASIS      S 
                                         1400     1410     1200     1210     1080     1600     1650     1300     1700   
                                           T        V       H0       H01     AOSYM     SMH    MOLCAS    ERIS     OPER   

 PROGRAMS   *        TOTAL       INT
 CPU TIMES  *         0.77      0.73
 REAL TIME  *         1.04 SEC
 DISK USED  *       185.33 MB      
 GA USED    *         0.00 MB       (max)       0.00 MB       (current)
 **********************************************************************************************************************************

1PROGRAM * RHF-SCF (CLOSED SHELL)       Authors: W. Meyer, H.-J. Werner


 NUMBER OF ELECTRONS:      17+   17-    SPACE SYMMETRY=1    SPIN SYMMETRY: Singlet 
 CONVERGENCE THRESHOLDS:    1.00E-10 (Density)    1.00E-13 (Energy)
 MAX. NUMBER OF ITERATIONS:      200
 INTERPOLATION TYPE:            DIIS
 INTERPOLATION STEPS:              2 (START)      1 (STEP)
 LEVEL SHIFTS:                  0.00 (CLOSED)  0.00 (OPEN) 



 Orbital guess generated from atomic densities. Full valence occupancy:   26

 Molecular orbital dump at record        2100.2

 ITERATION    DDIFF          GRAD             ENERGY        2-EL.EN.            DIPOLE MOMENTS         DIIS
    1      0.000D+00      0.000D+00      -224.94596882    393.785531    0.09933   -0.57219    0.00148    0
    2      0.000D+00      0.101D-01      -225.00725680    393.235268   -0.59369   -0.30337   -0.00173    1
    3      0.189D-01      0.693D-02      -225.03992385    393.752275   -0.25164   -0.51519   -0.00203    2
    4      0.825D-02      0.139D-02      -225.04208641    393.643624   -0.33061   -0.42352   -0.00236    3
    5      0.216D-02      0.531D-03      -225.04246316    393.639524   -0.33186   -0.45010   -0.00258    4
    6      0.908D-03      0.129D-03      -225.04249969    393.661838   -0.33674   -0.44830   -0.00264    5
    7      0.304D-03      0.512D-04      -225.04250549    393.649629   -0.33834   -0.44852   -0.00265    6
    8      0.124D-03      0.198D-04      -225.04250634    393.655196   -0.33912   -0.44850   -0.00265    7
    9      0.433D-04      0.826D-05      -225.04250652    393.653855   -0.33930   -0.44819   -0.00265    8
   10      0.225D-04      0.230D-05      -225.04250653    393.653677   -0.33936   -0.44803   -0.00264    8
   11      0.659D-05      0.695D-06      -225.04250653    393.653728   -0.33937   -0.44796   -0.00264    8
   12      0.187D-05      0.222D-06      -225.04250653    393.653691   -0.33938   -0.44794   -0.00264    8
   13      0.757D-06      0.720D-07      -225.04250653    393.653685   -0.33938   -0.44794   -0.00264    8
   14      0.184D-06      0.377D-07      -225.04250653    393.653686   -0.33938   -0.44794   -0.00264    8
   15      0.989D-07      0.141D-07      -225.04250653    393.653687   -0.33938   -0.44794   -0.00264    8
   16      0.326D-07      0.104D-07      -225.04250653    393.653686   -0.33938   -0.44794   -0.00264    8
   17      0.487D-07      0.669D-08      -225.04250653    393.653687   -0.33938   -0.44794   -0.00264    8
   18      0.623D-07      0.179D-08      -225.04250653    393.653686   -0.33938   -0.44794   -0.00264    9
   19      0.145D-07      0.539D-09      -225.04250653    393.653687   -0.33938   -0.44794   -0.00264    9
   20      0.216D-08      0.158D-09      -225.04250653    393.653686   -0.33938   -0.44794   -0.00264    9
   21      0.437D-09      0.384D-10      -225.04250653    393.653686   -0.33938   -0.44794   -0.00264    9
   22      0.112D-09      0.121D-10      -225.04250653    393.653686   -0.33938   -0.44794   -0.00264    9
   23      0.282D-10      0.523D-11      -225.04250653    393.653686   -0.33938   -0.44794   -0.00264    9
   24      0.129D-10      0.224D-11      -225.04250653    393.653686   -0.33938   -0.44794   -0.00264    8
   25      0.527D-11      0.110D-11      -225.04250653    393.653686   -0.33938   -0.44794   -0.00264    8
   26      0.257D-11      0.419D-12      -225.04250653    393.653686   -0.33938   -0.44794   -0.00264    0

 Final occupancy:  17

 !RHF STATE 1.1 Energy               -225.042506532842
 Nuclear energy                       117.38458428
 One-electron energy                 -539.25393406
 Two-electron energy                  196.82684324
 Virial quotient                       -1.00156575
 !RHF STATE 1.1 Dipole moment          -0.33937713    -0.44793965    -0.00264291
 Dipole moment /Debye                  -0.86255412    -1.13847445    -0.00671718

 Orbital energies:

         1.1          2.1          3.1          4.1          5.1          6.1          7.1          8.1          9.1         10.1
    -20.626064   -15.699106   -15.537294   -11.265814    -1.506769    -1.130663    -1.070096    -0.855417    -0.684709    -0.667655

        11.1         12.1         13.1         14.1         15.1         16.1         17.1         18.1         19.1
     -0.630900    -0.614793    -0.613970    -0.550683    -0.527794    -0.420137    -0.398261     0.109498     0.187019


 **********************************************************************************************************************************
 DATASETS  * FILE   NREC   LENGTH (MB)   RECORD NAMES
              1      19       48.30       500      610      700      900      950      970     1000      129      960     1100   
                                          VAR    BASINP    GEOM    SYMINP    ZMAT    AOBASIS   BASIS     P2S    ABASIS      S 
                                         1400     1410     1200     1210     1080     1600     1650     1300     1700   
                                           T        V       H0       H01     AOSYM     SMH    MOLCAS    ERIS     OPER   

              2       3        0.57       700     1000     2100   
                                         GEOM     BASIS     RHF  

 PROGRAMS   *        TOTAL       RHF       INT
 CPU TIMES  *         1.99      1.22      0.73
 REAL TIME  *         2.41 SEC
 DISK USED  *       185.33 MB      
 GA USED    *         0.00 MB       (max)       0.00 MB       (current)
 **********************************************************************************************************************************


1PROGRAM * CCSD (Closed-shell coupled cluster)     Authors: C. Hampel, H.-J. Werner, 1991, M. Deegan, P.J. Knowles, 1992


 Convergence thresholds:  THRVAR = 1.00D-08  THRDEN = 1.00D-12

 CCSD(T)     terms to be evaluated (factor= 1.000)


 Number of core orbitals:           4 (   4 )
 Number of closed-shell orbitals:  13 (  13 )
 Number of external orbitals:      69 (  69 )

 Molecular orbitals read from record     2100.2  Type=RHF/CANONICAL (state 1.1)

 Number of N-1 electron functions:              13
 Number of N-2 electron functions:              91
 Number of singly external CSFs:               897
 Number of doubly external CSFs:            402753
 Total number of CSFs:                      403651

 Length of J-op  integral file:               0.00 MB
 Length of K-op  integral file:               0.54 MB
 Length of 3-ext integral record:             0.00 MB

 Memory could be reduced to 6.46 Mwords without degradation in triples

 Integral transformation finished. Total CPU:   0.25 sec, npass=  1  Memory used:   5.81 MW

 Reference energy:                   -225.04250653

 MP2 singlet pair energy:              -0.42990131
 MP2 triplet pair energy:              -0.25005660
 MP2 correlation energy:               -0.67995792
 MP2 total energy:                   -225.72246445

 SCS-MP2 correlation energy:           -0.67147235   (PS=  1.200000  PT=  0.333333)
 SCS-MP2 total energy:               -225.71397889

 ITER.      SQ.NORM     CORR.ENERGY   TOTAL ENERGY   ENERGY CHANGE        DEN1      VAR(S)    VAR(P)  DIIS     TIME
   1      1.22681110    -0.71575088  -225.75825742    -0.03579297    -0.01324036  0.44D-02  0.46D-02  1  1     0.92
   2      1.24749400    -0.71906156  -225.76156810    -0.00331068    -0.02058357  0.13D-03  0.82D-03  2  2     1.60
   3      1.25646394    -0.71974952  -225.76225605    -0.00068795    -0.00431117  0.10D-03  0.59D-04  3  3     2.28
   4      1.26019043    -0.71974042  -225.76224695     0.00000910    -0.00126902  0.77D-05  0.10D-04  4  4     2.97
   5      1.26162382    -0.71976007  -225.76226660    -0.00001965    -0.00032493  0.14D-05  0.17D-05  5  5     3.66
   6      1.26202322    -0.71973240  -225.76223894     0.00002767    -0.00004700  0.78D-07  0.36D-06  6  6     4.34
   7      1.26211363    -0.71973057  -225.76223710     0.00000183    -0.00000209  0.20D-07  0.96D-07  6  2     5.03
   8      1.26213605    -0.71973065  -225.76223718    -0.00000008     0.00000226  0.86D-08  0.24D-07  6  5     5.72
   9      1.26213128    -0.71973151  -225.76223804    -0.00000087     0.00000162  0.17D-08  0.27D-08  6  1     6.41
  10      1.26213122    -0.71973178  -225.76223831    -0.00000027    -0.00000145  0.40D-09  0.30D-09  6  3     7.09
  11      1.26212971    -0.71973204  -225.76223858    -0.00000027     0.00000088  0.79D-10  0.49D-10  6  4     7.78
  12      1.26212898    -0.71973211  -225.76223864    -0.00000006     0.00000022  0.20D-10  0.11D-10  6  6     8.46
  13      1.26212824    -0.71973214  -225.76223868    -0.00000003     0.00000017  0.42D-11  0.18D-11  6  2     9.15
  14      1.26212787    -0.71973216  -225.76223870    -0.00000002     0.00000012  0.12D-11  0.52D-12  6  1     9.84
  15      1.26212759    -0.71973217  -225.76223870    -0.00000001     0.00000005  0.44D-12  0.10D-12  6  5    10.52
  16      1.26212753    -0.71973217  -225.76223871    -0.00000000     0.00000001  0.30D-12  0.52D-13  6  3    11.21
  17      1.26212748    -0.71973218  -225.76223871    -0.00000000     0.00000001  0.17D-12  0.24D-13  6  4    11.90
  18      1.26212747    -0.71973218  -225.76223871    -0.00000000    -0.00000000  0.82D-13  0.11D-13  6  6    12.58
  19      1.26212748    -0.71973218  -225.76223871     0.00000000    -0.00000000  0.19D-13  0.48D-14  6  2    13.26
  20      1.26212748    -0.71973217  -225.76223871     0.00000000    -0.00000000  0.46D-14  0.24D-14  6  1    13.95
  21      1.26212749    -0.71973217  -225.76223871     0.00000000     0.00000000  0.86D-15  0.99D-15  6  5    14.63
  22      1.26212749    -0.71973217  -225.76223871     0.00000000    -0.00000000  0.11D-15  0.26D-15  6  4    15.32
  23      1.26212750    -0.71973217  -225.76223871     0.00000000    -0.00000000  0.99D-17  0.54D-16  6  3    16.01
  24      1.26212750    -0.71973217  -225.76223871    -0.00000000    -0.00000000  0.41D-17  0.12D-16  6  2    16.69
  25      1.26212750    -0.71973217  -225.76223871     0.00000000    -0.00000000  0.12D-17  0.23D-17  6  6    17.37
  26      1.26212750    -0.71973217  -225.76223871     0.00000000    -0.00000000  0.79D-18  0.50D-18  6  1    18.06
  27      1.26212750    -0.71973217  -225.76223871    -0.00000000     0.00000000  0.36D-18  0.14D-18  6  5    18.74
  28      1.26212750    -0.71973217  -225.76223871    -0.00000000     0.00000000  0.13D-18  0.22D-19  6  4    19.43
  29      1.26212750    -0.71973217  -225.76223871    -0.00000000     0.00000000  0.43D-19  0.10D-19  6  2    20.11

 Norm of t1 vector:      0.10008107      S-energy:    -0.00000000      T1 diagnostic:  0.01387875
                                                                       D1 diagnostic:  0.05075874

 Doubles amplitudes (print threshold =  0.500E-01):

         I         J         SYM. A    SYM. B    A         B      T(IJ, AB)

         7         7         1         1         1         1     -0.06084956
        11         7         1         1         1         1     -0.06595917
        11        11         1         1         1         1     -0.09629798


 Total CPU time for triples:      6.17 sec


 RESULTS
 =======

  Reference energy                   -225.042506532842
  CCSD singlet pair energy             -0.499050800817
  CCSD triplet pair energy             -0.220681373728
  CCSD correlation energy              -0.719732174545

  Triples (T) contribution             -0.021671748000
  Total correlation energy             -0.741403922545

  CCSD total energy                  -225.762238707387
  CCSD[T] energy                     -225.785285209157
  CCSD-T energy                      -225.783507116630
 !CCSD(T) total energy               -225.783910455387

 Timing summary (sec):

 STEP                 CPU(USER)    SYS     CPU(TOT)    WALL
 Transformation          0.26      0.04      0.30      0.30
 CCSD iterations        19.85      0.62     20.47     20.52
 Triples                 6.17      0.15      6.32      6.33

 Program statistics:

 Available memory in ccsd:               999999224
 Min. memory needed in ccsd:               1143606
 Max. memory used in ccsd:                 1480488
 Max. memory used in cckext:               1471436 (29 integral passes)



 **********************************************************************************************************************************
 DATASETS  * FILE   NREC   LENGTH (MB)   RECORD NAMES
              1      20       73.92       500      610      700      900      950      970     1000      129      960     1100   
                                          VAR    BASINP    GEOM    SYMINP    ZMAT    AOBASIS   BASIS     P2S    ABASIS      S 
                                         1400     1410     1200     1210     1080     1600     1650     1300     1700     1380   
                                           T        V       H0       H01     AOSYM     SMH    MOLCAS    ERIS     OPER     JKOP   

              2       3        0.57       700     1000     2100   
                                         GEOM     BASIS     RHF  

 PROGRAMS   *        TOTAL   CCSD(T)       RHF       INT
 CPU TIMES  *        28.29     26.30      1.22      0.73
 REAL TIME  *        29.58 SEC
 DISK USED  *       197.97 MB      
 GA USED    *         0.00 MB       (max)       0.00 MB       (current)
 **********************************************************************************************************************************

        CCSD(T)         RHF-SCF 
   -225.78391046   -225.04250653
 **********************************************************************************************************************************
 Variable memory released
