
 Primary working directories    : /tmp/1047041.256.gen4.q
 Secondary working directories  : /tmp/1047041.256.gen4.q
 Wavefunction directory         : /home/vulcan/mel64643/wfu/
 Main file repository           : /tmp/1047041.256.gen4.q/

 ARCHNAME  : Linux/x86_64
 FC        : /opt/intel/compilers_and_libraries_2016.1.150/linux/bin/intel64/ifort
 FCVERSION : 16.0.1
 BLASLIB   : -mkl
 id        : ccgc

 Nodes     nprocs
 n065         1
 ga_uses_ma=false, calling ma_init with nominal heap.
 GA-space will be limited to   8.0 MW (determined by -G option)

 Using customized tuning parameters: mindgm=10; mindgv=16; mindgc=4; mindgr=1; noblas=0; mincuda=1000; minvec=7
 default implementation of scratch files=df  

 ***,Optimization of ben_hcn
 memory,1000,m
 gthresh,energy=1.0d-12,orbital=1.0d-10,oneint=1.0d-16,twoint=1.0d-16,optgrad=1.0d-6,compress=1.0d-13
 geomtyp=xyz
 
 
 
 bohr
 geometry = {
  C   -1.8847584274    1.3632723696    2.2796061670
  C   -1.8572832490    2.6955724644   -0.0035381689
  C   -1.8745868942    1.3729991481   -2.2981881213
  C   -1.9192673773   -1.2750645592   -2.2865874815
  C   -1.9465733837   -2.5972145484    0.0022155421
  C   -1.9292373545   -1.2748317917    2.2852172346
  H   -1.8655731088    2.3848180179    4.0545022844
  H   -1.8171063555    4.7431548185    0.0020126144
  H   -1.8474937725    2.3934318475   -4.0736157203
  H   -1.9262907650   -2.3026005734   -4.0580809848
  H   -1.9744564279   -4.6449584297    0.0033968298
  H   -1.9439402258   -2.2954866477    4.0606423201
  N    6.6241467724   -0.1989303360    0.0071717742
  C    4.4344466813   -0.0757645405    0.0098620747
  H    2.4147751351    0.0381263086    0.0124841494
 }
 
 basis=aug-cc-pvdz, H=cc-pvdz
 {rhf;maxit,200}
 {ccsd(t)}

 Variables initialized (661), CPU time= 0.00 sec
 Commands  initialized (458), CPU time= 0.01 sec, 486 directives.
 Default parameters read. Elapsed time= 0.05 sec

 Checking input...
 Passed
1


                                         ***  PROGRAM SYSTEM MOLPRO  ***
                         Copyright, University College Cardiff Consultants Limited, 2008

                                    Version 2010.1 linked May 16 2016 07:17:05


 **********************************************************************************************************************************
 LABEL *   Optimization of ben_hcn                                                       
 Linux-4.4.3/n065(x86_64) 64 bit mpp version                                             DATE: 06-Mar-24          TIME: 23:05:07  
 **********************************************************************************************************************************

 SHA1:             9e8077add272b0f3cad6f7df79ec5211205f459d
 **********************************************************************************************************************************

 THRESHOLDS:

 ZERO    =  1.00D-12  ONEINT  =  1.00D-16  TWOINT  =  1.00D-16  PREFAC  =  1.00D-14  LOCALI  =  1.00D-09  EORDER  =  1.00D-04
 ENERGY  =  1.00D-12  ETEST   =  0.00D+00  EDENS   =  0.00D+00  THRDEDEF=  1.00D-06  GRADIENT=  1.00D-02  STEP    =  1.00D-03
 ORBITAL =  1.00D-10  CIVEC   =  1.00D-05  COEFF   =  1.00D-04  PRINTCI =  5.00D-02  PUNCHCI =  9.90D+01  OPTGRAD =  1.00D-06
 OPTENERG=  1.00D-06  OPTSTEP =  3.00D-04  THRGRAD =  1.00D-10  COMPRESS=  1.00D-13  VARMIN  =  1.00D-07  VARMAX  =  1.00D-03
 THRDOUB =  0.00D+00  THRDIV  =  1.00D-05  THRRED  =  1.00D-07  THRPSP  =  1.00D+00  THRDC   =  1.00D-10  THRCS   =  1.00D-10
 THRNRM  =  1.00D-08  THREQ   =  0.00D+00  THRDE   =  1.00D+00  THRREF  =  1.00D-05  SPARFAC =  1.00D+00  THRDLP  =  1.00D-07
 THRDIA  =  1.00D-10  THRDLS  =  1.00D-07  THRGPS  =  0.00D+00  THRKEX  =  0.00D+00  THRDIS  =  2.00D-01  THRVAR  =  1.00D-10
 THRLOC  =  1.00D-06  THRGAP  =  1.00D-06  THRLOCT = -1.00D+00  THRGAPT = -1.00D+00  THRORB  =  1.00D-06  THRMLTP =  0.00D+00
 THRCPQCI=  1.00D-10  KEXTA   =  0.00D+00  THRCOARS=  0.00D+00  SYMTOL  =  1.00D-06  GRADTOL =  1.00D-06  THROVL  =  1.00D-08
 THRORTH =  1.00D-08  GRID    =  1.00D-06  GRIDMAX =  1.00D-03  DTMAX   =  0.00D+00

 SETTING GEOMTYP        =    XYZ
 ZUNIT=BOHR
 

 Variable memory set to 1000000000 words,  buffer space   230000 words

 SETTING BASIS          =    AUG-CC-PVDZ,H=CC-PVDZ


 Recomputing integrals since basis changed


 Using spherical harmonics

 Library entry C      S aug-cc-pVDZ          selected for orbital group  1
 Library entry C      P aug-cc-pVDZ          selected for orbital group  1
 Library entry C      D aug-cc-pVDZ          selected for orbital group  1
 Library entry H      S cc-pVDZ              selected for orbital group  2
 Library entry H      P cc-pVDZ              selected for orbital group  2
 Library entry N      S aug-cc-pVDZ          selected for orbital group  3
 Library entry N      P aug-cc-pVDZ          selected for orbital group  3
 Library entry N      D aug-cc-pVDZ          selected for orbital group  3

1PROGRAM * SEWARD (Integral evaluation for generally contracted gaussian basis sets)     Author: Roland Lindh, 1990

 Geometry written to block  1 of record 700


 Point group  C1  



 ATOMIC COORDINATES

 NR  ATOM    CHARGE       X              Y              Z

   1  C       6.00   -1.884758427    1.363272370    2.279606167
   2  C       6.00   -1.857283249    2.695572464   -0.003538169
   3  C       6.00   -1.874586894    1.372999148   -2.298188121
   4  C       6.00   -1.919267377   -1.275064559   -2.286587481
   5  C       6.00   -1.946573384   -2.597214548    0.002215542
   6  C       6.00   -1.929237354   -1.274831792    2.285217235
   7  H       1.00   -1.865573109    2.384818018    4.054502284
   8  H       1.00   -1.817106355    4.743154818    0.002012614
   9  H       1.00   -1.847493773    2.393431848   -4.073615720
  10  H       1.00   -1.926290765   -2.302600573   -4.058080985
  11  H       1.00   -1.974456428   -4.644958430    0.003396830
  12  H       1.00   -1.943940226   -2.295486648    4.060642320
  13  N       7.00    6.624146772   -0.198930336    0.007171774
  14  C       6.00    4.434446681   -0.075764541    0.009862075
  15  H       1.00    2.414775135    0.038126309    0.012484149

 Bond lengths in Bohr (Angstrom)

 1-2  2.643582132  1-6  2.638485062  1-7  2.047969681  2-3  2.648569047  2-8  2.047984006
     ( 1.398923414)     ( 1.396226161)     ( 1.083738880)     ( 1.401562376)     ( 1.083746461)

  3- 4  2.648466031   3- 9  2.047964866   4- 5  2.643377667   4-10  2.047942582   5- 6  2.638388414
       ( 1.401507863)       ( 1.083736332)       ( 1.398815216)       ( 1.083724540)       ( 1.396175017)

  5-11  2.047934048   6-12  2.047946958  13-14  2.193162908  14-15  2.022881894
       ( 1.083720023)       ( 1.083726856)       ( 1.160571826)       ( 1.070462995)

 Bond angles

  1- 2- 3  119.76991883   1- 2- 8  120.11515314   1- 6- 5  119.96075937   1- 6-12  120.01801349

  2-1-6  120.39207241   2-1-7  119.80251730   2-3-4  119.70889011   2-3-9  120.14440733

  3- 2- 8  120.11467661   3- 4- 5  120.26932742   3- 4-10  119.86336927   4- 3- 9  120.14641541

  4- 5- 6  119.89903184   4- 5-11  120.05083031   5- 4-10  119.86697943   5- 6-12  120.02090865

  6- 1- 7  119.80514092   6- 5-11  120.04978555  13-14-15  179.99091354

 NUCLEAR CHARGE:                   56
 NUMBER OF PRIMITIVE AOS:         345
 NUMBER OF SYMMETRY AOS:          329
 NUMBER OF CONTRACTIONS:          219   ( 219A   )
 NUMBER OF CORE ORBITALS:           8   (   8A   )
 NUMBER OF VALENCE ORBITALS:       39   (  39A   )


 NUCLEAR REPULSION ENERGY  303.39405478


 Eigenvalues of metric

         1 0.865E-05 0.186E-04 0.229E-04 0.535E-04 0.628E-04 0.633E-04 0.927E-04 0.931E-04


 Contracted 2-electron integrals neglected if value below      1.0D-16
 AO integral compression algorithm  1   Integral accuracy      1.0D-16

     2340.684 MB (compressed) written to integral file ( 91.2%)

     Node minimum: 2340.684 MB, node maximum: 2340.684 MB


 NUMBER OF SORTED TWO-ELECTRON INTEGRALS:  290176095.     BUFFER LENGTH:  32768
 NUMBER OF SEGMENTS:  19  SEGMENT LENGTH:   15999762      RECORD LENGTH: 524288

 Memory used in sort:      16.56 MW

 SORT1 READ   320642736. AND WROTE   287599195. INTEGRALS IN    832 RECORDS. CPU TIME:     3.24 SEC, REAL TIME:     6.37 SEC
 SORT2 READ   287599195. AND WROTE   290176095. INTEGRALS IN   8929 RECORDS. CPU TIME:     1.90 SEC, REAL TIME:     2.97 SEC

 FILE SIZES:   FILE 1:  2151.4 MBYTE,  FILE 4:  3489.7 MBYTE,   TOTAL:   5641.1 MBYTE

 OPERATOR DM      FOR CENTER  0  COORDINATES:    0.000000    0.000000    0.000000


 **********************************************************************************************************************************
 DATASETS  * FILE   NREC   LENGTH (MB)   RECORD NAMES
              1      19     2151.97       500      610      700      900      950      970     1000      129      960     1100   
                                          VAR    BASINP    GEOM    SYMINP    ZMAT    AOBASIS   BASIS     P2S    ABASIS      S 
                                         1400     1410     1200     1210     1080     1600     1650     1300     1700   
                                           T        V       H0       H01     AOSYM     SMH    MOLCAS    ERIS     OPER   

 PROGRAMS   *        TOTAL       INT
 CPU TIMES  *        18.20     18.15
 REAL TIME  *        23.71 SEC
 DISK USED  *         7.98 GB      
 GA USED    *         0.01 MB       (max)       0.00 MB       (current)
 **********************************************************************************************************************************

1PROGRAM * RHF-SCF (CLOSED SHELL)       Authors: W. Meyer, H.-J. Werner


 NUMBER OF ELECTRONS:      28+   28-    SPACE SYMMETRY=1    SPIN SYMMETRY: Singlet 
 CONVERGENCE THRESHOLDS:    1.00E-10 (Density)    1.00E-13 (Energy)
 MAX. NUMBER OF ITERATIONS:      200
 INTERPOLATION TYPE:            DIIS
 INTERPOLATION STEPS:              2 (START)      1 (STEP)
 LEVEL SHIFTS:                  0.00 (CLOSED)  0.00 (OPEN) 



 Orbital guess generated from atomic densities. Full valence occupancy:   47

 Molecular orbital dump at record        2100.2

 ITERATION    DDIFF          GRAD             ENERGY        2-EL.EN.            DIPOLE MOMENTS         DIIS
    1      0.000D+00      0.000D+00      -323.54133701    822.125097   -1.89871    0.10696   -0.00545    0
    2      0.000D+00      0.292D-02      -323.59777858    819.104305   -1.36885    0.04589    0.00613    1
    3      0.781D-02      0.179D-02      -323.61437798    820.249689   -1.72958    0.07982   -0.00084    2
    4      0.260D-02      0.576D-03      -323.61671419    820.451358   -1.63886    0.07209   -0.00029    3
    5      0.963D-03      0.133D-03      -323.61684356    820.191386   -1.66281    0.07235    0.00046    4
    6      0.223D-03      0.229D-04      -323.61684969    820.218224   -1.66416    0.07255    0.00003    5
    7      0.845D-04      0.438D-05      -323.61684989    820.213406   -1.66451    0.07228    0.00037    6
    8      0.108D-04      0.132D-05      -323.61684991    820.214274   -1.66481    0.07248    0.00012    7
    9      0.354D-05      0.394D-06      -323.61684991    820.214421   -1.66480    0.07236    0.00026    7
   10      0.919D-06      0.177D-06      -323.61684991    820.214373   -1.66480    0.07240    0.00021    7
   11      0.353D-06      0.248D-07      -323.61684991    820.214371   -1.66480    0.07240    0.00021    7
   12      0.111D-06      0.658D-08      -323.61684991    820.214373   -1.66479    0.07240    0.00021    7
   13      0.190D-07      0.233D-08      -323.61684991    820.214374   -1.66479    0.07240    0.00021    7
   14      0.719D-08      0.753D-09      -323.61684991    820.214372   -1.66479    0.07240    0.00021    7
   15      0.217D-08      0.260D-09      -323.61684991    820.214373   -1.66479    0.07240    0.00021    8
   16      0.740D-09      0.112D-09      -323.61684991    820.214373   -1.66479    0.07240    0.00021    7
   17      0.295D-09      0.745D-10      -323.61684991    820.214373   -1.66479    0.07240    0.00021    8
   18      0.174D-09      0.330D-10      -323.61684991    820.214373   -1.66479    0.07240    0.00021    8
   19      0.274D-09      0.109D-10      -323.61684991    820.214373   -1.66479    0.07240    0.00021    9
   20      0.215D-09      0.252D-11      -323.61684991    820.214373   -1.66479    0.07240    0.00021    9
   21      0.145D-09      0.132D-11      -323.61684991    820.214373   -1.66479    0.07240    0.00021    9
   22      0.928D-10      0.804D-12      -323.61684991    820.214373   -1.66479    0.07240    0.00021    0

 Final occupancy:  28

 !RHF STATE 1.1 Energy               -323.616849907574
 Nuclear energy                       303.39405478
 One-electron energy                -1037.11809106
 Two-electron energy                  410.10718638
 Virial quotient                       -1.00170949
 !RHF STATE 1.1 Dipole moment          -1.66479230     0.07240111     0.00021319
 Dipole moment /Debye                  -4.23120280     0.18401322     0.00054185

 Orbital energies:

         1.1          2.1          3.1          4.1          5.1          6.1          7.1          8.1          9.1         10.1
    -15.591649   -11.283864   -11.266607   -11.265772   -11.265526   -11.264723   -11.264355   -11.263619    -1.218335    -1.173928

        11.1         12.1         13.1         14.1         15.1         16.1         17.1         18.1         19.1         20.1
     -1.038133    -1.037438    -0.845916    -0.845523    -0.789909    -0.729364    -0.664881    -0.639195    -0.609263    -0.607843

        21.1         22.1         23.1         24.1         25.1         26.1         27.1         28.1         29.1         30.1
     -0.565229    -0.520381    -0.515579    -0.514119    -0.475690    -0.475686    -0.359869    -0.359463     0.055868     0.060051


 **********************************************************************************************************************************
 DATASETS  * FILE   NREC   LENGTH (MB)   RECORD NAMES
              1      19     2151.97       500      610      700      900      950      970     1000      129      960     1100   
                                          VAR    BASINP    GEOM    SYMINP    ZMAT    AOBASIS   BASIS     P2S    ABASIS      S 
                                         1400     1410     1200     1210     1080     1600     1650     1300     1700   
                                           T        V       H0       H01     AOSYM     SMH    MOLCAS    ERIS     OPER   

              2       3        1.49       700     1000     2100   
                                         GEOM     BASIS     RHF  

 PROGRAMS   *        TOTAL       RHF       INT
 CPU TIMES  *        68.87     50.67     18.15
 REAL TIME  *        79.50 SEC
 DISK USED  *         7.98 GB      
 GA USED    *         0.01 MB       (max)       0.00 MB       (current)
 **********************************************************************************************************************************


1PROGRAM * CCSD (Closed-shell coupled cluster)     Authors: C. Hampel, H.-J. Werner, 1991, M. Deegan, P.J. Knowles, 1992


 Convergence thresholds:  THRVAR = 1.00D-08  THRDEN = 1.00D-12

 CCSD(T)     terms to be evaluated (factor= 1.000)


 Number of core orbitals:           8 (   8 )
 Number of closed-shell orbitals:  20 (  20 )
 Number of external orbitals:     191 ( 191 )

 Molecular orbitals read from record     2100.2  Type=RHF/CANONICAL (state 1.1)

 Number of N-1 electron functions:              20
 Number of N-2 electron functions:             210
 Number of singly external CSFs:              3820
 Number of doubly external CSFs:           7298110
 Total number of CSFs:                     7301931

 Length of J-op  integral file:               0.00 MB
 Length of K-op  integral file:               3.32 MB
 Length of 3-ext integral record:             0.00 MB

 Memory could be reduced to 174.82 Mwords without degradation in triples

 Integral transformation finished. Total CPU:  19.07 sec, npass=  1  Memory used: 128.13 MW

 Reference energy:                   -323.61684991

 MP2 singlet pair energy:              -0.67334452
 MP2 triplet pair energy:              -0.43519942
 MP2 correlation energy:               -1.10854394
 MP2 total energy:                   -324.72539385

 SCS-MP2 correlation energy:           -1.07880418   (PS=  1.200000  PT=  0.333333)
 SCS-MP2 total energy:               -324.69565408

 ITER.      SQ.NORM     CORR.ENERGY   TOTAL ENERGY   ENERGY CHANGE        DEN1      VAR(S)    VAR(P)  DIIS     TIME
   1      1.42873419    -1.14462534  -324.76147525    -0.03608140    -0.00288880  0.51D-02  0.99D-02  1  1    71.09
   2      1.46305738    -1.15049882  -324.76734872    -0.00587348    -0.03103214  0.83D-04  0.13D-02  2  2   123.58
   3      1.47634871    -1.15094646  -324.76779637    -0.00044765    -0.00655909  0.40D-04  0.12D-03  3  3   176.13
   4      1.48204065    -1.15119618  -324.76804608    -0.00024971    -0.00178569  0.22D-05  0.15D-04  4  4   228.67
   5      1.48357029    -1.15123186  -324.76808177    -0.00003568    -0.00036600  0.25D-06  0.14D-05  5  5   281.24
   6      1.48387646    -1.15122334  -324.76807325     0.00000852    -0.00005023  0.24D-07  0.91D-07  6  6   333.84
   7      1.48391127    -1.15122675  -324.76807666    -0.00000341    -0.00000226  0.34D-08  0.80D-08  6  2   386.44
   8      1.48391594    -1.15122711  -324.76807702    -0.00000036    -0.00000042  0.41D-09  0.83D-09  6  1   439.00
   9      1.48391616    -1.15122728  -324.76807719    -0.00000017     0.00000079  0.63D-10  0.78D-10  6  3   491.60
  10      1.48391654    -1.15122734  -324.76807724    -0.00000006     0.00000002  0.10D-10  0.99D-11  6  4   544.22
  11      1.48391627    -1.15122737  -324.76807728    -0.00000004     0.00000022  0.17D-11  0.14D-11  6  5   596.80
  12      1.48391610    -1.15122738  -324.76807729    -0.00000001     0.00000008  0.25D-12  0.27D-12  6  6   649.41
  13      1.48391597    -1.15122739  -324.76807730    -0.00000000     0.00000005  0.14D-13  0.52D-13  6  2   702.01
  14      1.48391590    -1.15122739  -324.76807730    -0.00000000     0.00000002  0.22D-14  0.94D-14  6  1   754.61
  15      1.48391588    -1.15122739  -324.76807730     0.00000000     0.00000001  0.46D-15  0.13D-14  6  3   807.22
  16      1.48391587    -1.15122739  -324.76807730    -0.00000000     0.00000000  0.99D-16  0.19D-15  6  4   859.81
  17      1.48391586    -1.15122739  -324.76807730    -0.00000000     0.00000000  0.19D-16  0.28D-16  6  5   912.42
  18      1.48391586    -1.15122739  -324.76807730    -0.00000000     0.00000000  0.37D-17  0.36D-17  6  6   965.00
  19      1.48391586    -1.15122739  -324.76807730    -0.00000000     0.00000000  0.82D-18  0.60D-18  6  2  1017.57
  20      1.48391586    -1.15122739  -324.76807730    -0.00000000     0.00000000  0.18D-18  0.13D-18  6  1  1070.17
  21      1.48391586    -1.15122739  -324.76807730    -0.00000000     0.00000000  0.62D-19  0.37D-19  6  3  1122.76
  22      1.48391586    -1.15122739  -324.76807730     0.00000000     0.00000000  0.28D-19  0.17D-19  6  4  1175.34

 Norm of t1 vector:      0.09773728      S-energy:    -0.00000000      T1 diagnostic:  0.01092736
                                                                       D1 diagnostic:  0.02771786

 Doubles amplitudes (print threshold =  0.500E-01):

         I         J         SYM. A    SYM. B    A         B      T(IJ, AB)

        19        19         1         1         7         7     -0.06216182
        20        20         1         1         8         8     -0.06195003


 Total CPU time for triples:   1084.71 sec


 RESULTS
 =======

  Reference energy                   -323.616849907575
  CCSD singlet pair energy             -0.770021449690
  CCSD triplet pair energy             -0.381205939799
  CCSD correlation energy              -1.151227389489

  Triples (T) contribution             -0.054016004625
  Total correlation energy             -1.205243394114

  CCSD total energy                  -324.768077297063
  CCSD[T] energy                     -324.823425639892
  CCSD-T energy                      -324.821487810938
 !CCSD(T) total energy               -324.822093301688

 Timing summary (sec):

 STEP                 CPU(USER)    SYS     CPU(TOT)    WALL
 Transformation         19.61      1.10     20.71     20.71
 CCSD iterations      1155.75     14.46   1170.21   1170.34
 Triples              1084.71     15.88   1100.59   1100.66

 Program statistics:

 Available memory in ccsd:               999998300
 Min. memory needed in ccsd:              17709720
 Max. memory used in ccsd:                24415330
 Max. memory used in cckext:              20754978 (22 integral passes)



 **********************************************************************************************************************************
 DATASETS  * FILE   NREC   LENGTH (MB)   RECORD NAMES
              1      20     2834.14       500      610      700      900      950      970     1000      129      960     1100   
                                          VAR    BASINP    GEOM    SYMINP    ZMAT    AOBASIS   BASIS     P2S    ABASIS      S 
                                         1400     1410     1200     1210     1080     1600     1650     1300     1700     1380   
                                           T        V       H0       H01     AOSYM     SMH    MOLCAS    ERIS     OPER     JKOP   

              2       3        1.49       700     1000     2100   
                                         GEOM     BASIS     RHF  

 PROGRAMS   *        TOTAL   CCSD(T)       RHF       INT
 CPU TIMES  *      2328.95   2260.07     50.67     18.15
 REAL TIME  *      2371.34 SEC
 DISK USED  *         7.98 GB      
 GA USED    *         0.01 MB       (max)       0.00 MB       (current)
 **********************************************************************************************************************************

        CCSD(T)         RHF-SCF 
   -324.82209330   -323.61684991
 **********************************************************************************************************************************
 Variable memory released
