
 Primary working directories    : /tmp/985636.1358.gen6.q
 Secondary working directories  : /tmp/985636.1358.gen6.q
 Wavefunction directory         : /home/vulcan/jj04645/wfu/
 Main file repository           : /tmp/985636.1358.gen6.q/

 ARCHNAME  : Linux/x86_64
 FC        : /opt/intel/compilers_and_libraries_2016.1.150/linux/bin/intel64/ifort
 FCVERSION : 16.0.1
 BLASLIB   : -mkl
 id        : ccgc

 Nodes     nprocs
 n075         1
 ga_uses_ma=false, calling ma_init with nominal heap.
 GA-space will be limited to   8.0 MW (determined by -G option)

 Using customized tuning parameters: mindgm=10; mindgv=16; mindgc=4; mindgr=1; noblas=0; mincuda=1000; minvec=7
 default implementation of scratch files=df  

 ***,Optimization of tetrahydrothiopyran
 memory,1000,m
 gthresh,energy=1.0d-12,orbital=1.0d-10,oneint=1.0d-16,twoint=1.0d-16,optgrad=1.0d-6,compress=1.0d-13
 geomtyp=xyz
 
 bohr
 geometry = {
  S    0.3537771800    2.7010782749    0.0001109227
  C   -0.3308515435   -3.3637851593   -0.0023779418
  C   -0.6618621363    0.6716985518   -2.5820595751
  C   -0.6625941900    0.6696626508    2.5803918302
  C    0.4719268062   -1.9793836836   -2.4156210209
  C    0.4712422066   -1.9812876111    2.4121838878
  H   -2.7277706422    0.5668566885   -2.5899620714
  H   -2.7285048423    0.5648148181    2.5876257249
  H   -0.0717513636    1.6199810813   -4.3158892684
  H   -0.0729752740    1.6165772894    4.3151362167
  H    2.5340235897   -1.8349127877   -2.4821698652
  H    2.5333200173   -1.8368694804    2.4794314833
  H   -0.1281196459   -3.0714355983   -4.0678168697
  H   -0.1292726743   -3.0746422616    4.0633476405
  H    0.4640289357   -5.2707682423    0.0086612451
  H   -2.3933514398   -3.5774059472    0.0090076612
 }
 
 basis=VDZ
 {rhf;maxit,200}
 {ccsd(t);maxit,200}

 Variables initialized (661), CPU time= 0.00 sec
 Commands  initialized (458), CPU time= 0.01 sec, 486 directives.
 Default parameters read. Elapsed time= 0.04 sec

 Checking input...
 Passed
1


                                         ***  PROGRAM SYSTEM MOLPRO  ***
                         Copyright, University College Cardiff Consultants Limited, 2008

                                    Version 2010.1 linked May 16 2016 07:17:05


 **********************************************************************************************************************************
 LABEL *   Optimization of tetrahydrothiopyran                                           
 Linux-4.4.3/n075(x86_64) 64 bit mpp version                                             DATE: 26-Jan-24          TIME: 17:28:30  
 **********************************************************************************************************************************

 SHA1:             9e8077add272b0f3cad6f7df79ec5211205f459d
 **********************************************************************************************************************************

 THRESHOLDS:

 ZERO    =  1.00D-12  ONEINT  =  1.00D-16  TWOINT  =  1.00D-16  PREFAC  =  1.00D-14  LOCALI  =  1.00D-09  EORDER  =  1.00D-04
 ENERGY  =  1.00D-12  ETEST   =  0.00D+00  EDENS   =  0.00D+00  THRDEDEF=  1.00D-06  GRADIENT=  1.00D-02  STEP    =  1.00D-03
 ORBITAL =  1.00D-10  CIVEC   =  1.00D-05  COEFF   =  1.00D-04  PRINTCI =  5.00D-02  PUNCHCI =  9.90D+01  OPTGRAD =  1.00D-06
 OPTENERG=  1.00D-06  OPTSTEP =  3.00D-04  THRGRAD =  1.00D-10  COMPRESS=  1.00D-13  VARMIN  =  1.00D-07  VARMAX  =  1.00D-03
 THRDOUB =  0.00D+00  THRDIV  =  1.00D-05  THRRED  =  1.00D-07  THRPSP  =  1.00D+00  THRDC   =  1.00D-10  THRCS   =  1.00D-10
 THRNRM  =  1.00D-08  THREQ   =  0.00D+00  THRDE   =  1.00D+00  THRREF  =  1.00D-05  SPARFAC =  1.00D+00  THRDLP  =  1.00D-07
 THRDIA  =  1.00D-10  THRDLS  =  1.00D-07  THRGPS  =  0.00D+00  THRKEX  =  0.00D+00  THRDIS  =  2.00D-01  THRVAR  =  1.00D-10
 THRLOC  =  1.00D-06  THRGAP  =  1.00D-06  THRLOCT = -1.00D+00  THRGAPT = -1.00D+00  THRORB  =  1.00D-06  THRMLTP =  0.00D+00
 THRCPQCI=  1.00D-10  KEXTA   =  0.00D+00  THRCOARS=  0.00D+00  SYMTOL  =  1.00D-06  GRADTOL =  1.00D-06  THROVL  =  1.00D-08
 THRORTH =  1.00D-08  GRID    =  1.00D-06  GRIDMAX =  1.00D-03  DTMAX   =  0.00D+00

 SETTING GEOMTYP        =    XYZ
 ZUNIT=BOHR
 

 Variable memory set to 1000000000 words,  buffer space   230000 words

 SETTING BASIS          =    VDZ


 Recomputing integrals since basis changed


 Using spherical harmonics

 Library entry S      S cc-pVDZ              selected for orbital group  1
 Library entry S      P cc-pVDZ              selected for orbital group  1
 Library entry S      D cc-pVDZ              selected for orbital group  1
 Library entry C      S cc-pVDZ              selected for orbital group  2
 Library entry C      P cc-pVDZ              selected for orbital group  2
 Library entry C      D cc-pVDZ              selected for orbital group  2
 Library entry H      S cc-pVDZ              selected for orbital group  3
 Library entry H      P cc-pVDZ              selected for orbital group  3

1PROGRAM * SEWARD (Integral evaluation for generally contracted gaussian basis sets)     Author: Roland Lindh, 1990

 Geometry written to block  1 of record 700


 Point group  C1  



 ATOMIC COORDINATES

 NR  ATOM    CHARGE       X              Y              Z

   1  S      16.00    0.353777180    2.701078275    0.000110923
   2  C       6.00   -0.330851544   -3.363785159   -0.002377942
   3  C       6.00   -0.661862136    0.671698552   -2.582059575
   4  C       6.00   -0.662594190    0.669662651    2.580391830
   5  C       6.00    0.471926806   -1.979383684   -2.415621021
   6  C       6.00    0.471242207   -1.981287611    2.412183888
   7  H       1.00   -2.727770642    0.566856689   -2.589962071
   8  H       1.00   -2.728504842    0.564814818    2.587625725
   9  H       1.00   -0.071751364    1.619981081   -4.315889268
  10  H       1.00   -0.072975274    1.616577289    4.315136217
  11  H       1.00    2.534023590   -1.834912788   -2.482169865
  12  H       1.00    2.533320017   -1.836869480    2.479431483
  13  H       1.00   -0.128119646   -3.071435598   -4.067816870
  14  H       1.00   -0.129272674   -3.074642262    4.063347640
  15  H       1.00    0.464028936   -5.270768242    0.008661245
  16  H       1.00   -2.393351440   -3.577405947    0.009007661

 Bond lengths in Bohr (Angstrom)

  1- 3  3.437660507   1- 4  3.437660507   2- 5  2.895645469   2- 6  2.895645469   2-15  2.066044849
       ( 1.819131593)       ( 1.819131593)       ( 1.532309588)       ( 1.532309588)       ( 1.093303847)

  2-16  2.073564394   3- 5  2.888150996   3- 7  2.068582176   3- 9  2.062434456   4- 6  2.888150996
       ( 1.097283019)       ( 1.528343683)       ( 1.094646543)       ( 1.091393309)       ( 1.528343683)

  4- 8  2.068582176   4-10  2.062434456   5-11  2.068222361   5-13  2.069392242   6-12  2.068222361
       ( 1.094646543)       ( 1.091393309)       ( 1.094456136)       ( 1.095075211)       ( 1.094456136)

  6-14  2.069392242
       ( 1.095075211)

 Bond angles

  1-3-5  112.49558627   1-3-7  109.13849144   1-3-9  105.99179430   1-4-6  112.49558630

  1- 4- 8  109.13849144   1- 4-10  105.99179429   2- 5- 3  112.21281630   2- 5-11  109.67156740

  2- 5-13  109.43267518   2- 6- 4  112.21281627   2- 6-12  109.67156741   2- 6-14  109.43267518

  3- 1- 4   97.33107695   3- 5-11  108.99161295   3- 5-13  108.93892954   4- 6-12  108.99161296

  4- 6-14  108.93892954   5- 2- 6  112.94731637   5- 2-15  109.82083434   5- 2-16  109.24372800

  5- 3- 7  110.22793296   5- 3- 9  110.98792052   6- 2-15  109.24787653   6- 2-16  108.67077019

  6- 4- 8  110.22793296   6- 4-10  110.98792051   7- 3- 9  107.80903417   8- 4-10  107.80903416

 11- 5-13  107.47420340  12- 6-14  107.47420340  15- 2-16  106.71213966

 NUCLEAR CHARGE:                   56
 NUMBER OF PRIMITIVE AOS:         247
 NUMBER OF SYMMETRY AOS:          241
 NUMBER OF CONTRACTIONS:          138   ( 138A   )
 NUMBER OF CORE ORBITALS:          10   (  10A   )
 NUMBER OF VALENCE ORBITALS:       34   (  34A   )


 NUCLEAR REPULSION ENERGY  312.11896418


 Eigenvalues of metric

         1 0.286E-02 0.305E-02 0.426E-02 0.634E-02 0.705E-02 0.151E-01 0.157E-01 0.196E-01


 Contracted 2-electron integrals neglected if value below      1.0D-16
 AO integral compression algorithm  1   Integral accuracy      1.0D-16

     374.079 MB (compressed) written to integral file ( 94.2%)

     Node minimum: 374.079 MB, node maximum: 374.079 MB


 NUMBER OF SORTED TWO-ELECTRON INTEGRALS:   45998436.     BUFFER LENGTH:  32768
 NUMBER OF SEGMENTS:   3  SEGMENT LENGTH:   15998004      RECORD LENGTH: 524288

 Memory used in sort:      16.56 MW

 SORT1 READ    49669998. AND WROTE    45796487. INTEGRALS IN    132 RECORDS. CPU TIME:     0.45 SEC, REAL TIME:     0.70 SEC
 SORT2 READ    45796487. AND WROTE    45998436. INTEGRALS IN   1427 RECORDS. CPU TIME:     0.36 SEC, REAL TIME:     0.54 SEC

 FILE SIZES:   FILE 1:   349.6 MBYTE,  FILE 4:   553.7 MBYTE,   TOTAL:    903.3 MBYTE

 OPERATOR DM      FOR CENTER  0  COORDINATES:    0.000000    0.000000    0.000000


 **********************************************************************************************************************************
 DATASETS  * FILE   NREC   LENGTH (MB)   RECORD NAMES
              1      19      349.82       500      610      700      900      950      970     1000      129      960     1100   
                                          VAR    BASINP    GEOM    SYMINP    ZMAT    AOBASIS   BASIS     P2S    ABASIS      S 
                                         1400     1410     1200     1210     1080     1600     1650     1300     1700   
                                           T        V       H0       H01     AOSYM     SMH    MOLCAS    ERIS     OPER   

 PROGRAMS   *        TOTAL       INT
 CPU TIMES  *         4.33      4.29
 REAL TIME  *         5.14 SEC
 DISK USED  *         1.28 GB      
 GA USED    *         0.01 MB       (max)       0.00 MB       (current)
 **********************************************************************************************************************************

1PROGRAM * RHF-SCF (CLOSED SHELL)       Authors: W. Meyer, H.-J. Werner


 NUMBER OF ELECTRONS:      28+   28-    SPACE SYMMETRY=1    SPIN SYMMETRY: Singlet 
 CONVERGENCE THRESHOLDS:    1.00E-10 (Density)    1.00E-13 (Energy)
 MAX. NUMBER OF ITERATIONS:      200
 INTERPOLATION TYPE:            DIIS
 INTERPOLATION STEPS:              2 (START)      1 (STEP)
 LEVEL SHIFTS:                  0.00 (CLOSED)  0.00 (OPEN) 



 Orbital guess generated from atomic densities. Full valence occupancy:   44

 Molecular orbital dump at record        2100.2

 ITERATION    DDIFF          GRAD             ENERGY        2-EL.EN.            DIPOLE MOMENTS         DIIS
    1      0.000D+00      0.000D+00      -592.64385056   1056.801726   -0.40781   -0.80499    0.00052    0
    2      0.000D+00      0.396D-02      -592.70489846   1054.215940   -0.20754   -0.73956   -0.00011    1
    3      0.778D-02      0.132D-02      -592.71084176   1055.651784   -0.27987   -0.67651   -0.00026    2
    4      0.269D-02      0.540D-03      -592.71185345   1055.033384   -0.25273   -0.70955   -0.00032    3
    5      0.932D-03      0.774D-04      -592.71187921   1055.096528   -0.24881   -0.70108   -0.00034    4
    6      0.181D-03      0.267D-04      -592.71188174   1055.065562   -0.25053   -0.70133   -0.00034    5
    7      0.504D-04      0.620D-05      -592.71188194   1055.068720   -0.24987   -0.70122   -0.00034    6
    8      0.165D-04      0.174D-05      -592.71188196   1055.067862   -0.24985   -0.70108   -0.00034    7
    9      0.539D-05      0.453D-06      -592.71188197   1055.067744   -0.24984   -0.70104   -0.00034    7
   10      0.127D-05      0.162D-06      -592.71188197   1055.067783   -0.24983   -0.70104   -0.00034    7
   11      0.480D-06      0.343D-07      -592.71188197   1055.067768   -0.24983   -0.70103   -0.00034    7
   12      0.114D-06      0.688D-08      -592.71188197   1055.067774   -0.24983   -0.70103   -0.00034    7
   13      0.182D-07      0.287D-08      -592.71188197   1055.067771   -0.24983   -0.70103   -0.00034    7
   14      0.631D-08      0.845D-09      -592.71188197   1055.067772   -0.24983   -0.70103   -0.00034    7
   15      0.225D-08      0.275D-09      -592.71188197   1055.067772   -0.24983   -0.70103   -0.00034    7
   16      0.656D-09      0.853D-10      -592.71188197   1055.067772   -0.24983   -0.70103   -0.00034    8
   17      0.205D-09      0.191D-10      -592.71188197   1055.067772   -0.24983   -0.70103   -0.00034    7
   18      0.500D-10      0.612D-11      -592.71188197   1055.067772   -0.24983   -0.70103   -0.00034    7
   19      0.186D-10      0.217D-11      -592.71188197   1055.067772   -0.24983   -0.70103   -0.00034    8
   20      0.607D-11      0.737D-12      -592.71188197   1055.067772   -0.24983   -0.70103   -0.00034    8
   21      0.229D-11      0.273D-12      -592.71188197   1055.067772   -0.24983   -0.70103   -0.00034    8
   22      0.936D-12      0.101D-12      -592.71188197   1055.067772   -0.24983   -0.70103   -0.00034    8
   23      0.423D-12      0.558D-13      -592.71188197   1055.067772   -0.24983   -0.70103   -0.00034    8
   24      0.242D-12      0.438D-13      -592.71188197   1055.067772   -0.24983   -0.70103   -0.00034    9
   25      0.143D-12      0.381D-13      -592.71188197   1055.067772   -0.24983   -0.70103   -0.00034    9
   26      0.100D-12      0.389D-13      -592.71188197   1055.067772   -0.24983   -0.70103   -0.00034    9
   27      0.797D-13      0.274D-13      -592.71188197   1055.067772   -0.24983   -0.70103   -0.00034    9
   28      0.607D-13      0.293D-13      -592.71188197   1055.067772   -0.24983   -0.70103   -0.00034    0

 Final occupancy:  28

 !RHF STATE 1.1 Energy               -592.711881965620
 Nuclear energy                       312.11896418
 One-electron energy                -1432.36473200
 Two-electron energy                  527.53388585
 Virial quotient                       -1.00019678
 !RHF STATE 1.1 Dipole moment          -0.24983068    -0.70103343    -0.00033734
 Dipole moment /Debye                  -0.63496466    -1.78173254    -0.00085737

 Orbital energies:

         1.1          2.1          3.1          4.1          5.1          6.1          7.1          8.1          9.1         10.1
    -91.930046   -11.255070   -11.254946   -11.231041   -11.230757   -11.229026    -8.933911    -6.615805    -6.614376    -6.612173

        11.1         12.1         13.1         14.1         15.1         16.1         17.1         18.1         19.1         20.1
     -1.119559    -1.020047    -1.006402    -0.842193    -0.836050    -0.755718    -0.646627    -0.614544    -0.609657    -0.578325

        21.1         22.1         23.1         24.1         25.1         26.1         27.1         28.1         29.1         30.1
     -0.546933    -0.523648    -0.497729    -0.495414    -0.472879    -0.434896    -0.411881    -0.328828     0.176888     0.190262


 **********************************************************************************************************************************
 DATASETS  * FILE   NREC   LENGTH (MB)   RECORD NAMES
              1      19      349.82       500      610      700      900      950      970     1000      129      960     1100   
                                          VAR    BASINP    GEOM    SYMINP    ZMAT    AOBASIS   BASIS     P2S    ABASIS      S 
                                         1400     1410     1200     1210     1080     1600     1650     1300     1700   
                                           T        V       H0       H01     AOSYM     SMH    MOLCAS    ERIS     OPER   

              2       3        0.92       700     1000     2100   
                                         GEOM     BASIS     RHF  

 PROGRAMS   *        TOTAL       RHF       INT
 CPU TIMES  *        12.89      8.56      4.29
 REAL TIME  *        14.66 SEC
 DISK USED  *         1.28 GB      
 GA USED    *         0.01 MB       (max)       0.00 MB       (current)
 **********************************************************************************************************************************


1PROGRAM * CCSD (Closed-shell coupled cluster)     Authors: C. Hampel, H.-J. Werner, 1991, M. Deegan, P.J. Knowles, 1992


 Convergence thresholds:  THRVAR = 1.00D-08  THRDEN = 1.00D-12

 CCSD(T)     terms to be evaluated (factor= 1.000)


 Number of core orbitals:          10 (  10 )
 Number of closed-shell orbitals:  18 (  18 )
 Number of external orbitals:     110 ( 110 )

 Molecular orbitals read from record     2100.2  Type=RHF/CANONICAL (state 1.1)

 Number of N-1 electron functions:              18
 Number of N-2 electron functions:             171
 Number of singly external CSFs:              1980
 Number of doubly external CSFs:           1961190
 Total number of CSFs:                     1963171

 Length of J-op  integral file:               0.00 MB
 Length of K-op  integral file:               1.35 MB
 Length of 3-ext integral record:             0.00 MB

 Memory could be reduced to 32.58 Mwords without degradation in triples

 Integral transformation finished. Total CPU:   2.04 sec, npass=  1  Memory used:  30.89 MW

 Reference energy:                   -592.71188197

 MP2 singlet pair energy:              -0.53946864
 MP2 triplet pair energy:              -0.30435783
 MP2 correlation energy:               -0.84382646
 MP2 total energy:                   -593.55570843

 SCS-MP2 correlation energy:           -0.83674057   (PS=  1.200000  PT=  0.333333)
 SCS-MP2 total energy:               -593.54862253

 ITER.      SQ.NORM     CORR.ENERGY   TOTAL ENERGY   ENERGY CHANGE        DEN1      VAR(S)    VAR(P)  DIIS     TIME
   1      1.33971112    -0.91081060  -593.62269256    -0.06698413    -0.04302408  0.26D-02  0.55D-02  1  1     9.18
   2      1.36670916    -0.91615860  -593.62804057    -0.00534800    -0.02577878  0.69D-04  0.46D-03  2  2    16.37
   3      1.37204278    -0.91628638  -593.62816835    -0.00012778    -0.00303798  0.16D-04  0.28D-04  3  3    23.60
   4      1.37353568    -0.91634444  -593.62822641    -0.00005806    -0.00059388  0.76D-06  0.20D-05  4  4    30.81
   5      1.37377625    -0.91635105  -593.62823302    -0.00000661    -0.00007084  0.17D-06  0.16D-06  5  5    38.02
   6      1.37382188    -0.91634660  -593.62822857     0.00000445    -0.00001393  0.30D-07  0.14D-07  6  6    45.24
   7      1.37382945    -0.91634649  -593.62822846     0.00000011     0.00000064  0.53D-08  0.23D-08  6  2    52.46
   8      1.37383553    -0.91634618  -593.62822814     0.00000031    -0.00000125  0.73D-09  0.27D-09  6  1    59.69
   9      1.37383635    -0.91634612  -593.62822808     0.00000006     0.00000050  0.65D-10  0.44D-10  6  4    66.91
  10      1.37383723    -0.91634608  -593.62822805     0.00000003    -0.00000011  0.47D-11  0.35D-11  6  3    74.14
  11      1.37383724    -0.91634608  -593.62822805    -0.00000000     0.00000004  0.11D-11  0.53D-12  6  5    81.36
  12      1.37383721    -0.91634609  -593.62822805    -0.00000000     0.00000002  0.17D-12  0.76D-13  6  6    88.60
  13      1.37383716    -0.91634609  -593.62822805    -0.00000000     0.00000002  0.24D-13  0.10D-13  6  1    95.82
  14      1.37383715    -0.91634609  -593.62822805    -0.00000000     0.00000000  0.31D-14  0.12D-14  6  2   103.06
  15      1.37383715    -0.91634609  -593.62822805     0.00000000    -0.00000000  0.67D-15  0.31D-15  6  4   110.27
  16      1.37383715    -0.91634609  -593.62822805     0.00000000    -0.00000000  0.32D-16  0.23D-16  6  5   117.50
  17      1.37383715    -0.91634609  -593.62822805     0.00000000    -0.00000000  0.57D-17  0.24D-17  6  3   124.71
  18      1.37383715    -0.91634609  -593.62822805     0.00000000    -0.00000000  0.18D-17  0.49D-18  6  6   131.94
  19      1.37383715    -0.91634609  -593.62822805     0.00000000    -0.00000000  0.37D-18  0.11D-18  6  1   139.16
  20      1.37383715    -0.91634609  -593.62822805     0.00000000     0.00000000  0.45D-19  0.17D-19  6  2   146.39
  21      1.37383715    -0.91634609  -593.62822805    -0.00000000     0.00000000  0.81D-20  0.34D-20  6  4   153.61

 Norm of t1 vector:      0.07014113      S-energy:    -0.00000000      T1 diagnostic:  0.00826621
                                                                       D1 diagnostic:  0.02107832


 Total CPU time for triples:    108.07 sec


 RESULTS
 =======

  Reference energy                   -592.711881965622
  CCSD singlet pair energy             -0.634230526153
  CCSD triplet pair energy             -0.282115561498
  CCSD correlation energy              -0.916346087652

  Triples (T) contribution             -0.029867762726
  Total correlation energy             -0.946213850378

  CCSD total energy                  -593.628228053274
  CCSD[T] energy                     -593.658715155869
  CCSD-T energy                      -593.657784564617
 !CCSD(T) total energy               -593.658095816000

 Timing summary (sec):

 STEP                 CPU(USER)    SYS     CPU(TOT)    WALL
 Transformation          2.13      0.21      2.34      2.36
 CCSD iterations       151.49      2.65    154.14    154.19
 Triples               108.07      2.02    110.09    110.10

 Program statistics:

 Available memory in ccsd:               999998604
 Min. memory needed in ccsd:               5123362
 Max. memory used in ccsd:                 6867976
 Max. memory used in cckext:               6836871 (21 integral passes)



 **********************************************************************************************************************************
 DATASETS  * FILE   NREC   LENGTH (MB)   RECORD NAMES
              1      20      486.19       500      610      700      900      950      970     1000      129      960     1100   
                                          VAR    BASINP    GEOM    SYMINP    ZMAT    AOBASIS   BASIS     P2S    ABASIS      S 
                                         1400     1410     1200     1210     1080     1600     1650     1300     1700     1380   
                                           T        V       H0       H01     AOSYM     SMH    MOLCAS    ERIS     OPER     JKOP   

              2       3        0.92       700     1000     2100   
                                         GEOM     BASIS     RHF  

 PROGRAMS   *        TOTAL   CCSD(T)       RHF       INT
 CPU TIMES  *       274.59    261.69      8.56      4.29
 REAL TIME  *       281.36 SEC
 DISK USED  *         1.28 GB      
 GA USED    *         0.01 MB       (max)       0.00 MB       (current)
 **********************************************************************************************************************************

        CCSD(T)         RHF-SCF 
   -593.65809582   -592.71188197
 **********************************************************************************************************************************
 Variable memory released
