
 Primary working directories    : /tmp/1059987.777.gen6.q
 Secondary working directories  : /tmp/1059987.777.gen6.q
 Wavefunction directory         : /home/vulcan/jj04645/wfu/
 Main file repository           : /tmp/1059987.777.gen6.q/

 ARCHNAME  : Linux/x86_64
 FC        : /opt/intel/compilers_and_libraries_2016.1.150/linux/bin/intel64/ifort
 FCVERSION : 16.0.1
 BLASLIB   : -mkl
 id        : ccgc

 Nodes     nprocs
 n076         1
 ga_uses_ma=false, calling ma_init with nominal heap.
 GA-space will be limited to   8.0 MW (determined by -G option)

 Using customized tuning parameters: mindgm=10; mindgv=16; mindgc=4; mindgr=1; noblas=0; mincuda=1000; minvec=7
 default implementation of scratch files=df  

 ***,Optimization of 1_4_cyclohexadiene
 memory,1000,m
 gthresh,energy=1.0d-12,orbital=1.0d-10,oneint=1.0d-16,twoint=1.0d-16,optgrad=1.0d-6,compress=1.0d-13
 geomtyp=xyz
 
 bohr
 geometry = {
  H    4.1020597448   -0.0014961236   -1.6462919383
  C    2.8410814820    0.0012459536    0.0000050676
  C   -1.2651113948    2.3685989747   -0.0039380027
  C   -1.2651113948   -2.3661070676    0.0039481378
  C   -2.8410814820    0.0012459536    0.0000050676
  C    1.2651113948   -2.3661070676    0.0039481378
  C    1.2651113948    2.3685989747   -0.0039380027
  H   -2.2659670763    4.1529890232    0.0033195129
  H    2.2659670763    4.1529890232    0.0033195129
  H   -4.1020597448   -0.0014961236   -1.6462919383
  H    2.2708590214   -4.1592187910   -0.0033448508
  H   -2.2708590214   -4.1592187910   -0.0033448508
  H    4.1020597448    0.0039880307    1.6463020735
  H   -4.1020597448    0.0039880307    1.6463020735
 }
 
 basis=VDZ
 {rhf;maxit,200}
 {ccsd(t);maxit,200}

 Variables initialized (661), CPU time= 0.00 sec
 Commands  initialized (458), CPU time= 0.00 sec, 486 directives.
 Default parameters read. Elapsed time= 0.04 sec

 Checking input...
 Passed
1


                                         ***  PROGRAM SYSTEM MOLPRO  ***
                         Copyright, University College Cardiff Consultants Limited, 2008

                                    Version 2010.1 linked May 16 2016 07:17:05


 **********************************************************************************************************************************
 LABEL *   Optimization of 1_4_cyclohexadiene                                            
 Linux-4.4.3/n076(x86_64) 64 bit mpp version                                             DATE: 06-May-24          TIME: 15:54:51  
 **********************************************************************************************************************************

 SHA1:             9e8077add272b0f3cad6f7df79ec5211205f459d
 **********************************************************************************************************************************

 THRESHOLDS:

 ZERO    =  1.00D-12  ONEINT  =  1.00D-16  TWOINT  =  1.00D-16  PREFAC  =  1.00D-14  LOCALI  =  1.00D-09  EORDER  =  1.00D-04
 ENERGY  =  1.00D-12  ETEST   =  0.00D+00  EDENS   =  0.00D+00  THRDEDEF=  1.00D-06  GRADIENT=  1.00D-02  STEP    =  1.00D-03
 ORBITAL =  1.00D-10  CIVEC   =  1.00D-05  COEFF   =  1.00D-04  PRINTCI =  5.00D-02  PUNCHCI =  9.90D+01  OPTGRAD =  1.00D-06
 OPTENERG=  1.00D-06  OPTSTEP =  3.00D-04  THRGRAD =  1.00D-10  COMPRESS=  1.00D-13  VARMIN  =  1.00D-07  VARMAX  =  1.00D-03
 THRDOUB =  0.00D+00  THRDIV  =  1.00D-05  THRRED  =  1.00D-07  THRPSP  =  1.00D+00  THRDC   =  1.00D-10  THRCS   =  1.00D-10
 THRNRM  =  1.00D-08  THREQ   =  0.00D+00  THRDE   =  1.00D+00  THRREF  =  1.00D-05  SPARFAC =  1.00D+00  THRDLP  =  1.00D-07
 THRDIA  =  1.00D-10  THRDLS  =  1.00D-07  THRGPS  =  0.00D+00  THRKEX  =  0.00D+00  THRDIS  =  2.00D-01  THRVAR  =  1.00D-10
 THRLOC  =  1.00D-06  THRGAP  =  1.00D-06  THRLOCT = -1.00D+00  THRGAPT = -1.00D+00  THRORB  =  1.00D-06  THRMLTP =  0.00D+00
 THRCPQCI=  1.00D-10  KEXTA   =  0.00D+00  THRCOARS=  0.00D+00  SYMTOL  =  1.00D-06  GRADTOL =  1.00D-06  THROVL  =  1.00D-08
 THRORTH =  1.00D-08  GRID    =  1.00D-06  GRIDMAX =  1.00D-03  DTMAX   =  0.00D+00

 SETTING GEOMTYP        =    XYZ
 ZUNIT=BOHR
 

 Variable memory set to 1000000000 words,  buffer space   230000 words

 SETTING BASIS          =    VDZ


 Recomputing integrals since basis changed


 Using spherical harmonics

 Library entry H      S cc-pVDZ              selected for orbital group  1
 Library entry H      P cc-pVDZ              selected for orbital group  1
 Library entry C      S cc-pVDZ              selected for orbital group  2
 Library entry C      P cc-pVDZ              selected for orbital group  2
 Library entry C      D cc-pVDZ              selected for orbital group  2

1PROGRAM * SEWARD (Integral evaluation for generally contracted gaussian basis sets)     Author: Roland Lindh, 1990

 Geometry written to block  1 of record 700


 Point group  Cs  



 ATOMIC COORDINATES

 NR  ATOM    CHARGE       X              Y              Z

   1  H       1.00    4.102059745   -0.001496124   -1.646291938
   2  H       1.00   -4.102059745   -0.001496124   -1.646291938
   3  C       6.00    2.841081482    0.001245954    0.000005068
   4  C       6.00   -2.841081482    0.001245954    0.000005068
   5  C       6.00   -1.265111395    2.368598975   -0.003938003
   6  C       6.00    1.265111395    2.368598975   -0.003938003
   7  C       6.00   -1.265111395   -2.366107068    0.003948138
   8  C       6.00    1.265111395   -2.366107068    0.003948138
   9  H       1.00   -2.265967076    4.152989023    0.003319513
  10  H       1.00    2.265967076    4.152989023    0.003319513
  11  H       1.00    2.270859021   -4.159218791   -0.003344851
  12  H       1.00   -2.270859021   -4.159218791   -0.003344851
  13  H       1.00    4.102059745    0.003988031    1.646302074
  14  H       1.00   -4.102059745    0.003988031    1.646302074

 Bond lengths in Bohr (Angstrom)

  1- 3  2.073732753   2- 4  2.073732753   3- 6  2.843951053   3- 8  2.843951053   3-13  2.073732753
       ( 1.097372110)       ( 1.097372110)       ( 1.504954081)       ( 1.504954081)       ( 1.097372110)

  4- 5  2.843951053   4- 7  2.843951053   4-14  2.073732753   5- 6  2.530222790   5- 9  2.045925857
       ( 1.504954081)       ( 1.504954081)       ( 1.097372110)       ( 1.338936234)       ( 1.082657335)

  6-10  2.045925857   7- 8  2.530222790   7-12  2.055925857   8-11  2.055925857
       ( 1.082657335)       ( 1.338936234)       ( 1.087949107)       ( 1.087949107)

 Bond angles

  1- 3- 6  109.69187805   1- 3- 8  109.69187805   1- 3-13  105.09958657   2- 4- 5  109.69187805

  2- 4- 7  109.69187805   2- 4-14  105.09958657   3- 6- 5  123.65205841   3- 6-10  117.05952171

  3- 8- 7  123.65205841   3- 8-11  117.05952171   4- 5- 6  123.65205841   4- 5- 9  117.05952171

  4- 7- 8  123.65205841   4- 7-12  117.05952171   5- 4- 7  112.69588317   5- 4-14  109.69187805

  5- 6-10  119.28765230   6- 3- 8  112.69588317   6- 3-13  109.69187805   6- 5- 9  119.28765230

  7- 4-14  109.69187805   7- 8-11  119.28765230   8- 3-13  109.69187805   8- 7-12  119.28765230

 NUCLEAR CHARGE:                   44
 NUMBER OF PRIMITIVE AOS:         218
 NUMBER OF SYMMETRY AOS:          212
 NUMBER OF CONTRACTIONS:          124   (  62A'  +  62A"  )
 NUMBER OF CORE ORBITALS:           6   (   3A'  +   3A"  )
 NUMBER OF VALENCE ORBITALS:       32   (  16A'  +  16A"  )


 NUCLEAR REPULSION ENERGY  217.75804649


 Eigenvalues of metric

         1 0.345E-02 0.562E-02 0.182E-01 0.257E-01 0.273E-01 0.356E-01 0.360E-01 0.382E-01
         2 0.670E-03 0.169E-02 0.315E-02 0.432E-02 0.143E-01 0.163E-01 0.227E-01 0.259E-01


 Contracted 2-electron integrals neglected if value below      1.0D-16
 AO integral compression algorithm  1   Integral accuracy      1.0D-16

     139.985 MB (compressed) written to integral file ( 96.2%)

     Node minimum: 139.985 MB, node maximum: 139.985 MB


 NUMBER OF SORTED TWO-ELECTRON INTEGRALS:   15258789.     BUFFER LENGTH:  32768
 NUMBER OF SEGMENTS:   1  SEGMENT LENGTH:   15258789      RECORD LENGTH: 524288

 Memory used in sort:      15.82 MW

 SORT1 READ    18180432. AND WROTE    15139706. INTEGRALS IN     44 RECORDS. CPU TIME:     0.17 SEC, REAL TIME:     0.26 SEC
 SORT2 READ    15139706. AND WROTE    15258789. INTEGRALS IN    534 RECORDS. CPU TIME:     0.16 SEC, REAL TIME:     0.23 SEC

 FILE SIZES:   FILE 1:   122.7 MBYTE,  FILE 4:   184.6 MBYTE,   TOTAL:    307.3 MBYTE

 OPERATOR DM      FOR CENTER  0  COORDINATES:    0.000000    0.000000    0.000000


 **********************************************************************************************************************************
 DATASETS  * FILE   NREC   LENGTH (MB)   RECORD NAMES
              1      19      122.83       500      610      700      900      950      970     1000      129      960     1100   
                                          VAR    BASINP    GEOM    SYMINP    ZMAT    AOBASIS   BASIS     P2S    ABASIS      S 
                                         1400     1410     1200     1210     1080     1600     1650     1300     1700   
                                           T        V       H0       H01     AOSYM     SMH    MOLCAS    ERIS     OPER   

 PROGRAMS   *        TOTAL       INT
 CPU TIMES  *         2.17      2.14
 REAL TIME  *         2.59 SEC
 DISK USED  *       448.24 MB      
 GA USED    *         0.00 MB       (max)       0.00 MB       (current)
 **********************************************************************************************************************************

1PROGRAM * RHF-SCF (CLOSED SHELL)       Authors: W. Meyer, H.-J. Werner


 NUMBER OF ELECTRONS:      22+   22-
 CONVERGENCE THRESHOLDS:    1.00E-10 (Density)    1.00E-13 (Energy)
 MAX. NUMBER OF ITERATIONS:      200
 INTERPOLATION TYPE:            DIIS
 INTERPOLATION STEPS:              2 (START)      1 (STEP)
 LEVEL SHIFTS:                  0.00 (CLOSED)  0.00 (OPEN) 



 Orbital guess generated from atomic densities. Full valence occupancy:   19  19

 Molecular orbital dump at record        2100.2

 Initial alpha occupancy:  13   9
 Initial beta  occupancy:  13   9
 Wave function symmetry:    1

 ITERATION    DDIFF          GRAD             ENERGY        2-EL.EN.            DIPOLE MOMENTS         DIIS
    1      0.000D+00      0.000D+00      -231.78149765    590.482175    0.00000   -0.00399   -0.00002    0
    2      0.000D+00      0.638D-02      -231.84385014    585.626137    0.00000    0.00263   -0.00000    1
    3      0.129D-01      0.251D-02      -231.85140410    587.950838    0.00000    0.00214   -0.00001    2
    4      0.479D-02      0.854D-03      -231.85264708    587.340383    0.00000    0.00275   -0.00001    3
    5      0.178D-02      0.870D-04      -231.85266542    587.345494    0.00000    0.00291   -0.00001    4
    6      0.327D-03      0.186D-04      -231.85266602    587.342387    0.00000    0.00288   -0.00001    5
    7      0.456D-04      0.618D-05      -231.85266608    587.343431    0.00000    0.00289   -0.00001    6
    8      0.177D-04      0.121D-05      -231.85266608    587.343315    0.00000    0.00289   -0.00001    7
    9      0.418D-05      0.247D-06      -231.85266608    587.343353    0.00000    0.00289   -0.00001    6
   10      0.928D-06      0.514D-07      -231.85266608    587.343346    0.00000    0.00289   -0.00001    6
   11      0.196D-06      0.787D-08      -231.85266608    587.343349    0.00000    0.00289   -0.00001    6
   12      0.224D-07      0.226D-08      -231.85266608    587.343348    0.00000    0.00289   -0.00001    6
   13      0.617D-08      0.684D-09      -231.85266608    587.343348    0.00000    0.00289   -0.00001    6
   14      0.181D-08      0.150D-09      -231.85266608    587.343348    0.00000    0.00289   -0.00001    6
   15      0.458D-09      0.440D-10      -231.85266608    587.343348    0.00000    0.00289   -0.00001    7
   16      0.800D-10      0.132D-10      -231.85266608    587.343348    0.00000    0.00289   -0.00001    7
   17      0.365D-10      0.352D-11      -231.85266608    587.343348    0.00000    0.00289   -0.00001    7
   18      0.101D-10      0.967D-12      -231.85266608    587.343348    0.00000    0.00289   -0.00001    7
   19      0.313D-11      0.267D-12      -231.85266608    587.343348    0.00000    0.00289   -0.00001    7
   20      0.991D-12      0.792D-13      -231.85266608    587.343348    0.00000    0.00289   -0.00001    7
   21      0.271D-12      0.362D-13      -231.85266608    587.343348    0.00000    0.00289   -0.00001    8
   22      0.165D-12      0.266D-13      -231.85266608    587.343348    0.00000    0.00289   -0.00001    8
   23      0.102D-12      0.244D-13      -231.85266608    587.343348    0.00000    0.00289   -0.00001    9
   24      0.731D-13      0.229D-13      -231.85266608    587.343348    0.00000    0.00289   -0.00001    9
   25      0.481D-13      0.201D-13      -231.85266608    587.343348    0.00000    0.00289   -0.00001    9
   26      0.354D-13      0.298D-13      -231.85266608    587.343348    0.00000    0.00289   -0.00001    0

 Final occupancy:  13   9

 !RHF STATE 1.1 Energy               -231.852666083560
 Nuclear energy                       217.75804649
 One-electron energy                 -743.28238655
 Two-electron energy                  293.67167397
 Virial quotient                       -1.00115557
 !RHF STATE 1.1 Dipole moment           0.00000000     0.00289314    -0.00000548
 Dipole moment /Debye                   0.00000000     0.00735314    -0.00001394

 Orbital energies:

         1.1          2.1          3.1          4.1          5.1          6.1          7.1          8.1          9.1         10.1
    -11.233779   -11.229532   -11.228985    -1.122178    -1.008410    -0.861948    -0.678375    -0.597626    -0.595245    -0.561512

        11.1         12.1         13.1         14.1         15.1
     -0.490812    -0.358787    -0.329769     0.180772     0.223620

         1.2          2.2          3.2          4.2          5.2          6.2          7.2          8.2          9.2         10.2
    -11.233779   -11.227917   -11.227370    -1.004920    -0.784632    -0.654606    -0.561728    -0.531809    -0.445800     0.174483

        11.2
      0.193449


 **********************************************************************************************************************************
 DATASETS  * FILE   NREC   LENGTH (MB)   RECORD NAMES
              1      19      122.83       500      610      700      900      950      970     1000      129      960     1100   
                                          VAR    BASINP    GEOM    SYMINP    ZMAT    AOBASIS   BASIS     P2S    ABASIS      S 
                                         1400     1410     1200     1210     1080     1600     1650     1300     1700   
                                           T        V       H0       H01     AOSYM     SMH    MOLCAS    ERIS     OPER   

              2       3        0.65       700     1000     2100   
                                         GEOM     BASIS     RHF  

 PROGRAMS   *        TOTAL       RHF       INT
 CPU TIMES  *         3.77      1.60      2.14
 REAL TIME  *         4.48 SEC
 DISK USED  *       448.24 MB      
 GA USED    *         0.00 MB       (max)       0.00 MB       (current)
 **********************************************************************************************************************************


1PROGRAM * CCSD (Closed-shell coupled cluster)     Authors: C. Hampel, H.-J. Werner, 1991, M. Deegan, P.J. Knowles, 1992


 Convergence thresholds:  THRVAR = 1.00D-08  THRDEN = 1.00D-12

 CCSD(T)     terms to be evaluated (factor= 1.000)


 Number of core orbitals:           6 (   3   3 )
 Number of closed-shell orbitals:  16 (  10   6 )
 Number of external orbitals:     102 (  49  53 )

 Molecular orbitals read from record     2100.2  Type=RHF/CANONICAL (state 1.1)

 Number of N-1 electron functions:              16
 Number of N-2 electron functions:             136
 Number of singly external CSFs:               808
 Number of doubly external CSFs:            666736
 Total number of CSFs:                      667545

 Length of J-op  integral file:               0.00 MB
 Length of K-op  integral file:               0.57 MB
 Length of 3-ext integral record:             0.00 MB

 Memory could be reduced to 11.72 Mwords without degradation in triples

 Integral transformation finished. Total CPU:   0.42 sec, npass=  1  Memory used:   7.32 MW

 Reference energy:                   -231.85266608

 MP2 singlet pair energy:              -0.50639739
 MP2 triplet pair energy:              -0.29378131
 MP2 correlation energy:               -0.80017870
 MP2 total energy:                   -232.65284478

 SCS-MP2 correlation energy:           -0.79047413   (PS=  1.200000  PT=  0.333333)
 SCS-MP2 total energy:               -232.64314021

 ITER.      SQ.NORM     CORR.ENERGY   TOTAL ENERGY   ENERGY CHANGE        DEN1      VAR(S)    VAR(P)  DIIS     TIME
   1      1.31822396    -0.85463253  -232.70729862    -0.05445383    -0.03136150  0.31D-02  0.54D-02  1  1     1.29
   2      1.34642627    -0.86045936  -232.71312544    -0.00582682    -0.02421004  0.68D-04  0.70D-03  2  2     2.20
   3      1.35481315    -0.86077165  -232.71343774    -0.00031230    -0.00386577  0.20D-04  0.69D-04  3  3     3.09
   4      1.35835785    -0.86089259  -232.71355867    -0.00012094    -0.00107840  0.10D-05  0.68D-05  4  4     4.00
   5      1.35919337    -0.86090443  -232.71357052    -0.00001184    -0.00017821  0.50D-07  0.66D-06  5  5     4.90
   6      1.35935093    -0.86089677  -232.71356285     0.00000766    -0.00002583  0.49D-08  0.36D-07  6  6     5.81
   7      1.35936637    -0.86089743  -232.71356352    -0.00000066     0.00000108  0.17D-08  0.32D-08  6  2     6.71
   8      1.35937104    -0.86089730  -232.71356338     0.00000014    -0.00000094  0.56D-10  0.35D-09  6  1     7.62
   9      1.35937108    -0.86089737  -232.71356345    -0.00000007     0.00000044  0.18D-10  0.52D-10  6  3     8.52
  10      1.35937101    -0.86089741  -232.71356349    -0.00000004     0.00000017  0.80D-12  0.82D-11  6  4     9.42
  11      1.35937045    -0.86089744  -232.71356352    -0.00000003     0.00000022  0.85D-13  0.11D-11  6  6    10.33
  12      1.35937034    -0.86089744  -232.71356353    -0.00000001     0.00000005  0.20D-13  0.98D-13  6  5    11.24
  13      1.35937034    -0.86089744  -232.71356353     0.00000000    -0.00000000  0.76D-14  0.15D-13  6  2    12.14
  14      1.35937036    -0.86089744  -232.71356352     0.00000000    -0.00000001  0.56D-15  0.13D-14  6  1    13.04
  15      1.35937037    -0.86089744  -232.71356352     0.00000000    -0.00000000  0.17D-15  0.15D-15  6  3    13.95
  16      1.35937037    -0.86089744  -232.71356352     0.00000000    -0.00000000  0.19D-16  0.24D-16  6  4    14.85
  17      1.35937037    -0.86089744  -232.71356352    -0.00000000     0.00000000  0.34D-17  0.38D-17  6  6    15.75
  18      1.35937037    -0.86089744  -232.71356352    -0.00000000     0.00000000  0.23D-18  0.65D-18  6  5    16.65
  19      1.35937037    -0.86089744  -232.71356352     0.00000000     0.00000000  0.29D-19  0.15D-18  6  2    17.55
  20      1.35937037    -0.86089744  -232.71356352     0.00000000    -0.00000000  0.65D-21  0.26D-19  6  1    18.47
  21      1.35937037    -0.86089744  -232.71356352     0.00000000    -0.00000000  0.14D-21  0.18D-20  6  4    19.37
  22      1.35937037    -0.86089744  -232.71356352     0.00000000    -0.00000000  0.16D-22  0.85D-22  6  3    20.28

 Norm of t1 vector:      0.07885068      S-energy:    -0.00000000      T1 diagnostic:  0.00985634
                                                                       D1 diagnostic:  0.02884849

 Doubles amplitudes (print threshold =  0.500E-01):

         I         J         SYM. A    SYM. B    A         B      T(IJ, AB)

         9         9         2         2         1         1     -0.07473349
        10         9         2         2         2         1     -0.06108443
        10        10         2         2         2         2     -0.05813981


 Total CPU time for triples:     15.12 sec


 RESULTS
 =======

  Reference energy                   -231.852666083560
  CCSD singlet pair energy             -0.593574388813
  CCSD triplet pair energy             -0.267323051901
  CCSD correlation energy              -0.860897440714

  Triples (T) contribution             -0.032225486325
  Total correlation energy             -0.893122927040

  CCSD total energy                  -232.713563524274
  CCSD[T] energy                     -232.746522328733
  CCSD-T energy                      -232.745470217179
 !CCSD(T) total energy               -232.745789010600

 Timing summary (sec):

 STEP                 CPU(USER)    SYS     CPU(TOT)    WALL
 Transformation          0.43      0.07      0.50      0.51
 CCSD iterations        19.86      0.89     20.75     20.87
 Triples                15.12      0.54     15.66     15.67

 Program statistics:

 Available memory in ccsd:               999998876
 Min. memory needed in ccsd:               1756355
 Max. memory used in ccsd:                 2339771
 Max. memory used in cckext:               2447296 (22 integral passes)



 **********************************************************************************************************************************
 DATASETS  * FILE   NREC   LENGTH (MB)   RECORD NAMES
              1      20      170.00       500      610      700      900      950      970     1000      129      960     1100   
                                          VAR    BASINP    GEOM    SYMINP    ZMAT    AOBASIS   BASIS     P2S    ABASIS      S 
                                         1400     1410     1200     1210     1080     1600     1650     1300     1700     1380   
                                           T        V       H0       H01     AOSYM     SMH    MOLCAS    ERIS     OPER     JKOP   

              2       3        0.65       700     1000     2100   
                                         GEOM     BASIS     RHF  

 PROGRAMS   *        TOTAL   CCSD(T)       RHF       INT
 CPU TIMES  *        39.19     35.42      1.60      2.14
 REAL TIME  *        41.56 SEC
 DISK USED  *       448.24 MB      
 GA USED    *         0.00 MB       (max)       0.00 MB       (current)
 **********************************************************************************************************************************

        CCSD(T)         RHF-SCF 
   -232.74578901   -231.85266608
 **********************************************************************************************************************************
 Variable memory released
