
 Primary working directories    : /tmp/943183.321.gen6.q
 Secondary working directories  : /tmp/943183.321.gen6.q
 Wavefunction directory         : /home/vulcan/mel64643/wfu/
 Main file repository           : /tmp/943183.321.gen6.q/

 ARCHNAME  : Linux/x86_64
 FC        : /opt/intel/compilers_and_libraries_2016.1.150/linux/bin/intel64/ifort
 FCVERSION : 16.0.1
 BLASLIB   : -mkl
 id        : ccgc

 Nodes     nprocs
 n079         1
 ga_uses_ma=false, calling ma_init with nominal heap.
 GA-space will be limited to   8.0 MW (determined by -G option)

 Using customized tuning parameters: mindgm=10; mindgv=16; mindgc=4; mindgr=1; noblas=0; mincuda=1000; minvec=7
 default implementation of scratch files=df  

 ***,Optimization of h2o_2
 memory,1000,m
 gthresh,energy=1.0d-12,orbital=1.0d-10,oneint=1.0d-16,twoint=1.0d-16,optgrad=1.0d-6,compress=1.0d-13
 geomtyp=xyz
 
 bohr
 geometry = {
  C    0.0019069248   -3.4210800946   -0.0025202608
  H   -0.9656622465   -2.7409841529   -1.6890359249
  H   -0.9656012658   -2.7135493871    1.6727062478
  H    1.9457894422   -2.7396537396   -0.0081165529
  H   -0.0068587054   -5.4808047048    0.0142890583
  C   -0.0009749654    3.4224165239    0.0009050163
  H   -0.0025010866    5.4772275577    0.0019335652
  H    0.9676624278    2.7359367602   -1.6762858321
  H    0.9723767652    2.7309091293    1.6855661981
  H   -1.9461372903    2.7295821078    0.0005584850
 }
 
 basis=AVDZ, H=VDZ
 {rhf;maxit,200}
 {ccsd(t);maxit,200}

 Variables initialized (661), CPU time= 0.00 sec
 Commands  initialized (458), CPU time= 0.01 sec, 486 directives.
 Default parameters read. Elapsed time= 0.04 sec

 Checking input...
 Passed
1


                                         ***  PROGRAM SYSTEM MOLPRO  ***
                         Copyright, University College Cardiff Consultants Limited, 2008

                                    Version 2010.1 linked May 16 2016 07:17:05


 **********************************************************************************************************************************
 LABEL *   Optimization of h2o_2                                                         
 Linux-4.4.3/n079(x86_64) 64 bit mpp version                                             DATE: 23-Oct-23          TIME: 11:51:03  
 **********************************************************************************************************************************

 SHA1:             9e8077add272b0f3cad6f7df79ec5211205f459d
 **********************************************************************************************************************************

 THRESHOLDS:

 ZERO    =  1.00D-12  ONEINT  =  1.00D-16  TWOINT  =  1.00D-16  PREFAC  =  1.00D-14  LOCALI  =  1.00D-09  EORDER  =  1.00D-04
 ENERGY  =  1.00D-12  ETEST   =  0.00D+00  EDENS   =  0.00D+00  THRDEDEF=  1.00D-06  GRADIENT=  1.00D-02  STEP    =  1.00D-03
 ORBITAL =  1.00D-10  CIVEC   =  1.00D-05  COEFF   =  1.00D-04  PRINTCI =  5.00D-02  PUNCHCI =  9.90D+01  OPTGRAD =  1.00D-06
 OPTENERG=  1.00D-06  OPTSTEP =  3.00D-04  THRGRAD =  1.00D-10  COMPRESS=  1.00D-13  VARMIN  =  1.00D-07  VARMAX  =  1.00D-03
 THRDOUB =  0.00D+00  THRDIV  =  1.00D-05  THRRED  =  1.00D-07  THRPSP  =  1.00D+00  THRDC   =  1.00D-10  THRCS   =  1.00D-10
 THRNRM  =  1.00D-08  THREQ   =  0.00D+00  THRDE   =  1.00D+00  THRREF  =  1.00D-05  SPARFAC =  1.00D+00  THRDLP  =  1.00D-07
 THRDIA  =  1.00D-10  THRDLS  =  1.00D-07  THRGPS  =  0.00D+00  THRKEX  =  0.00D+00  THRDIS  =  2.00D-01  THRVAR  =  1.00D-10
 THRLOC  =  1.00D-06  THRGAP  =  1.00D-06  THRLOCT = -1.00D+00  THRGAPT = -1.00D+00  THRORB  =  1.00D-06  THRMLTP =  0.00D+00
 THRCPQCI=  1.00D-10  KEXTA   =  0.00D+00  THRCOARS=  0.00D+00  SYMTOL  =  1.00D-06  GRADTOL =  1.00D-06  THROVL  =  1.00D-08
 THRORTH =  1.00D-08  GRID    =  1.00D-06  GRIDMAX =  1.00D-03  DTMAX   =  0.00D+00

 SETTING GEOMTYP        =    XYZ
 ZUNIT=BOHR
 

 Variable memory set to 1000000000 words,  buffer space   230000 words

 SETTING BASIS          =    AVDZ,H=VDZ


 Recomputing integrals since basis changed


 Using spherical harmonics

 Library entry C      S aug-cc-pVDZ          selected for orbital group  1
 Library entry C      P aug-cc-pVDZ          selected for orbital group  1
 Library entry C      D aug-cc-pVDZ          selected for orbital group  1
 Library entry H      S cc-pVDZ              selected for orbital group  2
 Library entry H      P cc-pVDZ              selected for orbital group  2

1PROGRAM * SEWARD (Integral evaluation for generally contracted gaussian basis sets)     Author: Roland Lindh, 1990

 Geometry written to block  1 of record 700


 Point group  C1  



 ATOMIC COORDINATES

 NR  ATOM    CHARGE       X              Y              Z

   1  C       6.00    0.001906925   -3.421080095   -0.002520261
   2  H       1.00   -0.965662246   -2.740984153   -1.689035925
   3  H       1.00   -0.965601266   -2.713549387    1.672706248
   4  H       1.00    1.945789442   -2.739653740   -0.008116553
   5  H       1.00   -0.006858705   -5.480804705    0.014289058
   6  C       6.00   -0.000974965    3.422416524    0.000905016
   7  H       1.00   -0.002501087    5.477227558    0.001933565
   8  H       1.00    0.967662428    2.735936760   -1.676285832
   9  H       1.00    0.972376765    2.730909129    1.685566198
  10  H       1.00   -1.946137290    2.729582108    0.000558485

 Bond lengths in Bohr (Angstrom)

 1-2  2.059867878  1-3  2.059867873  1-4  2.059867092  1-5  2.059811850  6-7  2.054811858
     ( 1.090035135)     ( 1.090035132)     ( 1.090034719)     ( 1.090005486)     ( 1.087359604)

  6- 8  2.054867881   6- 9  2.064867881   6-10  2.064867095
       ( 1.087389250)       ( 1.092681022)       ( 1.092680606)

 Bond angles

  2-1-3  109.37992574   2-1-4  109.37980995   2-1-5  109.56240826   3-1-4  109.37980970

  3-1-5  109.56240831   4-1-5  109.56250035   7-6-8  109.56240831   7-6-9  109.56240831

  7- 6-10  109.56250040   8- 6- 9  109.37992579   8- 6-10  109.37980975   9- 6-10  109.37980975

 NUCLEAR CHARGE:                   20
 NUMBER OF PRIMITIVE AOS:         130
 NUMBER OF SYMMETRY AOS:          126
 NUMBER OF CONTRACTIONS:           86   (  86A   )
 NUMBER OF CORE ORBITALS:           2   (   2A   )
 NUMBER OF VALENCE ORBITALS:       16   (  16A   )


 NUCLEAR REPULSION ENERGY   41.34271951


 Eigenvalues of metric

         1 0.535E-02 0.665E-02 0.904E-02 0.114E-01 0.117E-01 0.118E-01 0.140E-01 0.141E-01


 Contracted 2-electron integrals neglected if value below      1.0D-16
 AO integral compression algorithm  1   Integral accuracy      1.0D-16

     57.934 MB (compressed) written to integral file ( 88.2%)

     Node minimum: 57.934 MB, node maximum: 57.934 MB


 NUMBER OF SORTED TWO-ELECTRON INTEGRALS:    6999411.     BUFFER LENGTH:  32768
 NUMBER OF SEGMENTS:   1  SEGMENT LENGTH:    6999411      RECORD LENGTH: 524288

 Memory used in sort:       7.56 MW

 SORT1 READ     8242194. AND WROTE     6858204. INTEGRALS IN     20 RECORDS. CPU TIME:     0.08 SEC, REAL TIME:     0.11 SEC
 SORT2 READ     6858204. AND WROTE     6999411. INTEGRALS IN    221 RECORDS. CPU TIME:     0.08 SEC, REAL TIME:     0.11 SEC

 FILE SIZES:   FILE 1:    52.4 MBYTE,  FILE 4:    83.9 MBYTE,   TOTAL:    136.3 MBYTE

 OPERATOR DM      FOR CENTER  0  COORDINATES:    0.000000    0.000000    0.000000


 **********************************************************************************************************************************
 DATASETS  * FILE   NREC   LENGTH (MB)   RECORD NAMES
              1      19       52.48       500      610      700      900      950      970     1000      129      960     1100   
                                          VAR    BASINP    GEOM    SYMINP    ZMAT    AOBASIS   BASIS     P2S    ABASIS      S 
                                         1400     1410     1200     1210     1080     1600     1650     1300     1700   
                                           T        V       H0       H01     AOSYM     SMH    MOLCAS    ERIS     OPER   

 PROGRAMS   *        TOTAL       INT
 CPU TIMES  *         0.62      0.58
 REAL TIME  *         0.90 SEC
 DISK USED  *       195.02 MB      
 GA USED    *         0.00 MB       (max)       0.00 MB       (current)
 **********************************************************************************************************************************

1PROGRAM * RHF-SCF (CLOSED SHELL)       Authors: W. Meyer, H.-J. Werner


 NUMBER OF ELECTRONS:      10+   10-    SPACE SYMMETRY=1    SPIN SYMMETRY: Singlet 
 CONVERGENCE THRESHOLDS:    1.00E-10 (Density)    1.00E-13 (Energy)
 MAX. NUMBER OF ITERATIONS:      200
 INTERPOLATION TYPE:            DIIS
 INTERPOLATION STEPS:              2 (START)      1 (STEP)
 LEVEL SHIFTS:                  0.00 (CLOSED)  0.00 (OPEN) 



 Orbital guess generated from atomic densities. Full valence occupancy:   18

 Molecular orbital dump at record        2100.2

 ITERATION    DDIFF          GRAD             ENERGY        2-EL.EN.            DIPOLE MOMENTS         DIIS
    1      0.000D+00      0.000D+00       -80.36118410    134.781520   -0.00118   -0.00166    0.00204    0
    2      0.000D+00      0.502D-02       -80.39312423    132.493530    0.00070    0.00084   -0.00121    1
    3      0.106D-01      0.186D-02       -80.39707815    133.314277    0.00059    0.00092   -0.00103    2
    4      0.347D-02      0.507D-03       -80.39766176    133.182023    0.00075    0.00124   -0.00131    3
    5      0.114D-02      0.611D-04       -80.39766958    133.189421    0.00077    0.00129   -0.00134    4
    6      0.162D-03      0.345D-05       -80.39766962    133.189252    0.00077    0.00129   -0.00134    5
    7      0.156D-04      0.267D-06       -80.39766962    133.189242    0.00077    0.00129   -0.00134    5
    8      0.863D-06      0.479D-07       -80.39766962    133.189242    0.00077    0.00129   -0.00134    4
    9      0.113D-06      0.812D-08       -80.39766962    133.189244    0.00077    0.00129   -0.00134    4
   10      0.234D-07      0.124D-08       -80.39766962    133.189243    0.00077    0.00129   -0.00134    5
   11      0.285D-08      0.344D-09       -80.39766962    133.189244    0.00077    0.00129   -0.00134    5
   12      0.790D-09      0.101D-09       -80.39766962    133.189244    0.00077    0.00129   -0.00134    6
   13      0.248D-09      0.175D-10       -80.39766962    133.189244    0.00077    0.00129   -0.00134    6
   14      0.467D-10      0.353D-11       -80.39766962    133.189244    0.00077    0.00129   -0.00134    6
   15      0.140D-10      0.504D-12       -80.39766962    133.189244    0.00077    0.00129   -0.00134    0

 Final occupancy:  10

 !RHF STATE 1.1 Energy                -80.397669616020
 Nuclear energy                        41.34271951
 One-electron energy                 -188.33501090
 Two-electron energy                   66.59462176
 Virial quotient                       -1.00212431
 !RHF STATE 1.1 Dipole moment           0.00077463     0.00129233    -0.00134263
 Dipole moment /Debye                   0.00196877     0.00328456    -0.00341239

 Orbital energies:

         1.1          2.1          3.1          4.1          5.1          6.1          7.1          8.1          9.1         10.1
    -11.215479   -11.215452    -0.945465    -0.939586    -0.551068    -0.546519    -0.545935    -0.539109    -0.538524    -0.535748

        11.1         12.1
      0.080164     0.084203


 **********************************************************************************************************************************
 DATASETS  * FILE   NREC   LENGTH (MB)   RECORD NAMES
              1      19       52.48       500      610      700      900      950      970     1000      129      960     1100   
                                          VAR    BASINP    GEOM    SYMINP    ZMAT    AOBASIS   BASIS     P2S    ABASIS      S 
                                         1400     1410     1200     1210     1080     1600     1650     1300     1700   
                                           T        V       H0       H01     AOSYM     SMH    MOLCAS    ERIS     OPER   

              2       3        0.57       700     1000     2100   
                                         GEOM     BASIS     RHF  

 PROGRAMS   *        TOTAL       RHF       INT
 CPU TIMES  *         1.29      0.66      0.58
 REAL TIME  *         1.67 SEC
 DISK USED  *       195.02 MB      
 GA USED    *         0.00 MB       (max)       0.00 MB       (current)
 **********************************************************************************************************************************


1PROGRAM * CCSD (Closed-shell coupled cluster)     Authors: C. Hampel, H.-J. Werner, 1991, M. Deegan, P.J. Knowles, 1992


 Convergence thresholds:  THRVAR = 1.00D-08  THRDEN = 1.00D-12

 CCSD(T)     terms to be evaluated (factor= 1.000)


 Number of core orbitals:           2 (   2 )
 Number of closed-shell orbitals:   8 (   8 )
 Number of external orbitals:      76 (  76 )

 Molecular orbitals read from record     2100.2  Type=RHF/CANONICAL (state 1.1)

 Number of N-1 electron functions:               8
 Number of N-2 electron functions:              36
 Number of singly external CSFs:               608
 Number of doubly external CSFs:            185136
 Total number of CSFs:                      185745

 Length of J-op  integral file:               0.00 MB
 Length of K-op  integral file:               0.54 MB
 Length of 3-ext integral record:             0.00 MB

 Memory could be reduced to 5.45 Mwords without degradation in triples

 Integral transformation finished. Total CPU:   0.16 sec, npass=  1  Memory used:   3.53 MW

 Reference energy:                    -80.39766962

 MP2 singlet pair energy:              -0.23821344
 MP2 triplet pair energy:              -0.09578828
 MP2 correlation energy:               -0.33400172
 MP2 total energy:                    -80.73167133

 SCS-MP2 correlation energy:           -0.34545772   (PS=  1.200000  PT=  0.333333)
 SCS-MP2 total energy:                -80.74312734

 ITER.      SQ.NORM     CORR.ENERGY   TOTAL ENERGY   ENERGY CHANGE        DEN1      VAR(S)    VAR(P)  DIIS     TIME
   1      1.13988428    -0.37811976   -80.77578937    -0.04411804    -0.03297270  0.68D-03  0.24D-02  1  1     0.41
   2      1.15302721    -0.38091318   -80.77858279    -0.00279342    -0.01280928  0.15D-04  0.11D-03  2  2     0.67
   3      1.15509798    -0.38105137   -80.77872099    -0.00013819    -0.00107870  0.24D-05  0.62D-05  3  3     0.94
   4      1.15552628    -0.38106900   -80.77873862    -0.00001763    -0.00017355  0.60D-07  0.37D-06  4  4     1.20
   5      1.15558688    -0.38106505   -80.77873466     0.00000396    -0.00002812  0.29D-08  0.21D-07  5  5     1.47
   6      1.15558911    -0.38106440   -80.77873402     0.00000064    -0.00000060  0.19D-09  0.15D-08  6  6     1.74
   7      1.15558927    -0.38106468   -80.77873430    -0.00000028     0.00000005  0.15D-10  0.95D-10  6  1     2.00
   8      1.15558933    -0.38106469   -80.77873431    -0.00000001    -0.00000009  0.18D-11  0.64D-11  6  2     2.27
   9      1.15558925    -0.38106469   -80.77873431     0.00000000     0.00000002  0.37D-12  0.44D-12  6  4     2.53
  10      1.15558924    -0.38106469   -80.77873431    -0.00000000    -0.00000000  0.29D-13  0.33D-13  6  3     2.80
  11      1.15558923    -0.38106469   -80.77873431    -0.00000000     0.00000000  0.24D-14  0.30D-14  6  5     3.06
  12      1.15558922    -0.38106469   -80.77873431    -0.00000000     0.00000000  0.20D-15  0.31D-15  6  6     3.33
  13      1.15558922    -0.38106469   -80.77873431    -0.00000000     0.00000000  0.12D-16  0.39D-16  6  1     3.59
  14      1.15558922    -0.38106469   -80.77873431    -0.00000000     0.00000000  0.16D-17  0.49D-17  6  2     3.86
  15      1.15558922    -0.38106469   -80.77873431    -0.00000000     0.00000000  0.11D-18  0.51D-18  6  4     4.12
  16      1.15558922    -0.38106469   -80.77873431    -0.00000000     0.00000000  0.11D-19  0.44D-19  6  3     4.38
  17      1.15558922    -0.38106469   -80.77873431     0.00000000    -0.00000000  0.21D-21  0.38D-20  6  6     4.65
  18      1.15558922    -0.38106469   -80.77873431     0.00000000    -0.00000000  0.34D-22  0.80D-22  6  5     4.92

 Norm of t1 vector:      0.03875628      S-energy:    -0.00000000      T1 diagnostic:  0.00685121
                                                                       D1 diagnostic:  0.01213951


 Total CPU time for triples:      2.19 sec


 RESULTS
 =======

  Reference energy                    -80.397669616020
  CCSD singlet pair energy             -0.287790411112
  CCSD triplet pair energy             -0.093274281934
  CCSD correlation energy              -0.381064693046

  Triples (T) contribution             -0.008788303252
  Total correlation energy             -0.389852996298

  CCSD total energy                   -80.778734309066
  CCSD[T] energy                      -80.787737224390
  CCSD-T energy                       -80.787410559835
 !CCSD(T) total energy                -80.787522612319

 Timing summary (sec):

 STEP                 CPU(USER)    SYS     CPU(TOT)    WALL
 Transformation          0.16      0.03      0.19      0.19
 CCSD iterations         4.76      0.24      5.00      5.03
 Triples                 2.19      0.07      2.26      2.26

 Program statistics:

 Available memory in ccsd:               999999644
 Min. memory needed in ccsd:                591289
 Max. memory used in ccsd:                  742713
 Max. memory used in cckext:                619606 (18 integral passes)



 **********************************************************************************************************************************
 DATASETS  * FILE   NREC   LENGTH (MB)   RECORD NAMES
              1      20       70.07       500      610      700      900      950      970     1000      129      960     1100   
                                          VAR    BASINP    GEOM    SYMINP    ZMAT    AOBASIS   BASIS     P2S    ABASIS      S 
                                         1400     1410     1200     1210     1080     1600     1650     1300     1700     1380   
                                           T        V       H0       H01     AOSYM     SMH    MOLCAS    ERIS     OPER     JKOP   

              2       3        0.57       700     1000     2100   
                                         GEOM     BASIS     RHF  

 PROGRAMS   *        TOTAL   CCSD(T)       RHF       INT
 CPU TIMES  *         8.41      7.12      0.66      0.58
 REAL TIME  *         9.18 SEC
 DISK USED  *       195.02 MB      
 GA USED    *         0.00 MB       (max)       0.00 MB       (current)
 **********************************************************************************************************************************

        CCSD(T)         RHF-SCF 
    -80.78752261    -80.39766962
 **********************************************************************************************************************************
 Variable memory released
