
 Primary working directories    : /tmp/879303.731.gen6.q
 Secondary working directories  : /tmp/879303.731.gen6.q
 Wavefunction directory         : /home/vulcan/lo21740/wfu/
 Main file repository           : /tmp/879303.731.gen6.q/

 ARCHNAME  : Linux/x86_64
 FC        : /opt/intel/compilers_and_libraries_2016.1.150/linux/bin/intel64/ifort
 FCVERSION : 16.0.1
 BLASLIB   : -mkl
 id        : ccgc

 Nodes     nprocs
 n082         1
 ga_uses_ma=false, calling ma_init with nominal heap.
 GA-space will be limited to   8.0 MW (determined by -G option)

 Using customized tuning parameters: mindgm=10; mindgv=16; mindgc=4; mindgr=1; noblas=0; mincuda=1000; minvec=7
 default implementation of scratch files=df  

 ***,Optimization of formamide
 memory,1000,m
 gthresh,energy=1.0d-12,orbital=1.0d-10,oneint=1.0d-16,twoint=1.0d-16,optgrad=1.0d-6,compress=1.0d-13
 geomtyp=xyz
 
 bohr
 geometry = {
  C   -3.8260857851    0.0877813221   -0.0006609417
  O   -2.7273631018    2.1430467448   -0.0034074476
  N   -2.6822656284   -2.1789448746   -0.0007012358
  H   -3.7370327752   -3.7581102202   -0.0020636647
  H   -0.7540666275   -2.3045285017    0.0008108383
  H   -5.9034428212   -0.0216322726    0.0035273460
  C    3.8260857851   -0.0877813221    0.0006609417
  O    2.7273631018   -2.1430467448    0.0034074476
  N    2.6822656284    2.1789448746    0.0007012358
  H    3.7370327752    3.7581102202    0.0020636647
  H    0.7540666275    2.3045285017   -0.0008108383
  H    5.9034428212    0.0216322726   -0.0035273460
 }
 
 basis=AVDZ, H=VDZ
 {rhf;maxit,200}
 {ccsd(t);maxit,200}

 Variables initialized (661), CPU time= 0.01 sec
 Commands  initialized (458), CPU time= 0.00 sec, 486 directives.
 Default parameters read. Elapsed time= 0.04 sec

 Checking input...
 Passed
1


                                         ***  PROGRAM SYSTEM MOLPRO  ***
                         Copyright, University College Cardiff Consultants Limited, 2008

                                    Version 2010.1 linked May 16 2016 07:17:05


 **********************************************************************************************************************************
 LABEL *   Optimization of formamide                                                     
 Linux-4.4.3/n082(x86_64) 64 bit mpp version                                             DATE: 23-May-23          TIME: 18:59:07  
 **********************************************************************************************************************************

 SHA1:             9e8077add272b0f3cad6f7df79ec5211205f459d
 **********************************************************************************************************************************

 THRESHOLDS:

 ZERO    =  1.00D-12  ONEINT  =  1.00D-16  TWOINT  =  1.00D-16  PREFAC  =  1.00D-14  LOCALI  =  1.00D-09  EORDER  =  1.00D-04
 ENERGY  =  1.00D-12  ETEST   =  0.00D+00  EDENS   =  0.00D+00  THRDEDEF=  1.00D-06  GRADIENT=  1.00D-02  STEP    =  1.00D-03
 ORBITAL =  1.00D-10  CIVEC   =  1.00D-05  COEFF   =  1.00D-04  PRINTCI =  5.00D-02  PUNCHCI =  9.90D+01  OPTGRAD =  1.00D-06
 OPTENERG=  1.00D-06  OPTSTEP =  3.00D-04  THRGRAD =  1.00D-10  COMPRESS=  1.00D-13  VARMIN  =  1.00D-07  VARMAX  =  1.00D-03
 THRDOUB =  0.00D+00  THRDIV  =  1.00D-05  THRRED  =  1.00D-07  THRPSP  =  1.00D+00  THRDC   =  1.00D-10  THRCS   =  1.00D-10
 THRNRM  =  1.00D-08  THREQ   =  0.00D+00  THRDE   =  1.00D+00  THRREF  =  1.00D-05  SPARFAC =  1.00D+00  THRDLP  =  1.00D-07
 THRDIA  =  1.00D-10  THRDLS  =  1.00D-07  THRGPS  =  0.00D+00  THRKEX  =  0.00D+00  THRDIS  =  2.00D-01  THRVAR  =  1.00D-10
 THRLOC  =  1.00D-06  THRGAP  =  1.00D-06  THRLOCT = -1.00D+00  THRGAPT = -1.00D+00  THRORB  =  1.00D-06  THRMLTP =  0.00D+00
 THRCPQCI=  1.00D-10  KEXTA   =  0.00D+00  THRCOARS=  0.00D+00  SYMTOL  =  1.00D-06  GRADTOL =  1.00D-06  THROVL  =  1.00D-08
 THRORTH =  1.00D-08  GRID    =  1.00D-06  GRIDMAX =  1.00D-03  DTMAX   =  0.00D+00

 SETTING GEOMTYP        =    XYZ
 ZUNIT=BOHR
 

 Variable memory set to 1000000000 words,  buffer space   230000 words

 SETTING BASIS          =    AVDZ,H=VDZ


 Recomputing integrals since basis changed


 Using spherical harmonics

 Library entry C      S aug-cc-pVDZ          selected for orbital group  1
 Library entry C      P aug-cc-pVDZ          selected for orbital group  1
 Library entry C      D aug-cc-pVDZ          selected for orbital group  1
 Library entry O      S aug-cc-pVDZ          selected for orbital group  2
 Library entry O      P aug-cc-pVDZ          selected for orbital group  2
 Library entry O      D aug-cc-pVDZ          selected for orbital group  2
 Library entry N      S aug-cc-pVDZ          selected for orbital group  3
 Library entry N      P aug-cc-pVDZ          selected for orbital group  3
 Library entry N      D aug-cc-pVDZ          selected for orbital group  3
 Library entry H      S cc-pVDZ              selected for orbital group  4
 Library entry H      P cc-pVDZ              selected for orbital group  4

1PROGRAM * SEWARD (Integral evaluation for generally contracted gaussian basis sets)     Author: Roland Lindh, 1990

 Geometry written to block  1 of record 700


 Point group  Ci  



 ATOMIC COORDINATES

 NR  ATOM    CHARGE       X              Y              Z

   1  C       6.00   -3.826085785    0.087781322   -0.000660942
   2  C       6.00    3.826085785   -0.087781322    0.000660942
   3  O       8.00   -2.727363102    2.143046745   -0.003407448
   4  O       8.00    2.727363102   -2.143046745    0.003407448
   5  N       7.00   -2.682265628   -2.178944875   -0.000701236
   6  N       7.00    2.682265628    2.178944875    0.000701236
   7  H       1.00   -3.737032775   -3.758110220   -0.002063665
   8  H       1.00    3.737032775    3.758110220    0.002063665
   9  H       1.00   -0.754066627   -2.304528502    0.000810838
  10  H       1.00    0.754066627    2.304528502   -0.000810838
  11  H       1.00   -5.903442821   -0.021632273    0.003527346
  12  H       1.00    5.903442821    0.021632273   -0.003527346

 Bond lengths in Bohr (Angstrom)

  1- 3  2.330518190   1- 5  2.538970698   1-11  2.080240643   2- 4  2.330518190   2- 6  2.538970698
       ( 1.233257112)       ( 1.343565427)       ( 1.100815937)       ( 1.233257112)       ( 1.343565427)

  2-12  2.080240643   5- 7  1.899025745   5- 9  1.932284896   6- 8  1.899025745   6-10  1.932284896
       ( 1.100815937)       ( 1.004921143)       ( 1.022521128)       ( 1.004921143)       ( 1.022521128)

 Bond angles

  1- 5- 7  119.48384358   1- 5- 9  120.50251887   2- 6- 8  119.48384358   2- 6-10  120.50251887

  3- 1- 5  125.09537410   3- 1-11  121.14350379   4- 2- 6  125.09537410   4- 2-12  121.14350379

  5- 1-11  113.76110834   6- 2-12  113.76110834   7- 5- 9  120.01363729   8- 6-10  120.01363729

 NUCLEAR CHARGE:                   48
 NUMBER OF PRIMITIVE AOS:         264
 NUMBER OF SYMMETRY AOS:          252
 NUMBER OF CONTRACTIONS:          168   (  84Ag  +  84Au  )
 NUMBER OF CORE ORBITALS:           6   (   3Ag  +   3Au  )
 NUMBER OF VALENCE ORBITALS:       30   (  15Ag  +  15Au  )


 NUCLEAR REPULSION ENERGY  230.40701045


 Eigenvalues of metric

         1 0.626E-03 0.114E-02 0.162E-02 0.366E-02 0.514E-02 0.795E-02 0.800E-02 0.902E-02
         2 0.417E-03 0.135E-02 0.169E-02 0.436E-02 0.526E-02 0.720E-02 0.813E-02 0.108E-01


 Contracted 2-electron integrals neglected if value below      1.0D-16
 AO integral compression algorithm  1   Integral accuracy      1.0D-16

     490.734 MB (compressed) written to integral file ( 94.7%)

     Node minimum: 490.734 MB, node maximum: 490.734 MB


 NUMBER OF SORTED TWO-ELECTRON INTEGRALS:   50983170.     BUFFER LENGTH:  32768
 NUMBER OF SEGMENTS:   4  SEGMENT LENGTH:   15993600      RECORD LENGTH: 524288

 Memory used in sort:      16.55 MW

 SORT1 READ    64801056. AND WROTE    50982874. INTEGRALS IN    147 RECORDS. CPU TIME:     0.59 SEC, REAL TIME:     0.93 SEC
 SORT2 READ    50982874. AND WROTE    50983170. INTEGRALS IN   1872 RECORDS. CPU TIME:     0.47 SEC, REAL TIME:     0.67 SEC

 FILE SIZES:   FILE 1:   398.7 MBYTE,  FILE 4:   616.6 MBYTE,   TOTAL:   1015.3 MBYTE

 OPERATOR DM      FOR CENTER  0  COORDINATES:    0.000000    0.000000    0.000000


 **********************************************************************************************************************************
 DATASETS  * FILE   NREC   LENGTH (MB)   RECORD NAMES
              1      19      398.91       500      610      700      900      950      970     1000      129      960     1100   
                                          VAR    BASINP    GEOM    SYMINP    ZMAT    AOBASIS   BASIS     P2S    ABASIS      S 
                                         1400     1410     1200     1210     1080     1600     1650     1300     1700   
                                           T        V       H0       H01     AOSYM     SMH    MOLCAS    ERIS     OPER   

 PROGRAMS   *        TOTAL       INT
 CPU TIMES  *         3.68      3.64
 REAL TIME  *         4.64 SEC
 DISK USED  *         1.51 GB      
 GA USED    *         0.00 MB       (max)       0.00 MB       (current)
 **********************************************************************************************************************************

1PROGRAM * RHF-SCF (CLOSED SHELL)       Authors: W. Meyer, H.-J. Werner


 NUMBER OF ELECTRONS:      24+   24-
 CONVERGENCE THRESHOLDS:    1.00E-10 (Density)    1.00E-13 (Energy)
 MAX. NUMBER OF ITERATIONS:      200
 INTERPOLATION TYPE:            DIIS
 INTERPOLATION STEPS:              2 (START)      1 (STEP)
 LEVEL SHIFTS:                  0.00 (CLOSED)  0.00 (OPEN) 



 Orbital guess generated from atomic densities. Full valence occupancy:   18  18

 Molecular orbital dump at record        2100.2

 Initial alpha occupancy:  12  12
 Initial beta  occupancy:  12  12
 Wave function symmetry:    1

 ITERATION    DDIFF          GRAD             ENERGY        2-EL.EN.            DIPOLE MOMENTS         DIIS
    1      0.000D+00      0.000D+00      -337.80320340    704.477778    0.00000    0.00000    0.00000    0
    2      0.000D+00      0.908D-02      -337.88064142    698.881887    0.00000    0.00000    0.00000    1
    3      0.174D-01      0.663D-02      -337.93886467    701.625526    0.00000    0.00000    0.00000    2
    4      0.688D-02      0.874D-03      -337.94107847    701.526876    0.00000    0.00000    0.00000    3
    5      0.151D-02      0.301D-03      -337.94134565    701.462046    0.00000    0.00000    0.00000    4
    6      0.542D-03      0.984D-04      -337.94140647    701.487550    0.00000    0.00000    0.00000    5
    7      0.234D-03      0.436D-04      -337.94141735    701.478589    0.00000    0.00000    0.00000    6
    8      0.116D-03      0.130D-04      -337.94141829    701.484212    0.00000    0.00000    0.00000    7
    9      0.358D-04      0.396D-05      -337.94141836    701.481724    0.00000    0.00000    0.00000    8
   10      0.972D-05      0.137D-05      -337.94141838    701.482259    0.00000    0.00000    0.00000    7
   11      0.406D-05      0.328D-06      -337.94141838    701.482187    0.00000    0.00000    0.00000    8
   12      0.931D-06      0.490D-07      -337.94141838    701.482194    0.00000    0.00000    0.00000    7
   13      0.143D-06      0.116D-07      -337.94141838    701.482195    0.00000    0.00000    0.00000    7
   14      0.357D-07      0.207D-08      -337.94141838    701.482194    0.00000    0.00000    0.00000    6
   15      0.509D-08      0.785D-09      -337.94141838    701.482195    0.00000    0.00000    0.00000    6
   16      0.167D-08      0.318D-09      -337.94141838    701.482195    0.00000    0.00000    0.00000    7
   17      0.578D-09      0.757D-10      -337.94141838    701.482195    0.00000    0.00000    0.00000    7
   18      0.184D-09      0.225D-10      -337.94141838    701.482195    0.00000    0.00000    0.00000    7
   19      0.598D-10      0.767D-11      -337.94141838    701.482195    0.00000    0.00000    0.00000    7
   20      0.189D-10      0.269D-11      -337.94141838    701.482195    0.00000    0.00000    0.00000    7
   21      0.760D-11      0.574D-12      -337.94141838    701.482195    0.00000    0.00000    0.00000    8
   22      0.170D-11      0.227D-12      -337.94141838    701.482195    0.00000    0.00000    0.00000    8
   23      0.864D-12      0.905D-13      -337.94141838    701.482195    0.00000    0.00000    0.00000    8
   24      0.962D-12      0.832D-13      -337.94141838    701.482195    0.00000    0.00000    0.00000    8
   25      0.713D-12      0.533D-13      -337.94141838    701.482195    0.00000    0.00000    0.00000    9
   26      0.361D-12      0.476D-13      -337.94141838    701.482195    0.00000    0.00000    0.00000    9
   27      0.369D-12      0.463D-13      -337.94141838    701.482195    0.00000    0.00000    0.00000    9
   28      0.196D-12      0.421D-13      -337.94141838    701.482195    0.00000    0.00000    0.00000    9
   29      0.205D-12      0.403D-13      -337.94141838    701.482195    0.00000    0.00000    0.00000    9
   30      0.185D-12      0.378D-13      -337.94141838    701.482195    0.00000    0.00000    0.00000    9
   31      0.178D-12      0.400D-13      -337.94141838    701.482195    0.00000    0.00000    0.00000    9
   32      0.131D-12      0.410D-13      -337.94141838    701.482195    0.00000    0.00000    0.00000    9
   33      0.110D-12      0.390D-13      -337.94141838    701.482195    0.00000    0.00000    0.00000    9
   34      0.642D-13      0.414D-13      -337.94141838    701.482195    0.00000    0.00000    0.00000    9
   35      0.686D-13      0.376D-13      -337.94141838    701.482195    0.00000    0.00000    0.00000    9
   36      0.734D-13      0.471D-13      -337.94141838    701.482195    0.00000    0.00000    0.00000    9
   37      0.814D-13      0.298D-13      -337.94141838    701.482195    0.00000    0.00000    0.00000    9
   38      0.124D-12      0.385D-13      -337.94141838    701.482195    0.00000    0.00000    0.00000    0

 Final occupancy:  12  12

 !RHF STATE 1.1 Energy               -337.941418375919
 Nuclear energy                       230.40701045
 One-electron energy                 -919.08952615
 Two-electron energy                  350.74109732
 Virial quotient                       -1.00181604
 !RHF STATE 1.1 Dipole moment           0.00000000     0.00000000     0.00000000
 Dipole moment /Debye                   0.00000000     0.00000000     0.00000000

 Orbital energies:

         1.1          2.1          3.1          4.1          5.1          6.1          7.1          8.1          9.1         10.1
    -20.540894   -15.589610   -11.368875    -1.388165    -1.212402    -0.861255    -0.749694    -0.644827    -0.618896    -0.565140

        11.1         12.1         13.1         14.1
     -0.454323    -0.420365     0.068792     0.093360

         1.2          2.2          3.2          4.2          5.2          6.2          7.2          8.2          9.2         10.2
    -20.540894   -15.589610   -11.368875    -1.383381    -1.218663    -0.836189    -0.740748    -0.705425    -0.593346    -0.573233

        11.2         12.2         13.2         14.2
     -0.429106    -0.409748     0.067961     0.083216


 **********************************************************************************************************************************
 DATASETS  * FILE   NREC   LENGTH (MB)   RECORD NAMES
              1      19      398.91       500      610      700      900      950      970     1000      129      960     1100   
                                          VAR    BASINP    GEOM    SYMINP    ZMAT    AOBASIS   BASIS     P2S    ABASIS      S 
                                         1400     1410     1200     1210     1080     1600     1650     1300     1700   
                                           T        V       H0       H01     AOSYM     SMH    MOLCAS    ERIS     OPER   

              2       3        0.76       700     1000     2100   
                                         GEOM     BASIS     RHF  

 PROGRAMS   *        TOTAL       RHF       INT
 CPU TIMES  *        12.10      8.42      3.64
 REAL TIME  *        14.56 SEC
 DISK USED  *         1.51 GB      
 GA USED    *         0.00 MB       (max)       0.00 MB       (current)
 **********************************************************************************************************************************


1PROGRAM * CCSD (Closed-shell coupled cluster)     Authors: C. Hampel, H.-J. Werner, 1991, M. Deegan, P.J. Knowles, 1992


 Convergence thresholds:  THRVAR = 1.00D-08  THRDEN = 1.00D-12

 CCSD(T)     terms to be evaluated (factor= 1.000)


 Number of core orbitals:           6 (   3   3 )
 Number of closed-shell orbitals:  18 (   9   9 )
 Number of external orbitals:     144 (  72  72 )

 Molecular orbitals read from record     2100.2  Type=RHF/CANONICAL (state 1.1)

 Number of N-1 electron functions:              18
 Number of N-2 electron functions:             171
 Number of singly external CSFs:              1296
 Number of doubly external CSFs:           1680912
 Total number of CSFs:                     1682209

 Length of J-op  integral file:               0.00 MB
 Length of K-op  integral file:               1.01 MB
 Length of 3-ext integral record:             0.00 MB

 Memory could be reduced to 35.12 Mwords without degradation in triples

 Integral transformation finished. Total CPU:   1.98 sec, npass=  1  Memory used:  19.69 MW

 Reference energy:                   -337.94141838

 MP2 singlet pair energy:              -0.61982582
 MP2 triplet pair energy:              -0.40497793
 MP2 correlation energy:               -1.02480375
 MP2 total energy:                   -338.96622213

 SCS-MP2 correlation energy:           -0.99577725   (PS=  1.200000  PT=  0.333333)
 SCS-MP2 total energy:               -338.93719563

 ITER.      SQ.NORM     CORR.ENERGY   TOTAL ENERGY   ENERGY CHANGE        DEN1      VAR(S)    VAR(P)  DIIS     TIME
   1      1.31897603    -1.05346573  -338.99488411    -0.02866198     0.00253322  0.10D-01  0.60D-02  1  1     5.03
   2      1.34447111    -1.05539683  -338.99681520    -0.00193109    -0.02590716  0.22D-03  0.11D-02  2  2     8.24
   3      1.35711261    -1.05629868  -338.99771705    -0.00090185    -0.00556427  0.22D-03  0.51D-04  3  3    11.46
   4      1.36234071    -1.05603326  -338.99745163     0.00026542    -0.00169297  0.22D-04  0.93D-05  4  4    14.67
   5      1.36448398    -1.05597630  -338.99739468     0.00005695    -0.00044566  0.26D-05  0.11D-05  5  5    17.89
   6      1.36499708    -1.05594659  -338.99736497     0.00002971    -0.00004776  0.24D-06  0.17D-06  6  6    21.12
   7      1.36512568    -1.05593454  -338.99735292     0.00001205    -0.00000771  0.31D-07  0.22D-07  6  2    24.35
   8      1.36514981    -1.05593439  -338.99735277     0.00000015     0.00000004  0.58D-08  0.26D-08  6  1    27.57
   9      1.36515212    -1.05593409  -338.99735246     0.00000031     0.00000185  0.91D-09  0.46D-09  6  4    30.81
  10      1.36515619    -1.05593402  -338.99735240     0.00000006    -0.00000042  0.26D-09  0.46D-10  6  3    34.04
  11      1.36515640    -1.05593410  -338.99735247    -0.00000007     0.00000016  0.39D-10  0.11D-10  6  5    37.28
  12      1.36515620    -1.05593411  -338.99735249    -0.00000001     0.00000009  0.51D-11  0.27D-11  6  6    40.49
  13      1.36515590    -1.05593415  -338.99735253    -0.00000004     0.00000013  0.81D-12  0.33D-12  6  2    43.72
  14      1.36515574    -1.05593416  -338.99735253    -0.00000001     0.00000004  0.98D-13  0.66D-13  6  1    46.96
  15      1.36515568    -1.05593416  -338.99735254    -0.00000000     0.00000001  0.19D-13  0.13D-13  6  4    50.18
  16      1.36515565    -1.05593416  -338.99735254    -0.00000000     0.00000000  0.34D-14  0.19D-14  6  3    53.42
  17      1.36515564    -1.05593416  -338.99735254    -0.00000000    -0.00000000  0.72D-15  0.32D-15  6  5    56.64
  18      1.36515564    -1.05593416  -338.99735254    -0.00000000     0.00000000  0.91D-16  0.71D-16  6  6    59.89
  19      1.36515564    -1.05593416  -338.99735254    -0.00000000     0.00000000  0.25D-16  0.10D-16  6  2    63.11
  20      1.36515563    -1.05593416  -338.99735254    -0.00000000     0.00000000  0.32D-17  0.15D-17  6  1    66.35
  21      1.36515563    -1.05593416  -338.99735254    -0.00000000     0.00000000  0.35D-18  0.37D-18  6  4    69.57
  22      1.36515563    -1.05593416  -338.99735254    -0.00000000     0.00000000  0.14D-18  0.57D-19  6  3    72.81
  23      1.36515563    -1.05593416  -338.99735254    -0.00000000     0.00000000  0.19D-19  0.10D-19  6  5    76.05
  24      1.36515563    -1.05593416  -338.99735254    -0.00000000     0.00000000  0.45D-20  0.22D-20  6  6    79.30
  25      1.36515563    -1.05593416  -338.99735254    -0.00000000    -0.00000000  0.16D-20  0.55D-21  6  2    82.54
  26      1.36515563    -1.05593416  -338.99735254    -0.00000000     0.00000000  0.36D-21  0.14D-21  6  1    85.77

 Norm of t1 vector:      0.14843832      S-energy:     0.00000000      T1 diagnostic:  0.01749362
                                                                       D1 diagnostic:  0.05931622


 Total CPU time for triples:     81.73 sec


 RESULTS
 =======

  Reference energy                   -337.941418375919
  CCSD singlet pair energy             -0.696981707549
  CCSD triplet pair energy             -0.358952456363
  CCSD correlation energy              -1.055934163912

  Triples (T) contribution             -0.039345258023
  Total correlation energy             -1.095279421935

  CCSD total energy                  -338.997352539831
  CCSD[T] energy                     -339.039912528301
  CCSD-T energy                      -339.035596221809
 !CCSD(T) total energy               -339.036697797854

 Timing summary (sec):

 STEP                 CPU(USER)    SYS     CPU(TOT)    WALL
 Transformation          2.03      0.19      2.22      2.22
 CCSD iterations        83.75      3.07     86.82     86.98
 Triples                81.73      2.28     84.01     84.03

 Program statistics:

 Available memory in ccsd:               999998604
 Min. memory needed in ccsd:               4264540
 Max. memory used in ccsd:                 5806348
 Max. memory used in cckext:               5610853 (26 integral passes)



 **********************************************************************************************************************************
 DATASETS  * FILE   NREC   LENGTH (MB)   RECORD NAMES
              1      20      537.44       500      610      700      900      950      970     1000      129      960     1100   
                                          VAR    BASINP    GEOM    SYMINP    ZMAT    AOBASIS   BASIS     P2S    ABASIS      S 
                                         1400     1410     1200     1210     1080     1600     1650     1300     1700     1380   
                                           T        V       H0       H01     AOSYM     SMH    MOLCAS    ERIS     OPER     JKOP   

              2       3        0.76       700     1000     2100   
                                         GEOM     BASIS     RHF  

 PROGRAMS   *        TOTAL   CCSD(T)       RHF       INT
 CPU TIMES  *       179.61    167.51      8.42      3.64
 REAL TIME  *       187.84 SEC
 DISK USED  *         1.51 GB      
 GA USED    *         0.00 MB       (max)       0.00 MB       (current)
 **********************************************************************************************************************************

        CCSD(T)         RHF-SCF 
   -339.03669780   -337.94141838
 **********************************************************************************************************************************
 Variable memory released
