
 Primary working directories    : /tmp/942884.276.gen6.q
 Secondary working directories  : /tmp/942884.276.gen6.q
 Wavefunction directory         : /home/vulcan/mel64643/wfu/
 Main file repository           : /tmp/942884.276.gen6.q/

 ARCHNAME  : Linux/x86_64
 FC        : /opt/intel/compilers_and_libraries_2016.1.150/linux/bin/intel64/ifort
 FCVERSION : 16.0.1
 BLASLIB   : -mkl
 id        : ccgc

 Nodes     nprocs
 n084         1
 ga_uses_ma=false, calling ma_init with nominal heap.
 GA-space will be limited to   8.0 MW (determined by -G option)

 Using customized tuning parameters: mindgm=10; mindgv=16; mindgc=4; mindgr=1; noblas=0; mincuda=1000; minvec=7
 default implementation of scratch files=df  

 ***,Optimization of nh3_2
 memory,1000,m
 gthresh,energy=1.0d-12,orbital=1.0d-10,oneint=1.0d-16,twoint=1.0d-16,optgrad=1.0d-6,compress=1.0d-13
 geomtyp=xyz
 
 bohr
 geometry = {
  N   -0.0981890186    3.3740970403    0.0008990854
  H    0.7219797462    4.1793287867   -1.5346216745
  H    0.7313951833    4.1787780237    1.5316431994
  H    0.4154398688    1.5196912353   -0.0010111880
  N   -0.1338215408   -2.7677945580   -0.0000947266
  H    0.1962142386   -3.8663415645   -1.5374286820
  H   -2.0102944087   -2.3646740580    0.0057396868
  H    0.1772759309   -3.8751397080    1.5348742995
 }
 
 basis=aug-cc-pvdz
 {rhf;maxit,200}
 {ccsd(t);maxit,200}

 Variables initialized (661), CPU time= 0.01 sec
 Commands  initialized (458), CPU time= 0.00 sec, 486 directives.
 Default parameters read. Elapsed time= 0.04 sec

 Checking input...
 Passed
1


                                         ***  PROGRAM SYSTEM MOLPRO  ***
                         Copyright, University College Cardiff Consultants Limited, 2008

                                    Version 2010.1 linked May 16 2016 07:17:05


 **********************************************************************************************************************************
 LABEL *   Optimization of nh3_2                                                         
 Linux-4.4.3/n084(x86_64) 64 bit mpp version                                             DATE: 23-Oct-23          TIME: 10:04:33  
 **********************************************************************************************************************************

 SHA1:             9e8077add272b0f3cad6f7df79ec5211205f459d
 **********************************************************************************************************************************

 THRESHOLDS:

 ZERO    =  1.00D-12  ONEINT  =  1.00D-16  TWOINT  =  1.00D-16  PREFAC  =  1.00D-14  LOCALI  =  1.00D-09  EORDER  =  1.00D-04
 ENERGY  =  1.00D-12  ETEST   =  0.00D+00  EDENS   =  0.00D+00  THRDEDEF=  1.00D-06  GRADIENT=  1.00D-02  STEP    =  1.00D-03
 ORBITAL =  1.00D-10  CIVEC   =  1.00D-05  COEFF   =  1.00D-04  PRINTCI =  5.00D-02  PUNCHCI =  9.90D+01  OPTGRAD =  1.00D-06
 OPTENERG=  1.00D-06  OPTSTEP =  3.00D-04  THRGRAD =  1.00D-10  COMPRESS=  1.00D-13  VARMIN  =  1.00D-07  VARMAX  =  1.00D-03
 THRDOUB =  0.00D+00  THRDIV  =  1.00D-05  THRRED  =  1.00D-07  THRPSP  =  1.00D+00  THRDC   =  1.00D-10  THRCS   =  1.00D-10
 THRNRM  =  1.00D-08  THREQ   =  0.00D+00  THRDE   =  1.00D+00  THRREF  =  1.00D-05  SPARFAC =  1.00D+00  THRDLP  =  1.00D-07
 THRDIA  =  1.00D-10  THRDLS  =  1.00D-07  THRGPS  =  0.00D+00  THRKEX  =  0.00D+00  THRDIS  =  2.00D-01  THRVAR  =  1.00D-10
 THRLOC  =  1.00D-06  THRGAP  =  1.00D-06  THRLOCT = -1.00D+00  THRGAPT = -1.00D+00  THRORB  =  1.00D-06  THRMLTP =  0.00D+00
 THRCPQCI=  1.00D-10  KEXTA   =  0.00D+00  THRCOARS=  0.00D+00  SYMTOL  =  1.00D-06  GRADTOL =  1.00D-06  THROVL  =  1.00D-08
 THRORTH =  1.00D-08  GRID    =  1.00D-06  GRIDMAX =  1.00D-03  DTMAX   =  0.00D+00

 SETTING GEOMTYP        =    XYZ
 ZUNIT=BOHR
 

 Variable memory set to 1000000000 words,  buffer space   230000 words

 SETTING BASIS          =    AUG-CC-PVDZ


 Recomputing integrals since basis changed


 Using spherical harmonics

 Library entry N      S aug-cc-pVDZ          selected for orbital group  1
 Library entry N      P aug-cc-pVDZ          selected for orbital group  1
 Library entry N      D aug-cc-pVDZ          selected for orbital group  1
 Library entry H      S aug-cc-pVDZ          selected for orbital group  2
 Library entry H      P aug-cc-pVDZ          selected for orbital group  2

1PROGRAM * SEWARD (Integral evaluation for generally contracted gaussian basis sets)     Author: Roland Lindh, 1990

 Geometry written to block  1 of record 700


 Point group  C1  



 ATOMIC COORDINATES

 NR  ATOM    CHARGE       X              Y              Z

   1  N       7.00   -0.098189019    3.374097040    0.000899085
   2  H       1.00    0.721979746    4.179328787   -1.534621675
   3  H       1.00    0.731395183    4.178778024    1.531643199
   4  H       1.00    0.415439869    1.519691235   -0.001011188
   5  N       7.00   -0.133821541   -2.767794558   -0.000094727
   6  H       1.00    0.196214239   -3.866341564   -1.537428682
   7  H       1.00   -2.010294409   -2.364674058    0.005739687
   8  H       1.00    0.177275931   -3.875139708    1.534874299

 Bond lengths in Bohr (Angstrom)

 1-2  1.918045613  1-3  1.918045614  1-4  1.924224304  5-6  1.918104489  5-7  1.919294298
     ( 1.014986024)     ( 1.014986025)     ( 1.018255647)     ( 1.015017180)     ( 1.015646800)

 5-8  1.918104489
     ( 1.015017180)

 Bond angles

  2-1-3  106.13117493   2-1-4  106.83708522   3-1-4  106.83708563   6-5-7  106.91506868

  6-5-8  106.42997853   7-5-8  106.10479078

 NUCLEAR CHARGE:                   20
 NUMBER OF PRIMITIVE AOS:         140
 NUMBER OF SYMMETRY AOS:          136
 NUMBER OF CONTRACTIONS:          100   ( 100A   )
 NUMBER OF CORE ORBITALS:           2   (   2A   )
 NUMBER OF VALENCE ORBITALS:       14   (  14A   )


 NUCLEAR REPULSION ENERGY   39.76051365


 Eigenvalues of metric

         1 0.120E-02 0.176E-02 0.182E-02 0.194E-02 0.215E-02 0.246E-02 0.361E-02 0.663E-02


 Contracted 2-electron integrals neglected if value below      1.0D-16
 AO integral compression algorithm  1   Integral accuracy      1.0D-16

     114.557 MB (compressed) written to integral file ( 93.9%)

     Node minimum: 114.557 MB, node maximum: 114.557 MB


 NUMBER OF SORTED TWO-ELECTRON INTEGRALS:   12753775.     BUFFER LENGTH:  32768
 NUMBER OF SEGMENTS:   1  SEGMENT LENGTH:   12753775      RECORD LENGTH: 524288

 Memory used in sort:      13.31 MW

 SORT1 READ    15257586. AND WROTE    12666246. INTEGRALS IN     37 RECORDS. CPU TIME:     0.12 SEC, REAL TIME:     0.19 SEC
 SORT2 READ    12666246. AND WROTE    12753775. INTEGRALS IN    437 RECORDS. CPU TIME:     0.13 SEC, REAL TIME:     0.17 SEC

 FILE SIZES:   FILE 1:   100.4 MBYTE,  FILE 4:   155.2 MBYTE,   TOTAL:    255.7 MBYTE

 OPERATOR DM      FOR CENTER  0  COORDINATES:    0.000000    0.000000    0.000000


 **********************************************************************************************************************************
 DATASETS  * FILE   NREC   LENGTH (MB)   RECORD NAMES
              1      19      100.56       500      610      700      900      950      970     1000      129      960     1100   
                                          VAR    BASINP    GEOM    SYMINP    ZMAT    AOBASIS   BASIS     P2S    ABASIS      S 
                                         1400     1410     1200     1210     1080     1600     1650     1300     1700   
                                           T        V       H0       H01     AOSYM     SMH    MOLCAS    ERIS     OPER   

 PROGRAMS   *        TOTAL       INT
 CPU TIMES  *         0.77      0.73
 REAL TIME  *         1.13 SEC
 DISK USED  *       370.93 MB      
 GA USED    *         0.00 MB       (max)       0.00 MB       (current)
 **********************************************************************************************************************************

1PROGRAM * RHF-SCF (CLOSED SHELL)       Authors: W. Meyer, H.-J. Werner


 NUMBER OF ELECTRONS:      10+   10-    SPACE SYMMETRY=1    SPIN SYMMETRY: Singlet 
 CONVERGENCE THRESHOLDS:    1.00E-10 (Density)    1.00E-13 (Energy)
 MAX. NUMBER OF ITERATIONS:      200
 INTERPOLATION TYPE:            DIIS
 INTERPOLATION STEPS:              2 (START)      1 (STEP)
 LEVEL SHIFTS:                  0.00 (CLOSED)  0.00 (OPEN) 



 Orbital guess generated from atomic densities. Full valence occupancy:   16

 Molecular orbital dump at record        2100.2

 ITERATION    DDIFF          GRAD             ENERGY        2-EL.EN.            DIPOLE MOMENTS         DIIS
    1      0.000D+00      0.000D+00      -112.36613611    160.186038    0.37574   -0.95860   -0.00341    0
    2      0.000D+00      0.599D-02      -112.40459150    155.999903    0.21218   -0.72502   -0.00268    1
    3      0.116D-01      0.282D-02      -112.41298136    157.758990    0.26542   -0.76903   -0.00274    2
    4      0.386D-02      0.477D-03      -112.41343082    157.555021    0.26835   -0.76518   -0.00280    3
    5      0.903D-03      0.975D-04      -112.41345350    157.574732    0.27041   -0.76551   -0.00281    4
    6      0.164D-03      0.175D-04      -112.41345456    157.576103    0.27121   -0.76617   -0.00281    5
    7      0.349D-04      0.383D-05      -112.41345460    157.575847    0.27144   -0.76628   -0.00281    6
    8      0.747D-05      0.157D-05      -112.41345460    157.575892    0.27146   -0.76638   -0.00281    7
    9      0.345D-05      0.398D-06      -112.41345460    157.575897    0.27148   -0.76639   -0.00281    6
   10      0.933D-06      0.972D-07      -112.41345460    157.575885    0.27148   -0.76640   -0.00281    6
   11      0.260D-06      0.227D-07      -112.41345460    157.575895    0.27148   -0.76640   -0.00281    7
   12      0.661D-07      0.774D-08      -112.41345460    157.575891    0.27148   -0.76640   -0.00281    7
   13      0.178D-07      0.231D-08      -112.41345460    157.575892    0.27148   -0.76640   -0.00281    7
   14      0.478D-08      0.540D-09      -112.41345460    157.575892    0.27148   -0.76640   -0.00281    7
   15      0.117D-08      0.131D-09      -112.41345460    157.575892    0.27148   -0.76640   -0.00281    7
   16      0.306D-09      0.379D-10      -112.41345460    157.575892    0.27148   -0.76640   -0.00281    7
   17      0.624D-10      0.136D-10      -112.41345460    157.575892    0.27148   -0.76640   -0.00281    7
   18      0.307D-10      0.407D-11      -112.41345460    157.575892    0.27148   -0.76640   -0.00281    0

 Final occupancy:  10

 !RHF STATE 1.1 Energy               -112.413454603986
 Nuclear energy                        39.76051365
 One-electron energy                 -230.96191440
 Two-electron energy                   78.78794614
 Virial quotient                       -1.00226785
 !RHF STATE 1.1 Dipole moment           0.27147652    -0.76639889    -0.00280760
 Dipole moment /Debye                   0.68997930    -1.94786409    -0.00713574

 Orbital energies:

         1.1          2.1          3.1          4.1          5.1          6.1          7.1          8.1          9.1         10.1
    -15.560502   -15.528622    -1.152632    -1.119907    -0.638556    -0.635590    -0.605456    -0.604367    -0.440148    -0.407231

        11.1         12.1
      0.032434     0.052562


 **********************************************************************************************************************************
 DATASETS  * FILE   NREC   LENGTH (MB)   RECORD NAMES
              1      19      100.56       500      610      700      900      950      970     1000      129      960     1100   
                                          VAR    BASINP    GEOM    SYMINP    ZMAT    AOBASIS   BASIS     P2S    ABASIS      S 
                                         1400     1410     1200     1210     1080     1600     1650     1300     1700   
                                           T        V       H0       H01     AOSYM     SMH    MOLCAS    ERIS     OPER   

              2       3        0.59       700     1000     2100   
                                         GEOM     BASIS     RHF  

 PROGRAMS   *        TOTAL       RHF       INT
 CPU TIMES  *         2.16      1.39      0.73
 REAL TIME  *         2.71 SEC
 DISK USED  *       370.93 MB      
 GA USED    *         0.00 MB       (max)       0.00 MB       (current)
 **********************************************************************************************************************************


1PROGRAM * CCSD (Closed-shell coupled cluster)     Authors: C. Hampel, H.-J. Werner, 1991, M. Deegan, P.J. Knowles, 1992


 Convergence thresholds:  THRVAR = 1.00D-08  THRDEN = 1.00D-12

 CCSD(T)     terms to be evaluated (factor= 1.000)


 Number of core orbitals:           2 (   2 )
 Number of closed-shell orbitals:   8 (   8 )
 Number of external orbitals:      90 (  90 )

 Molecular orbitals read from record     2100.2  Type=RHF/CANONICAL (state 1.1)

 Number of N-1 electron functions:               8
 Number of N-2 electron functions:              36
 Number of singly external CSFs:               720
 Number of doubly external CSFs:            259560
 Total number of CSFs:                      260281

 Length of J-op  integral file:               0.00 MB
 Length of K-op  integral file:               0.72 MB
 Length of 3-ext integral record:             0.00 MB

 Memory could be reduced to 8.71 Mwords without degradation in triples

 Integral transformation finished. Total CPU:   0.30 sec, npass=  1  Memory used:   5.38 MW

 Reference energy:                   -112.41345460

 MP2 singlet pair energy:              -0.26148692
 MP2 triplet pair energy:              -0.14046187
 MP2 correlation energy:               -0.40194879
 MP2 total energy:                   -112.81540339

 SCS-MP2 correlation energy:           -0.40118280   (PS=  1.200000  PT=  0.333333)
 SCS-MP2 total energy:               -112.81463740

 ITER.      SQ.NORM     CORR.ENERGY   TOTAL ENERGY   ENERGY CHANGE        DEN1      VAR(S)    VAR(P)  DIIS     TIME
   1      1.13780003    -0.42916548  -112.84262008    -0.02721669    -0.01760599  0.13D-02  0.19D-02  1  1     0.70
   2      1.14810885    -0.43138080  -112.84483541    -0.00221532    -0.01012875  0.18D-04  0.20D-03  2  2     1.14
   3      1.15078968    -0.43154984  -112.84500444    -0.00016903    -0.00149840  0.18D-04  0.10D-04  3  3     1.57
   4      1.15158749    -0.43155425  -112.84500885    -0.00000441    -0.00029525  0.14D-05  0.93D-06  4  4     2.02
   5      1.15179445    -0.43154783  -112.84500244     0.00000642    -0.00005752  0.27D-06  0.84D-07  5  5     2.45
   6      1.15185065    -0.43154472  -112.84499932     0.00000311    -0.00000789  0.34D-07  0.74D-08  6  6     2.89
   7      1.15186720    -0.43154404  -112.84499865     0.00000068    -0.00000154  0.42D-08  0.17D-08  6  1     3.33
   8      1.15187253    -0.43154386  -112.84499846     0.00000018    -0.00000001  0.86D-09  0.20D-09  6  2     3.77
   9      1.15187398    -0.43154378  -112.84499839     0.00000008     0.00000032  0.15D-09  0.43D-10  6  4     4.21
  10      1.15187454    -0.43154377  -112.84499838     0.00000001    -0.00000002  0.31D-10  0.65D-11  6  3     4.64
  11      1.15187454    -0.43154378  -112.84499838    -0.00000001     0.00000001  0.56D-11  0.14D-11  6  5     5.08
  12      1.15187448    -0.43154378  -112.84499839    -0.00000000    -0.00000000  0.53D-12  0.24D-12  6  6     5.50
  13      1.15187438    -0.43154379  -112.84499839    -0.00000000     0.00000002  0.31D-13  0.40D-13  6  2     5.94
  14      1.15187436    -0.43154379  -112.84499839    -0.00000000     0.00000001  0.46D-14  0.28D-14  6  1     6.36
  15      1.15187435    -0.43154379  -112.84499839    -0.00000000     0.00000000  0.10D-14  0.31D-15  6  4     6.80
  16      1.15187434    -0.43154379  -112.84499840    -0.00000000     0.00000000  0.19D-15  0.65D-16  6  3     7.23
  17      1.15187434    -0.43154379  -112.84499840    -0.00000000     0.00000000  0.30D-16  0.82D-17  6  5     7.67
  18      1.15187434    -0.43154379  -112.84499840    -0.00000000    -0.00000000  0.58D-17  0.16D-17  6  6     8.11
  19      1.15187434    -0.43154379  -112.84499840     0.00000000    -0.00000000  0.14D-17  0.34D-18  6  2     8.55
  20      1.15187434    -0.43154379  -112.84499840     0.00000000    -0.00000000  0.42D-18  0.89D-19  6  1     8.99
  21      1.15187434    -0.43154379  -112.84499840     0.00000000     0.00000000  0.90D-19  0.22D-19  6  4     9.43
  22      1.15187434    -0.43154379  -112.84499840     0.00000000    -0.00000000  0.13D-19  0.43D-20  6  5     9.86

 Norm of t1 vector:      0.05621892      S-energy:    -0.00000000      T1 diagnostic:  0.00993820
                                                                       D1 diagnostic:  0.02455596


 Total CPU time for triples:      4.90 sec


 RESULTS
 =======

  Reference energy                   -112.413454603986
  CCSD singlet pair energy             -0.303493251907
  CCSD triplet pair energy             -0.128050539233
  CCSD correlation energy              -0.431543791142

  Triples (T) contribution             -0.011407468469
  Total correlation energy             -0.442951259611

  CCSD total energy                  -112.844998395129
  CCSD[T] energy                     -112.856799847658
  CCSD-T energy                      -112.856195622754
 !CCSD(T) total energy               -112.856405863598

 Timing summary (sec):

 STEP                 CPU(USER)    SYS     CPU(TOT)    WALL
 Transformation          0.30      0.04      0.34      0.34
 CCSD iterations         9.56      0.48     10.04     10.09
 Triples                 4.90      0.11      5.01      5.01

 Program statistics:

 Available memory in ccsd:               999999644
 Min. memory needed in ccsd:                815289
 Max. memory used in ccsd:                 1030049
 Max. memory used in cckext:                821402 (22 integral passes)



 **********************************************************************************************************************************
 DATASETS  * FILE   NREC   LENGTH (MB)   RECORD NAMES
              1      20      128.68       500      610      700      900      950      970     1000      129      960     1100   
                                          VAR    BASINP    GEOM    SYMINP    ZMAT    AOBASIS   BASIS     P2S    ABASIS      S 
                                         1400     1410     1200     1210     1080     1600     1650     1300     1700     1380   
                                           T        V       H0       H01     AOSYM     SMH    MOLCAS    ERIS     OPER     JKOP   

              2       3        0.59       700     1000     2100   
                                         GEOM     BASIS     RHF  

 PROGRAMS   *        TOTAL   CCSD(T)       RHF       INT
 CPU TIMES  *        16.93     14.77      1.39      0.73
 REAL TIME  *        18.17 SEC
 DISK USED  *       370.93 MB      
 GA USED    *         0.00 MB       (max)       0.00 MB       (current)
 **********************************************************************************************************************************

        CCSD(T)         RHF-SCF 
   -112.85640586   -112.41345460
 **********************************************************************************************************************************
 Variable memory released
