
 Primary working directories    : /tmp/984874.93.gen4.q
 Secondary working directories  : /tmp/984874.93.gen4.q
 Wavefunction directory         : /home/vulcan/mel64643/wfu/
 Main file repository           : /tmp/984874.93.gen4.q/

 ARCHNAME  : Linux/x86_64
 FC        : /opt/intel/compilers_and_libraries_2016.1.150/linux/bin/intel64/ifort
 FCVERSION : 16.0.1
 BLASLIB   : -mkl
 id        : ccgc

 Nodes     nprocs
 n027         1
 ga_uses_ma=false, calling ma_init with nominal heap.
 GA-space will be limited to   8.0 MW (determined by -G option)

 Using customized tuning parameters: mindgm=10; mindgv=16; mindgc=4; mindgr=1; noblas=0; mincuda=1000; minvec=7
 default implementation of scratch files=df  

 ***,Optimization of formic acid
 memory,1000,m
 gthresh,energy=1.0d-12,orbital=1.0d-10,oneint=1.0d-16,twoint=1.0d-16,optgrad=1.0d-6,compress=1.0d-13
 geomtyp=xyz
 
 
 
 bohr
 geometry = {
  C   -3.4985960635   -0.8309327563   -0.0075774269
  O   -3.0947477799    1.6228736039    0.0075885650
  O   -1.8817563833   -2.4797879785   -0.0135969076
  H   -5.5173783684   -1.2755633278   -0.0000064059
  H   -1.2498727346    1.9547661815    0.0135948861
  C    3.5026142583    0.8305439034   -0.0075813399
  O    3.0939530321   -1.6224655811    0.0075701997
  O    1.8890122766    2.4825677202   -0.0136047617
  H    5.5222648516    1.2712133572    0.0000063671
  H    1.2345069110   -1.9532151227    0.0136068241
 }
 
 basis=VTZ
 {rhf;maxit,200}
 {ccsd(t);maxit,200}

 Variables initialized (661), CPU time= 0.00 sec
 Commands  initialized (458), CPU time= 0.01 sec, 486 directives.
 Default parameters read. Elapsed time= 0.06 sec

 Checking input...
 Passed
1


                                         ***  PROGRAM SYSTEM MOLPRO  ***
                         Copyright, University College Cardiff Consultants Limited, 2008

                                    Version 2010.1 linked May 16 2016 07:17:05


 **********************************************************************************************************************************
 LABEL *   Optimization of formic acid                                                   
 Linux-4.4.3/n027(x86_64) 64 bit mpp version                                             DATE: 24-Jan-24          TIME: 10:09:30  
 **********************************************************************************************************************************

 SHA1:             9e8077add272b0f3cad6f7df79ec5211205f459d
 **********************************************************************************************************************************

 THRESHOLDS:

 ZERO    =  1.00D-12  ONEINT  =  1.00D-16  TWOINT  =  1.00D-16  PREFAC  =  1.00D-14  LOCALI  =  1.00D-09  EORDER  =  1.00D-04
 ENERGY  =  1.00D-12  ETEST   =  0.00D+00  EDENS   =  0.00D+00  THRDEDEF=  1.00D-06  GRADIENT=  1.00D-02  STEP    =  1.00D-03
 ORBITAL =  1.00D-10  CIVEC   =  1.00D-05  COEFF   =  1.00D-04  PRINTCI =  5.00D-02  PUNCHCI =  9.90D+01  OPTGRAD =  1.00D-06
 OPTENERG=  1.00D-06  OPTSTEP =  3.00D-04  THRGRAD =  1.00D-10  COMPRESS=  1.00D-13  VARMIN  =  1.00D-07  VARMAX  =  1.00D-03
 THRDOUB =  0.00D+00  THRDIV  =  1.00D-05  THRRED  =  1.00D-07  THRPSP  =  1.00D+00  THRDC   =  1.00D-10  THRCS   =  1.00D-10
 THRNRM  =  1.00D-08  THREQ   =  0.00D+00  THRDE   =  1.00D+00  THRREF  =  1.00D-05  SPARFAC =  1.00D+00  THRDLP  =  1.00D-07
 THRDIA  =  1.00D-10  THRDLS  =  1.00D-07  THRGPS  =  0.00D+00  THRKEX  =  0.00D+00  THRDIS  =  2.00D-01  THRVAR  =  1.00D-10
 THRLOC  =  1.00D-06  THRGAP  =  1.00D-06  THRLOCT = -1.00D+00  THRGAPT = -1.00D+00  THRORB  =  1.00D-06  THRMLTP =  0.00D+00
 THRCPQCI=  1.00D-10  KEXTA   =  0.00D+00  THRCOARS=  0.00D+00  SYMTOL  =  1.00D-06  GRADTOL =  1.00D-06  THROVL  =  1.00D-08
 THRORTH =  1.00D-08  GRID    =  1.00D-06  GRIDMAX =  1.00D-03  DTMAX   =  0.00D+00

 SETTING GEOMTYP        =    XYZ
 ZUNIT=BOHR
 

 Variable memory set to 1000000000 words,  buffer space   230000 words

 SETTING BASIS          =    VTZ


 Recomputing integrals since basis changed


 Using spherical harmonics

 Library entry C      S cc-pVTZ              selected for orbital group  1
 Library entry C      P cc-pVTZ              selected for orbital group  1
 Library entry C      D cc-pVTZ              selected for orbital group  1
 Library entry C      F cc-pVTZ              selected for orbital group  1
 Library entry O      S cc-pVTZ              selected for orbital group  2
 Library entry O      P cc-pVTZ              selected for orbital group  2
 Library entry O      D cc-pVTZ              selected for orbital group  2
 Library entry O      F cc-pVTZ              selected for orbital group  2
 Library entry H      S cc-pVTZ              selected for orbital group  3
 Library entry H      P cc-pVTZ              selected for orbital group  3
 Library entry H      D cc-pVTZ              selected for orbital group  3

1PROGRAM * SEWARD (Integral evaluation for generally contracted gaussian basis sets)     Author: Roland Lindh, 1990

 Geometry written to block  1 of record 700


 Point group  C1  



 ATOMIC COORDINATES

 NR  ATOM    CHARGE       X              Y              Z

   1  C       6.00   -3.498596063   -0.830932756   -0.007577427
   2  O       8.00   -3.094747780    1.622873604    0.007588565
   3  O       8.00   -1.881756383   -2.479787979   -0.013596908
   4  H       1.00   -5.517378368   -1.275563328   -0.000006406
   5  H       1.00   -1.249872735    1.954766181    0.013594886
   6  C       6.00    3.502614258    0.830543903   -0.007581340
   7  O       8.00    3.093953032   -1.622465581    0.007570200
   8  O       8.00    1.889012277    2.482567720   -0.013604762
   9  H       1.00    5.522264852    1.271213357    0.000006367
  10  H       1.00    1.234506911   -1.953215123    0.013606824

 Bond lengths in Bohr (Angstrom)

 1-2  2.486863305  1-3  2.309313822  1-4  2.067180607  2-5  1.874500651  6-7  2.486863305
     ( 1.315991383)     ( 1.222036243)     ( 1.093904864)     ( 0.991943023)     ( 1.315991383)

  6- 8  2.309313822   6- 9  2.067180606   7-10  1.888642787
       ( 1.222036243)       ( 1.093904864)       ( 0.999426719)

 Bond angles

  1-2-5  109.54509196   2-1-3  126.21591658   2-1-4  111.76493098   3-1-4  122.01768482

  6- 7-10  109.54509197   7- 6- 8  126.21591656   7- 6- 9  111.76493100   8- 6- 9  122.01768484

 NUCLEAR CHARGE:                   48
 NUMBER OF PRIMITIVE AOS:         350
 NUMBER OF SYMMETRY AOS:          316
 NUMBER OF CONTRACTIONS:          236   ( 236A   )
 NUMBER OF CORE ORBITALS:           6   (   6A   )
 NUMBER OF VALENCE ORBITALS:       28   (  28A   )


 NUCLEAR REPULSION ENERGY  235.53069544


 Eigenvalues of metric

         1 0.132E-02 0.141E-02 0.159E-02 0.159E-02 0.224E-02 0.268E-02 0.353E-02 0.361E-02


 Contracted 2-electron integrals neglected if value below      1.0D-16
 AO integral compression algorithm  1   Integral accuracy      1.0D-16

     2206.466 MB (compressed) written to integral file ( 65.3%)

     Node minimum: 2206.466 MB, node maximum: 2206.466 MB


 NUMBER OF SORTED TWO-ELECTRON INTEGRALS:  391062561.     BUFFER LENGTH:  32768
 NUMBER OF SEGMENTS:  25  SEGMENT LENGTH:   15999762      RECORD LENGTH: 524288

 Memory used in sort:      16.56 MW

 SORT1 READ   422671752. AND WROTE   349676475. INTEGRALS IN   1011 RECORDS. CPU TIME:     4.63 SEC, REAL TIME:     7.89 SEC
 SORT2 READ   349676475. AND WROTE   391062561. INTEGRALS IN   8417 RECORDS. CPU TIME:     3.16 SEC, REAL TIME:     6.08 SEC

 FILE SIZES:   FILE 1:  2022.2 MBYTE,  FILE 4:  4240.5 MBYTE,   TOTAL:   6262.7 MBYTE

 OPERATOR DM      FOR CENTER  0  COORDINATES:    0.000000    0.000000    0.000000


 **********************************************************************************************************************************
 DATASETS  * FILE   NREC   LENGTH (MB)   RECORD NAMES
              1      19     2022.87       500      610      700      900      950      970     1000      129      960     1100   
                                          VAR    BASINP    GEOM    SYMINP    ZMAT    AOBASIS   BASIS     P2S    ABASIS      S 
                                         1400     1410     1200     1210     1080     1600     1650     1300     1700   
                                           T        V       H0       H01     AOSYM     SMH    MOLCAS    ERIS     OPER   

 PROGRAMS   *        TOTAL       INT
 CPU TIMES  *        23.98     23.91
 REAL TIME  *        33.73 SEC
 DISK USED  *         8.47 GB      
 GA USED    *         0.01 MB       (max)       0.00 MB       (current)
 **********************************************************************************************************************************

1PROGRAM * RHF-SCF (CLOSED SHELL)       Authors: W. Meyer, H.-J. Werner


 NUMBER OF ELECTRONS:      24+   24-    SPACE SYMMETRY=1    SPIN SYMMETRY: Singlet 
 CONVERGENCE THRESHOLDS:    1.00E-10 (Density)    1.00E-13 (Energy)
 MAX. NUMBER OF ITERATIONS:      200
 INTERPOLATION TYPE:            DIIS
 INTERPOLATION STEPS:              2 (START)      1 (STEP)
 LEVEL SHIFTS:                  0.00 (CLOSED)  0.00 (OPEN) 



 Orbital guess generated from atomic densities. Full valence occupancy:   34

 Molecular orbital dump at record        2100.2

 ITERATION    DDIFF          GRAD             ENERGY        2-EL.EN.            DIPOLE MOMENTS         DIIS
    1      0.000D+00      0.000D+00      -377.56177941    747.257632   -0.02431   -0.00740    0.00842    0
    2      0.000D+00      0.503D-02      -377.64939232    744.192198   -0.02275   -0.00390    0.00846    1
    3      0.811D-02      0.328D-02      -377.69893900    746.517695   -0.02084   -0.00512    0.00823    2
    4      0.319D-02      0.437D-03      -377.70047834    746.203067   -0.02055   -0.00457    0.00803    3
    5      0.602D-03      0.192D-03      -377.70075554    746.241179   -0.02008   -0.00467    0.00818    4
    6      0.250D-03      0.555D-04      -377.70080334    746.285552   -0.01997   -0.00454    0.00809    5
    7      0.959D-04      0.240D-04      -377.70081444    746.268030   -0.01989   -0.00455    0.00807    6
    8      0.529D-04      0.777D-05      -377.70081576    746.273845   -0.01988   -0.00452    0.00807    7
    9      0.203D-04      0.248D-05      -377.70081587    746.272359   -0.01987   -0.00454    0.00807    8
   10      0.603D-05      0.749D-06      -377.70081588    746.272555   -0.01988   -0.00452    0.00807    7
   11      0.202D-05      0.230D-06      -377.70081589    746.272512   -0.01987   -0.00454    0.00807    8
   12      0.599D-06      0.803D-07      -377.70081589    746.272514   -0.01988   -0.00452    0.00807    8
   13      0.131D-06      0.349D-07      -377.70081589    746.272505   -0.01988   -0.00453    0.00807    8
   14      0.502D-07      0.895D-08      -377.70081589    746.272508   -0.01988   -0.00453    0.00807    8
   15      0.200D-07      0.372D-08      -377.70081589    746.272509   -0.01988   -0.00453    0.00807    8
   16      0.632D-08      0.121D-08      -377.70081589    746.272508   -0.01988   -0.00453    0.00807    8
   17      0.188D-08      0.457D-09      -377.70081589    746.272508   -0.01988   -0.00453    0.00807    8
   18      0.756D-09      0.135D-09      -377.70081589    746.272508   -0.01988   -0.00453    0.00807    8
   19      0.267D-09      0.528D-10      -377.70081589    746.272508   -0.01988   -0.00453    0.00807    8
   20      0.115D-09      0.237D-10      -377.70081589    746.272508   -0.01988   -0.00453    0.00807    8
   21      0.430D-10      0.718D-11      -377.70081589    746.272508   -0.01988   -0.00453    0.00807    8
   22      0.181D-10      0.255D-11      -377.70081589    746.272508   -0.01988   -0.00453    0.00807    9
   23      0.484D-11      0.111D-11      -377.70081589    746.272508   -0.01988   -0.00453    0.00807    9
   24      0.212D-11      0.310D-12      -377.70081589    746.272508   -0.01988   -0.00453    0.00807    9
   25      0.610D-12      0.141D-12      -377.70081589    746.272508   -0.01988   -0.00453    0.00807    9
   26      0.427D-12      0.636D-13      -377.70081589    746.272508   -0.01988   -0.00453    0.00807    0

 Final occupancy:  24

 !RHF STATE 1.1 Energy               -377.700815885310
 Nuclear energy                       235.53069544
 One-electron energy                 -986.36776525
 Two-electron energy                  373.13625392
 Virial quotient                       -1.00167692
 !RHF STATE 1.1 Dipole moment          -0.01987551    -0.00452839     0.00806577
 Dipole moment /Debye                  -0.05051519    -0.01150925     0.02049981

 Orbital energies:

         1.1          2.1          3.1          4.1          5.1          6.1          7.1          8.1          9.1         10.1
    -20.614322   -20.613084   -20.574095   -20.572607   -11.406906   -11.405479    -1.482798    -1.469828    -1.384731    -1.370538

        11.1         12.1         13.1         14.1         15.1         16.1         17.1         18.1         19.1         20.1
     -0.917185    -0.881386    -0.766784    -0.731356    -0.722409    -0.692868    -0.643273    -0.632927    -0.619439    -0.578679

        21.1         22.1         23.1         24.1         25.1         26.1
     -0.504775    -0.495729    -0.493286    -0.473144     0.146947     0.154239


 **********************************************************************************************************************************
 DATASETS  * FILE   NREC   LENGTH (MB)   RECORD NAMES
              1      19     2022.87       500      610      700      900      950      970     1000      129      960     1100   
                                          VAR    BASINP    GEOM    SYMINP    ZMAT    AOBASIS   BASIS     P2S    ABASIS      S 
                                         1400     1410     1200     1210     1080     1600     1650     1300     1700   
                                           T        V       H0       H01     AOSYM     SMH    MOLCAS    ERIS     OPER   

              2       3        1.56       700     1000     2100   
                                         GEOM     BASIS     RHF  

 PROGRAMS   *        TOTAL       RHF       INT
 CPU TIMES  *       115.94     91.96     23.91
 REAL TIME  *       131.13 SEC
 DISK USED  *         8.47 GB      
 GA USED    *         0.01 MB       (max)       0.00 MB       (current)
 **********************************************************************************************************************************


1PROGRAM * CCSD (Closed-shell coupled cluster)     Authors: C. Hampel, H.-J. Werner, 1991, M. Deegan, P.J. Knowles, 1992


 Convergence thresholds:  THRVAR = 1.00D-08  THRDEN = 1.00D-12

 CCSD(T)     terms to be evaluated (factor= 1.000)


 Number of core orbitals:           6 (   6 )
 Number of closed-shell orbitals:  18 (  18 )
 Number of external orbitals:     212 ( 212 )

 Molecular orbitals read from record     2100.2  Type=RHF/CANONICAL (state 1.1)

 Number of N-1 electron functions:              18
 Number of N-2 electron functions:             171
 Number of singly external CSFs:              3816
 Number of doubly external CSFs:           7282836
 Total number of CSFs:                     7286653

 Length of J-op  integral file:               0.00 MB
 Length of K-op  integral file:               3.87 MB
 Length of 3-ext integral record:             0.00 MB

 Memory could be reduced to 213.59 Mwords without degradation in triples

 Integral transformation finished. Total CPU:  28.37 sec, npass=  1  Memory used: 142.16 MW

 Reference energy:                   -377.70081589

 MP2 singlet pair energy:              -0.77626588
 MP2 triplet pair energy:              -0.49231513
 MP2 correlation energy:               -1.26858100
 MP2 total energy:                   -378.96939689

 SCS-MP2 correlation energy:           -1.23784846   (PS=  1.200000  PT=  0.333333)
 SCS-MP2 total energy:               -378.93866435

 ITER.      SQ.NORM     CORR.ENERGY   TOTAL ENERGY   ENERGY CHANGE        DEN1      VAR(S)    VAR(P)  DIIS     TIME
   1      1.30949728    -1.27597138  -378.97678727    -0.00739038     0.02987163  0.10D-01  0.65D-02  1  1   102.50
   2      1.33259649    -1.27529161  -378.97610750     0.00067977    -0.02908700  0.23D-03  0.93D-03  2  2   177.16
   3      1.34379121    -1.27586907  -378.97668495    -0.00057746    -0.00515436  0.24D-03  0.46D-04  3  3   251.82
   4      1.34905936    -1.27561854  -378.97643442     0.00025053    -0.00196059  0.24D-04  0.88D-05  4  4   326.52
   5      1.35146426    -1.27556729  -378.97638317     0.00005125    -0.00054338  0.25D-05  0.83D-06  5  5   401.22
   6      1.35204830    -1.27551781  -378.97633369     0.00004948    -0.00005472  0.14D-06  0.80D-07  6  6   475.91
   7      1.35213989    -1.27551293  -378.97632882     0.00000487    -0.00000878  0.12D-07  0.12D-07  6  2   550.63
   8      1.35213583    -1.27551417  -378.97633006    -0.00000124     0.00000754  0.27D-08  0.13D-08  6  3   625.39
   9      1.35214512    -1.27551280  -378.97632868     0.00000138    -0.00000278  0.25D-09  0.13D-09  6  1   700.14
  10      1.35214447    -1.27551291  -378.97632879    -0.00000011     0.00000021  0.62D-10  0.25D-10  6  5   774.92
  11      1.35214467    -1.27551294  -378.97632882    -0.00000003     0.00000004  0.16D-10  0.46D-11  6  4   849.71
  12      1.35214440    -1.27551296  -378.97632884    -0.00000002     0.00000011  0.35D-11  0.83D-12  6  6   924.44
  13      1.35214419    -1.27551299  -378.97632888    -0.00000003     0.00000009  0.86D-12  0.20D-12  6  2   999.17
  14      1.35214411    -1.27551299  -378.97632888    -0.00000000     0.00000001  0.14D-12  0.52D-13  6  3  1073.89
  15      1.35214407    -1.27551299  -378.97632888    -0.00000000     0.00000000  0.27D-13  0.71D-14  6  1  1148.68
  16      1.35214406    -1.27551299  -378.97632888    -0.00000000     0.00000000  0.71D-14  0.19D-14  6  4  1223.44
  17      1.35214406    -1.27551299  -378.97632888     0.00000000    -0.00000000  0.20D-14  0.48D-15  6  5  1298.17
  18      1.35214406    -1.27551299  -378.97632888    -0.00000000     0.00000000  0.40D-15  0.13D-15  6  6  1372.93
  19      1.35214406    -1.27551299  -378.97632888     0.00000000    -0.00000000  0.10D-15  0.37D-16  6  2  1447.65
  20      1.35214406    -1.27551299  -378.97632888     0.00000000    -0.00000000  0.18D-16  0.62D-17  6  3  1522.31
  21      1.35214407    -1.27551299  -378.97632888     0.00000000     0.00000000  0.29D-17  0.15D-17  6  1  1597.04
  22      1.35214407    -1.27551299  -378.97632888     0.00000000    -0.00000000  0.95D-18  0.20D-18  6  4  1671.77
  23      1.35214407    -1.27551299  -378.97632888    -0.00000000     0.00000000  0.21D-18  0.52D-19  6  5  1746.49
  24      1.35214407    -1.27551299  -378.97632888    -0.00000000     0.00000000  0.52D-19  0.15D-19  6  3  1821.25
  25      1.35214407    -1.27551299  -378.97632888    -0.00000000    -0.00000000  0.12D-19  0.37D-20  6  6  1896.01
  26      1.35214407    -1.27551299  -378.97632888     0.00000000     0.00000000  0.26D-20  0.84D-21  6  2  1970.76

 Norm of t1 vector:      0.14433831      S-energy:    -0.00000000      T1 diagnostic:  0.01701043
                                                                       D1 diagnostic:  0.06089967

 Singles amplitudes (print threshold =  0.500E-01):

         I         SYM. A    A   T(IA)

        11         1         1      0.05360545
        12         1         2      0.05560668


 Total CPU time for triples:   1652.60 sec


 RESULTS
 =======

  Reference energy                   -377.700815885311
  CCSD singlet pair energy             -0.840633703355
  CCSD triplet pair energy             -0.434879289086
  CCSD correlation energy              -1.275512992442

  Triples (T) contribution             -0.054448117035
  Total correlation energy             -1.329961109476

  CCSD total energy                  -378.976328877752
  CCSD[T] energy                     -379.034190369623
  CCSD-T energy                      -379.029404557429
 !CCSD(T) total energy               -379.030776994787

 Timing summary (sec):

 STEP                 CPU(USER)    SYS     CPU(TOT)    WALL
 Transformation         29.21      1.28     30.49     30.50
 CCSD iterations      1941.58     18.00   1959.58   1959.77
 Triples              1652.60     15.77   1668.37   1668.45

 Program statistics:

 Available memory in ccsd:               999998604
 Min. memory needed in ccsd:              17799381
 Max. memory used in ccsd:                24518097
 Max. memory used in cckext:              19762593 (26 integral passes)



 **********************************************************************************************************************************
 DATASETS  * FILE   NREC   LENGTH (MB)   RECORD NAMES
              1      20     2827.81       500      610      700      900      950      970     1000      129      960     1100   
                                          VAR    BASINP    GEOM    SYMINP    ZMAT    AOBASIS   BASIS     P2S    ABASIS      S 
                                         1400     1410     1200     1210     1080     1600     1650     1300     1700     1380   
                                           T        V       H0       H01     AOSYM     SMH    MOLCAS    ERIS     OPER     JKOP   

              2       3        1.56       700     1000     2100   
                                         GEOM     BASIS     RHF  

 PROGRAMS   *        TOTAL   CCSD(T)       RHF       INT
 CPU TIMES  *      3739.36   3623.42     91.96     23.91
 REAL TIME  *      3790.00 SEC
 DISK USED  *         8.47 GB      
 GA USED    *         0.01 MB       (max)       0.00 MB       (current)
 **********************************************************************************************************************************

        CCSD(T)         RHF-SCF 
   -379.03077699   -377.70081589
 **********************************************************************************************************************************
 Variable memory released
