
 Primary working directories    : /tmp/1049102.725.gen4.q
 Secondary working directories  : /tmp/1049102.725.gen4.q
 Wavefunction directory         : /home/vulcan/mel64643/wfu/
 Main file repository           : /tmp/1049102.725.gen4.q/

 ARCHNAME  : Linux/x86_64
 FC        : /opt/intel/compilers_and_libraries_2016.1.150/linux/bin/intel64/ifort
 FCVERSION : 16.0.1
 BLASLIB   : -mkl
 id        : ccgc

 Nodes     nprocs
 n054         1
 ga_uses_ma=false, calling ma_init with nominal heap.
 GA-space will be limited to   8.0 MW (determined by -G option)

 Using customized tuning parameters: mindgm=10; mindgv=16; mindgc=4; mindgr=1; noblas=0; mincuda=1000; minvec=7
 default implementation of scratch files=df  

 ***,Optimization of h2o_3
 memory,1000,m
 gthresh,energy=1.0d-12,orbital=1.0d-10,oneint=1.0d-16,twoint=1.0d-16,optgrad=1.0d-6,compress=1.0d-13
 geomtyp=xyz
 
 
 
 bohr
 geometry = {
  C    0.9056284638    1.4050994930   -2.2674943740
  C    0.7391246234    2.7103749137    0.0238452466
  C    1.0074469138    1.4085403861    2.3076299846
  C    1.4406749089   -1.1986221021    2.3000829984
  C    1.6079061422   -2.5034059178    0.0087822156
  C    1.3396431336   -1.2013475992   -2.2747987877
  H    0.6885631783    2.4131136011   -4.0370741148
  H    0.3887155576    4.7229366474    0.0297901670
  H    0.8734833176    2.4172306210    4.0795152940
  H    1.6460131758   -2.2076987513    4.0708717713
  H    1.9424818121   -4.5292760592    0.0028911227
  H    1.4671511920   -2.2155918778   -4.0558138863
  N   -5.4426418834   -0.3568008561   -0.0845294930
  H   -5.5869618375   -1.5674437125   -1.5660184708
  H   -6.0735378907   -1.3157781985    1.4528296745
  H   -3.5627589405   -0.0731201858    0.1895683287
 }
 
 basis=aug-cc-pvdz, H=cc-pvdz
 {rhf;maxit,200}
 {ccsd(t)}

 Variables initialized (661), CPU time= 0.01 sec
 Commands  initialized (458), CPU time= 0.00 sec, 486 directives.
 Default parameters read. Elapsed time= 0.05 sec

 Checking input...
 Passed
1


                                         ***  PROGRAM SYSTEM MOLPRO  ***
                         Copyright, University College Cardiff Consultants Limited, 2008

                                    Version 2010.1 linked May 16 2016 07:17:05


 **********************************************************************************************************************************
 LABEL *   Optimization of h2o_3                                                         
 Linux-4.4.3/n054(x86_64) 64 bit mpp version                                             DATE: 19-Mar-24          TIME: 18:56:52  
 **********************************************************************************************************************************

 SHA1:             9e8077add272b0f3cad6f7df79ec5211205f459d
 **********************************************************************************************************************************

 THRESHOLDS:

 ZERO    =  1.00D-12  ONEINT  =  1.00D-16  TWOINT  =  1.00D-16  PREFAC  =  1.00D-14  LOCALI  =  1.00D-09  EORDER  =  1.00D-04
 ENERGY  =  1.00D-12  ETEST   =  0.00D+00  EDENS   =  0.00D+00  THRDEDEF=  1.00D-06  GRADIENT=  1.00D-02  STEP    =  1.00D-03
 ORBITAL =  1.00D-10  CIVEC   =  1.00D-05  COEFF   =  1.00D-04  PRINTCI =  5.00D-02  PUNCHCI =  9.90D+01  OPTGRAD =  1.00D-06
 OPTENERG=  1.00D-06  OPTSTEP =  3.00D-04  THRGRAD =  1.00D-10  COMPRESS=  1.00D-13  VARMIN  =  1.00D-07  VARMAX  =  1.00D-03
 THRDOUB =  0.00D+00  THRDIV  =  1.00D-05  THRRED  =  1.00D-07  THRPSP  =  1.00D+00  THRDC   =  1.00D-10  THRCS   =  1.00D-10
 THRNRM  =  1.00D-08  THREQ   =  0.00D+00  THRDE   =  1.00D+00  THRREF  =  1.00D-05  SPARFAC =  1.00D+00  THRDLP  =  1.00D-07
 THRDIA  =  1.00D-10  THRDLS  =  1.00D-07  THRGPS  =  0.00D+00  THRKEX  =  0.00D+00  THRDIS  =  2.00D-01  THRVAR  =  1.00D-10
 THRLOC  =  1.00D-06  THRGAP  =  1.00D-06  THRLOCT = -1.00D+00  THRGAPT = -1.00D+00  THRORB  =  1.00D-06  THRMLTP =  0.00D+00
 THRCPQCI=  1.00D-10  KEXTA   =  0.00D+00  THRCOARS=  0.00D+00  SYMTOL  =  1.00D-06  GRADTOL =  1.00D-06  THROVL  =  1.00D-08
 THRORTH =  1.00D-08  GRID    =  1.00D-06  GRIDMAX =  1.00D-03  DTMAX   =  0.00D+00

 SETTING GEOMTYP        =    XYZ
 ZUNIT=BOHR
 

 Variable memory set to 1000000000 words,  buffer space   230000 words

 SETTING BASIS          =    AUG-CC-PVDZ,H=CC-PVDZ


 Recomputing integrals since basis changed


 Using spherical harmonics

 Library entry C      S aug-cc-pVDZ          selected for orbital group  1
 Library entry C      P aug-cc-pVDZ          selected for orbital group  1
 Library entry C      D aug-cc-pVDZ          selected for orbital group  1
 Library entry H      S cc-pVDZ              selected for orbital group  2
 Library entry H      P cc-pVDZ              selected for orbital group  2
 Library entry N      S aug-cc-pVDZ          selected for orbital group  3
 Library entry N      P aug-cc-pVDZ          selected for orbital group  3
 Library entry N      D aug-cc-pVDZ          selected for orbital group  3

1PROGRAM * SEWARD (Integral evaluation for generally contracted gaussian basis sets)     Author: Roland Lindh, 1990

 Geometry written to block  1 of record 700


 Point group  C1  



 ATOMIC COORDINATES

 NR  ATOM    CHARGE       X              Y              Z

   1  C       6.00    0.905628464    1.405099493   -2.267494374
   2  C       6.00    0.739124623    2.710374914    0.023845247
   3  C       6.00    1.007446914    1.408540386    2.307629985
   4  C       6.00    1.440674909   -1.198622102    2.300082998
   5  C       6.00    1.607906142   -2.503405918    0.008782216
   6  C       6.00    1.339643134   -1.201347599   -2.274798788
   7  H       1.00    0.688563178    2.413113601   -4.037074115
   8  H       1.00    0.388715558    4.722936647    0.029790167
   9  H       1.00    0.873483318    2.417230621    4.079515294
  10  H       1.00    1.646013176   -2.207698751    4.070871771
  11  H       1.00    1.942481812   -4.529276059    0.002891123
  12  H       1.00    1.467151192   -2.215591878   -4.055813886
  13  N       7.00   -5.442641883   -0.356800856   -0.084529493
  14  H       1.00   -5.586961837   -1.567443713   -1.566018471
  15  H       1.00   -6.073537891   -1.315778199    1.452829675
  16  H       1.00   -3.562758941   -0.073120186    0.189568329

 Bond lengths in Bohr (Angstrom)

 1-2  2.642291564  1-6  2.642345271  1-7  2.048077694  2-3  2.642431214  2-8  2.042847666
     ( 1.398240475)     ( 1.398268896)     ( 1.083796038)     ( 1.398314375)     ( 1.081028426)

  3- 4  2.642922567   3- 9  2.043276727   4- 5  2.642061008   4-10  2.048436566   5- 6  2.642359382
       ( 1.398574387)       ( 1.081255476)       ( 1.398118470)       ( 1.083985945)       ( 1.398276363)

  5-11  2.053320582   6-12  2.053524907  13-14  1.918669843  13-15  1.918629856  13-16  1.920823838
       ( 1.086570455)       ( 1.086678579)       ( 1.015316352)       ( 1.015295192)       ( 1.016456198)

 Bond angles

  1- 2- 3  119.98067447   1- 2- 8  120.00017249   1- 6- 5  120.02353157   1- 6-12  119.98613506

  2-1-6  120.00199012   2-1-7  119.96358368   2-3-4  120.01167792   2-3-9  119.97429949

  3- 2- 8  120.01747604   3- 4- 5  120.00136206   3- 4-10  119.99378419   4- 3- 9  120.01369086

  4- 5- 6  119.98073591   4- 5-11  120.00333202   5- 4-10  120.00484904   5- 6-12  119.99031883

  6- 1- 7  120.03368630   6- 5-11  120.01581806  14-13-15  106.17607596  14-13-16  106.08043222

 15-13-16  106.33745546

 NUCLEAR CHARGE:                   52
 NUMBER OF PRIMITIVE AOS:         322
 NUMBER OF SYMMETRY AOS:          308
 NUMBER OF CONTRACTIONS:          206   ( 206A   )
 NUMBER OF CORE ORBITALS:           7   (   7A   )
 NUMBER OF VALENCE ORBITALS:       37   (  37A   )


 NUCLEAR REPULSION ENERGY  273.71271455


 Eigenvalues of metric

         1 0.861E-05 0.184E-04 0.228E-04 0.532E-04 0.642E-04 0.644E-04 0.107E-03 0.107E-03


 Contracted 2-electron integrals neglected if value below      1.0D-16
 AO integral compression algorithm  1   Integral accuracy      1.0D-16

     1893.466 MB (compressed) written to integral file ( 94.6%)

     Node minimum: 1893.466 MB, node maximum: 1893.466 MB


 NUMBER OF SORTED TWO-ELECTRON INTEGRALS:  227303181.     BUFFER LENGTH:  32768
 NUMBER OF SEGMENTS:  15  SEGMENT LENGTH:   15999503      RECORD LENGTH: 524288

 Memory used in sort:      16.56 MW

 SORT1 READ   250230049. AND WROTE   226411128. INTEGRALS IN    654 RECORDS. CPU TIME:     2.43 SEC, REAL TIME:     6.05 SEC
 SORT2 READ   226411128. AND WROTE   227303181. INTEGRALS IN   7223 RECORDS. CPU TIME:     1.41 SEC, REAL TIME:     2.33 SEC

 FILE SIZES:   FILE 1:  1744.0 MBYTE,  FILE 4:  2743.1 MBYTE,   TOTAL:   4487.2 MBYTE

 OPERATOR DM      FOR CENTER  0  COORDINATES:    0.000000    0.000000    0.000000


 **********************************************************************************************************************************
 DATASETS  * FILE   NREC   LENGTH (MB)   RECORD NAMES
              1      19     1744.56       500      610      700      900      950      970     1000      129      960     1100   
                                          VAR    BASINP    GEOM    SYMINP    ZMAT    AOBASIS   BASIS     P2S    ABASIS      S 
                                         1400     1410     1200     1210     1080     1600     1650     1300     1700   
                                           T        V       H0       H01     AOSYM     SMH    MOLCAS    ERIS     OPER   

 PROGRAMS   *        TOTAL       INT
 CPU TIMES  *        14.68     14.62
 REAL TIME  *        20.28 SEC
 DISK USED  *         6.38 GB      
 GA USED    *         0.01 MB       (max)       0.00 MB       (current)
 **********************************************************************************************************************************

1PROGRAM * RHF-SCF (CLOSED SHELL)       Authors: W. Meyer, H.-J. Werner


 NUMBER OF ELECTRONS:      26+   26-    SPACE SYMMETRY=1    SPIN SYMMETRY: Singlet 
 CONVERGENCE THRESHOLDS:    1.00E-10 (Density)    1.00E-13 (Energy)
 MAX. NUMBER OF ITERATIONS:      200
 INTERPOLATION TYPE:            DIIS
 INTERPOLATION STEPS:              2 (START)      1 (STEP)
 LEVEL SHIFTS:                  0.00 (CLOSED)  0.00 (OPEN) 



 Orbital guess generated from atomic densities. Full valence occupancy:   44

 Molecular orbital dump at record        2100.2

 ITERATION    DDIFF          GRAD             ENERGY        2-EL.EN.            DIPOLE MOMENTS         DIIS
    1      0.000D+00      0.000D+00      -286.85322215    740.888222    0.52004   -0.77503    0.13301    0
    2      0.000D+00      0.322D-02      -286.92078169    735.097054    0.43420   -0.38099    0.06576    1
    3      0.826D-02      0.133D-02      -286.93011298    737.729049    0.45121   -0.52268    0.09345    2
    4      0.218D-02      0.381D-03      -286.93133143    737.209533    0.44953   -0.49435    0.08694    3
    5      0.783D-03      0.528D-04      -286.93135532    737.198050    0.45543   -0.50489    0.09049    4
    6      0.135D-03      0.179D-04      -286.93135780    737.212992    0.45425   -0.49916    0.08867    5
    7      0.512D-04      0.556D-05      -286.93135808    737.209968    0.45491   -0.50142    0.08934    6
    8      0.150D-04      0.129D-05      -286.93135810    737.208946    0.45506   -0.50106    0.08922    7
    9      0.417D-05      0.542D-06      -286.93135810    737.209405    0.45509   -0.50115    0.08925    7
   10      0.148D-05      0.143D-06      -286.93135810    737.209354    0.45509   -0.50115    0.08925    7
   11      0.515D-06      0.409D-07      -286.93135810    737.209339    0.45511   -0.50115    0.08925    7
   12      0.141D-06      0.174D-07      -286.93135810    737.209353    0.45510   -0.50115    0.08925    8
   13      0.604D-07      0.755D-08      -286.93135810    737.209348    0.45510   -0.50115    0.08925    8
   14      0.330D-07      0.360D-08      -286.93135810    737.209350    0.45510   -0.50115    0.08925    8
   15      0.197D-07      0.137D-08      -286.93135810    737.209350    0.45510   -0.50115    0.08925    8
   16      0.703D-08      0.456D-09      -286.93135810    737.209349    0.45510   -0.50115    0.08925    9
   17      0.208D-08      0.126D-09      -286.93135810    737.209350    0.45510   -0.50115    0.08925    9
   18      0.397D-09      0.391D-10      -286.93135810    737.209350    0.45510   -0.50115    0.08925    8
   19      0.230D-09      0.151D-10      -286.93135810    737.209350    0.45510   -0.50115    0.08925    9
   20      0.165D-09      0.767D-11      -286.93135810    737.209350    0.45510   -0.50115    0.08925    9
   21      0.179D-09      0.412D-11      -286.93135810    737.209350    0.45510   -0.50115    0.08925    9
   22      0.156D-09      0.124D-11      -286.93135810    737.209350    0.45510   -0.50115    0.08925    9
   23      0.139D-09      0.731D-12      -286.93135810    737.209350    0.45510   -0.50115    0.08925    9
   24      0.689D-10      0.695D-12      -286.93135810    737.209350    0.45510   -0.50115    0.08925    9
   25      0.810D-10      0.609D-12      -286.93135810    737.209350    0.45510   -0.50115    0.08925    9
   26      0.596D-10      0.512D-12      -286.93135810    737.209350    0.45510   -0.50115    0.08925    9
   27      0.428D-10      0.649D-12      -286.93135810    737.209350    0.45510   -0.50115    0.08925    9
   28      0.247D-10      0.469D-12      -286.93135810    737.209350    0.45510   -0.50115    0.08925    9
   29      0.235D-10      0.437D-12      -286.93135810    737.209350    0.45510   -0.50115    0.08925    9
   30      0.165D-10      0.430D-12      -286.93135810    737.209350    0.45510   -0.50115    0.08925    9
   31      0.170D-10      0.518D-12      -286.93135810    737.209350    0.45510   -0.50115    0.08925    0

 Final occupancy:  26

 !RHF STATE 1.1 Energy               -286.931358100823
 Nuclear energy                       273.71271455
 One-electron energy                 -929.24874741
 Two-electron energy                  368.60467476
 Virial quotient                       -1.00146506
 !RHF STATE 1.1 Dipole moment           0.45510269    -0.50115226     0.08924701
 Dipole moment /Debye                   1.15667989    -1.27371855     0.22682843

 Orbital energies:

         1.1          2.1          3.1          4.1          5.1          6.1          7.1          8.1          9.1         10.1
    -15.535021   -11.250785   -11.250095   -11.249608   -11.248868   -11.248602   -11.247641    -1.157499    -1.125573    -1.022050

        11.1         12.1         13.1         14.1         15.1         16.1         17.1         18.1         19.1         20.1
     -1.021947    -0.830634    -0.830533    -0.714499    -0.650451    -0.623917    -0.611695    -0.609827    -0.593574    -0.593453

        21.1         22.1         23.1         24.1         25.1         26.1         27.1         28.1
     -0.504899    -0.500097    -0.500024    -0.413448    -0.342969    -0.341989     0.063910     0.066425


 **********************************************************************************************************************************
 DATASETS  * FILE   NREC   LENGTH (MB)   RECORD NAMES
              1      19     1744.56       500      610      700      900      950      970     1000      129      960     1100   
                                          VAR    BASINP    GEOM    SYMINP    ZMAT    AOBASIS   BASIS     P2S    ABASIS      S 
                                         1400     1410     1200     1210     1080     1600     1650     1300     1700   
                                           T        V       H0       H01     AOSYM     SMH    MOLCAS    ERIS     OPER   

              2       3        1.40       700     1000     2100   
                                         GEOM     BASIS     RHF  

 PROGRAMS   *        TOTAL       RHF       INT
 CPU TIMES  *        68.81     54.13     14.62
 REAL TIME  *        80.20 SEC
 DISK USED  *         6.38 GB      
 GA USED    *         0.01 MB       (max)       0.00 MB       (current)
 **********************************************************************************************************************************


1PROGRAM * CCSD (Closed-shell coupled cluster)     Authors: C. Hampel, H.-J. Werner, 1991, M. Deegan, P.J. Knowles, 1992


 Convergence thresholds:  THRVAR = 1.00D-08  THRDEN = 1.00D-12

 CCSD(T)     terms to be evaluated (factor= 1.000)


 Number of core orbitals:           7 (   7 )
 Number of closed-shell orbitals:  19 (  19 )
 Number of external orbitals:     180 ( 180 )

 Molecular orbitals read from record     2100.2  Type=RHF/CANONICAL (state 1.1)

 Number of N-1 electron functions:              19
 Number of N-2 electron functions:             190
 Number of singly external CSFs:              3420
 Number of doubly external CSFs:           5849910
 Total number of CSFs:                     5853331

 Length of J-op  integral file:               0.00 MB
 Length of K-op  integral file:               2.96 MB
 Length of 3-ext integral record:             0.00 MB

 Memory could be reduced to 140.12 Mwords without degradation in triples

 Integral transformation finished. Total CPU:  13.96 sec, npass=  1  Memory used: 101.90 MW

 Reference energy:                   -286.93135810

 MP2 singlet pair energy:              -0.62063244
 MP2 triplet pair energy:              -0.38983379
 MP2 correlation energy:               -1.01046623
 MP2 total energy:                   -287.94182433

 SCS-MP2 correlation energy:           -0.98732218   (PS=  1.200000  PT=  0.333333)
 SCS-MP2 total energy:               -287.91868028

 ITER.      SQ.NORM     CORR.ENERGY   TOTAL ENERGY   ENERGY CHANGE        DEN1      VAR(S)    VAR(P)  DIIS     TIME
   1      1.38488308    -1.05475854  -287.98611664    -0.04429231    -0.01721366  0.36D-02  0.80D-02  1  1    51.03
   2      1.41439607    -1.06062124  -287.99197934    -0.00586270    -0.02705294  0.63D-04  0.10D-02  2  2    88.57
   3      1.42352731    -1.06071699  -287.99207509    -0.00009575    -0.00464355  0.27D-04  0.84D-04  3  3   126.12
   4      1.42746467    -1.06088574  -287.99224384    -0.00016875    -0.00121416  0.22D-05  0.11D-04  4  4   163.66
   5      1.42867824    -1.06091669  -287.99227479    -0.00003095    -0.00027320  0.27D-06  0.13D-05  5  5   201.21
   6      1.42898082    -1.06090646  -287.99226456     0.00001023    -0.00004348  0.23D-07  0.79D-07  6  6   238.78
   7      1.42902157    -1.06090809  -287.99226619    -0.00000163    -0.00000103  0.35D-08  0.82D-08  6  2   276.35
   8      1.42903075    -1.06090794  -287.99226604     0.00000014    -0.00000117  0.75D-09  0.76D-09  6  1   313.93
   9      1.42903058    -1.06090808  -287.99226618    -0.00000014     0.00000123  0.21D-09  0.92D-10  6  4   351.49
  10      1.42903178    -1.06090809  -287.99226619    -0.00000001    -0.00000018  0.57D-10  0.15D-10  6  3   389.05
  11      1.42903173    -1.06090811  -287.99226621    -0.00000002     0.00000013  0.14D-10  0.37D-11  6  5   426.62
  12      1.42903168    -1.06090811  -287.99226621    -0.00000000     0.00000003  0.15D-11  0.10D-11  6  6   464.20
  13      1.42903151    -1.06090811  -287.99226621    -0.00000000     0.00000006  0.69D-13  0.20D-12  6  2   501.80
  14      1.42903141    -1.06090811  -287.99226622    -0.00000000     0.00000002  0.81D-14  0.40D-13  6  1   539.34
  15      1.42903135    -1.06090811  -287.99226622    -0.00000000     0.00000001  0.89D-15  0.54D-14  6  3   576.90
  16      1.42903133    -1.06090811  -287.99226622    -0.00000000     0.00000000  0.12D-15  0.37D-15  6  4   614.48
  17      1.42903132    -1.06090812  -287.99226622    -0.00000000     0.00000000  0.31D-16  0.44D-16  6  5   652.06
  18      1.42903132    -1.06090812  -287.99226622    -0.00000000     0.00000000  0.79D-17  0.70D-17  6  6   689.65
  19      1.42903132    -1.06090812  -287.99226622    -0.00000000     0.00000000  0.23D-17  0.75D-18  6  2   727.23
  20      1.42903132    -1.06090812  -287.99226622    -0.00000000     0.00000000  0.72D-18  0.17D-18  6  1   764.80
  21      1.42903132    -1.06090812  -287.99226622    -0.00000000     0.00000000  0.28D-18  0.73D-19  6  3   802.39
  22      1.42903132    -1.06090812  -287.99226622    -0.00000000     0.00000000  0.11D-18  0.34D-19  6  4   839.99
  23      1.42903132    -1.06090812  -287.99226622    -0.00000000     0.00000000  0.48D-19  0.19D-19  6  6   877.56

 Norm of t1 vector:      0.08385681      S-energy:    -0.00000000      T1 diagnostic:  0.00961904
                                                                       D1 diagnostic:  0.02619185

 Doubles amplitudes (print threshold =  0.500E-01):

         I         J         SYM. A    SYM. B    A         B      T(IJ, AB)

        18        18         1         1         6         6     -0.05108057
        19        19         1         1         7         7     -0.05465448


 Total CPU time for triples:    734.06 sec


 RESULTS
 =======

  Reference energy                   -286.931358100824
  CCSD singlet pair energy             -0.711156968710
  CCSD triplet pair energy             -0.349751146320
  CCSD correlation energy              -1.060908115031

  Triples (T) contribution             -0.045602685132
  Total correlation energy             -1.106510800163

  CCSD total energy                  -287.992266215855
  CCSD[T] energy                     -288.038739111745
  CCSD-T energy                      -288.037480360778
 !CCSD(T) total energy               -288.037868900986

 Timing summary (sec):

 STEP                 CPU(USER)    SYS     CPU(TOT)    WALL
 Transformation         14.37      0.83     15.20     15.20
 CCSD iterations       863.21     12.34    875.55    875.68
 Triples               734.06     11.64    745.70    745.70

 Program statistics:

 Available memory in ccsd:               999998456
 Min. memory needed in ccsd:              14392275
 Max. memory used in ccsd:                19775697
 Max. memory used in cckext:              16737545 (23 integral passes)



 **********************************************************************************************************************************
 DATASETS  * FILE   NREC   LENGTH (MB)   RECORD NAMES
              1      20     2288.17       500      610      700      900      950      970     1000      129      960     1100   
                                          VAR    BASINP    GEOM    SYMINP    ZMAT    AOBASIS   BASIS     P2S    ABASIS      S 
                                         1400     1410     1200     1210     1080     1600     1650     1300     1700     1380   
                                           T        V       H0       H01     AOSYM     SMH    MOLCAS    ERIS     OPER     JKOP   

              2       3        1.40       700     1000     2100   
                                         GEOM     BASIS     RHF  

 PROGRAMS   *        TOTAL   CCSD(T)       RHF       INT
 CPU TIMES  *      1680.46   1611.65     54.13     14.62
 REAL TIME  *      1716.89 SEC
 DISK USED  *         6.38 GB      
 GA USED    *         0.01 MB       (max)       0.00 MB       (current)
 **********************************************************************************************************************************

        CCSD(T)         RHF-SCF 
   -288.03786890   -286.93135810
 **********************************************************************************************************************************
 Variable memory released
