
 Primary working directories    : /tmp/1085792.56.gen6.q
 Secondary working directories  : /tmp/1085792.56.gen6.q
 Wavefunction directory         : /home/vulcan/mel64643/wfu/
 Main file repository           : /tmp/1085792.56.gen6.q/

 ARCHNAME  : Linux/x86_64
 FC        : /opt/intel/compilers_and_libraries_2016.1.150/linux/bin/intel64/ifort
 FCVERSION : 16.0.1
 BLASLIB   : -mkl
 id        : ccgc

 Nodes     nprocs
 n078         1
 ga_uses_ma=false, calling ma_init with nominal heap.
 GA-space will be limited to   8.0 MW (determined by -G option)

 Using customized tuning parameters: mindgm=10; mindgv=16; mindgc=4; mindgr=1; noblas=0; mincuda=1000; minvec=7
 default implementation of scratch files=df  

 ***,Optimization of h2o_2
 memory,1000,m
 gthresh,energy=1.0d-12,orbital=1.0d-10,oneint=1.0d-16,twoint=1.0d-16,optgrad=1.0d-6,compress=1.0d-13
 geomtyp=xyz
 
 
 
 bohr
 geometry = {
  O   -2.8098996158   -0.2025822982    0.0000000000
  H   -3.5751474302    1.4438868071   -0.0000000000
  H   -1.0079748048    0.1094272382    0.0000000000
  O    2.6815295569    0.1985492712   -0.0000000000
  H    3.3382401509   -0.7046636321   -1.4444212348
  H    3.3382401509   -0.7046636321    1.4444212348
 }
 
 basis=aug-cc-pvdz, H=cc-pvdz
 {rhf;maxit,200}
 {ccsd(t);maxit,200}

 Variables initialized (661), CPU time= 0.00 sec
 Commands  initialized (458), CPU time= 0.00 sec, 486 directives.
 Default parameters read. Elapsed time= 0.04 sec

 Checking input...
 Passed
1


                                         ***  PROGRAM SYSTEM MOLPRO  ***
                         Copyright, University College Cardiff Consultants Limited, 2008

                                    Version 2010.1 linked May 16 2016 07:17:05


 **********************************************************************************************************************************
 LABEL *   Optimization of h2o_2                                                         
 Linux-4.4.3/n078(x86_64) 64 bit mpp version                                             DATE: 11-Jun-24          TIME: 16:05:20  
 **********************************************************************************************************************************

 SHA1:             9e8077add272b0f3cad6f7df79ec5211205f459d
 **********************************************************************************************************************************

 THRESHOLDS:

 ZERO    =  1.00D-12  ONEINT  =  1.00D-16  TWOINT  =  1.00D-16  PREFAC  =  1.00D-14  LOCALI  =  1.00D-09  EORDER  =  1.00D-04
 ENERGY  =  1.00D-12  ETEST   =  0.00D+00  EDENS   =  0.00D+00  THRDEDEF=  1.00D-06  GRADIENT=  1.00D-02  STEP    =  1.00D-03
 ORBITAL =  1.00D-10  CIVEC   =  1.00D-05  COEFF   =  1.00D-04  PRINTCI =  5.00D-02  PUNCHCI =  9.90D+01  OPTGRAD =  1.00D-06
 OPTENERG=  1.00D-06  OPTSTEP =  3.00D-04  THRGRAD =  1.00D-10  COMPRESS=  1.00D-13  VARMIN  =  1.00D-07  VARMAX  =  1.00D-03
 THRDOUB =  0.00D+00  THRDIV  =  1.00D-05  THRRED  =  1.00D-07  THRPSP  =  1.00D+00  THRDC   =  1.00D-10  THRCS   =  1.00D-10
 THRNRM  =  1.00D-08  THREQ   =  0.00D+00  THRDE   =  1.00D+00  THRREF  =  1.00D-05  SPARFAC =  1.00D+00  THRDLP  =  1.00D-07
 THRDIA  =  1.00D-10  THRDLS  =  1.00D-07  THRGPS  =  0.00D+00  THRKEX  =  0.00D+00  THRDIS  =  2.00D-01  THRVAR  =  1.00D-10
 THRLOC  =  1.00D-06  THRGAP  =  1.00D-06  THRLOCT = -1.00D+00  THRGAPT = -1.00D+00  THRORB  =  1.00D-06  THRMLTP =  0.00D+00
 THRCPQCI=  1.00D-10  KEXTA   =  0.00D+00  THRCOARS=  0.00D+00  SYMTOL  =  1.00D-06  GRADTOL =  1.00D-06  THROVL  =  1.00D-08
 THRORTH =  1.00D-08  GRID    =  1.00D-06  GRIDMAX =  1.00D-03  DTMAX   =  0.00D+00

 SETTING GEOMTYP        =    XYZ
 ZUNIT=BOHR
 

 Variable memory set to 1000000000 words,  buffer space   230000 words

 SETTING BASIS          =    AUG-CC-PVDZ,H=CC-PVDZ


 Recomputing integrals since basis changed


 Using spherical harmonics

 Library entry O      S aug-cc-pVDZ          selected for orbital group  1
 Library entry O      P aug-cc-pVDZ          selected for orbital group  1
 Library entry O      D aug-cc-pVDZ          selected for orbital group  1
 Library entry H      S cc-pVDZ              selected for orbital group  2
 Library entry H      P cc-pVDZ              selected for orbital group  2

1PROGRAM * SEWARD (Integral evaluation for generally contracted gaussian basis sets)     Author: Roland Lindh, 1990

 Geometry written to block  1 of record 700


 Point group  Cs  



 ATOMIC COORDINATES

 NR  ATOM    CHARGE       X              Y              Z

   1  O       8.00   -2.809899616   -0.202582298    0.000000000
   2  H       1.00   -3.575147430    1.443886807    0.000000000
   3  H       1.00   -1.007974805    0.109427238    0.000000000
   4  O       8.00    2.681529557    0.198549271    0.000000000
   5  H       1.00    3.338240151   -0.704663632   -1.444421235
   6  H       1.00    3.338240151   -0.704663632    1.444421235

 Bond lengths in Bohr (Angstrom)

 1-2  1.815616901  1-3  1.828738083  4-5  1.825764239  4-6  1.825764239
     ( 0.960783084)     ( 0.967726515)     ( 0.966152824)     ( 0.966152824)

 Bond angles

  2-1-3  105.10455824   5-4-6  104.58292364

 NUCLEAR CHARGE:                   20
 NUMBER OF PRIMITIVE AOS:         102
 NUMBER OF SYMMETRY AOS:           98
 NUMBER OF CONTRACTIONS:           66   (  45A'  +  21A"  )
 NUMBER OF CORE ORBITALS:           2   (   2A'  +   0A"  )
 NUMBER OF VALENCE ORBITALS:       12   (   9A'  +   3A"  )


 NUCLEAR REPULSION ENERGY   36.50766208


 Eigenvalues of metric

         1 0.610E-02 0.788E-02 0.121E-01 0.130E-01 0.165E-01 0.209E-01 0.376E-01 0.490E-01
         2 0.166E-01 0.286E-01 0.134E+00 0.139E+00 0.246E+00 0.306E+00 0.321E+00 0.350E+00


 Contracted 2-electron integrals neglected if value below      1.0D-16
 AO integral compression algorithm  1   Integral accuracy      1.0D-16

     12.583 MB (compressed) written to integral file ( 94.4%)

     Node minimum: 12.583 MB, node maximum: 12.583 MB


 NUMBER OF SORTED TWO-ELECTRON INTEGRALS:    1280181.     BUFFER LENGTH:  32768
 NUMBER OF SEGMENTS:   1  SEGMENT LENGTH:    1280181      RECORD LENGTH: 524288

 Memory used in sort:       1.84 MW

 SORT1 READ     1642187. AND WROTE     1247376. INTEGRALS IN      4 RECORDS. CPU TIME:     0.01 SEC, REAL TIME:     0.02 SEC
 SORT2 READ     1247376. AND WROTE     1280181. INTEGRALS IN     48 RECORDS. CPU TIME:     0.02 SEC, REAL TIME:     0.03 SEC

 FILE SIZES:   FILE 1:    12.4 MBYTE,  FILE 4:    16.8 MBYTE,   TOTAL:     29.2 MBYTE

 OPERATOR DM      FOR CENTER  0  COORDINATES:    0.000000    0.000000    0.000000


 **********************************************************************************************************************************
 DATASETS  * FILE   NREC   LENGTH (MB)   RECORD NAMES
              1      19       12.43       500      610      700      900      950      970     1000      129      960     1100   
                                          VAR    BASINP    GEOM    SYMINP    ZMAT    AOBASIS   BASIS     P2S    ABASIS      S 
                                         1400     1410     1200     1210     1080     1600     1650     1300     1700   
                                           T        V       H0       H01     AOSYM     SMH    MOLCAS    ERIS     OPER   

 PROGRAMS   *        TOTAL       INT
 CPU TIMES  *         0.23      0.20
 REAL TIME  *         0.45 SEC
 DISK USED  *        42.42 MB      
 GA USED    *         0.00 MB       (max)       0.00 MB       (current)
 **********************************************************************************************************************************

1PROGRAM * RHF-SCF (CLOSED SHELL)       Authors: W. Meyer, H.-J. Werner


 NUMBER OF ELECTRONS:      10+   10-
 CONVERGENCE THRESHOLDS:    1.00E-10 (Density)    1.00E-13 (Energy)
 MAX. NUMBER OF ITERATIONS:      200
 INTERPOLATION TYPE:            DIIS
 INTERPOLATION STEPS:              2 (START)      1 (STEP)
 LEVEL SHIFTS:                  0.00 (CLOSED)  0.00 (OPEN) 



 Orbital guess generated from atomic densities. Full valence occupancy:   11   3

 Molecular orbital dump at record        2100.2

 Initial alpha occupancy:   8   2
 Initial beta  occupancy:   8   2
 Wave function symmetry:    1

 ITERATION    DDIFF          GRAD             ENERGY        2-EL.EN.            DIPOLE MOMENTS         DIIS
    1      0.000D+00      0.000D+00      -152.02030966    191.224867    1.36751    0.08664    0.00000    0
    2      0.000D+00      0.157D-01      -152.06977055    184.737950    1.02296    0.03005    0.00000    1
    3      0.298D-01      0.882D-02      -152.08666112    187.525365    1.08176    0.05427    0.00000    2
    4      0.102D-01      0.988D-03      -152.08705417    187.302824    1.06789    0.05262    0.00000    3
    5      0.167D-02      0.237D-03      -152.08708406    187.324272    1.06386    0.05360    0.00000    4
    6      0.475D-03      0.479D-04      -152.08708557    187.326652    1.06301    0.05312    0.00000    5
    7      0.116D-03      0.196D-04      -152.08708571    187.325817    1.06281    0.05343    0.00000    6
    8      0.283D-04      0.487D-05      -152.08708573    187.325803    1.06269    0.05338    0.00000    7
    9      0.124D-04      0.699D-06      -152.08708573    187.325809    1.06267    0.05338    0.00000    6
   10      0.166D-05      0.134D-06      -152.08708573    187.325806    1.06267    0.05338    0.00000    6
   11      0.321D-06      0.353D-07      -152.08708573    187.325809    1.06267    0.05338    0.00000    6
   12      0.750D-07      0.101D-07      -152.08708573    187.325808    1.06267    0.05338    0.00000    6
   13      0.257D-07      0.316D-08      -152.08708573    187.325809    1.06267    0.05338    0.00000    6
   14      0.599D-08      0.108D-08      -152.08708573    187.325809    1.06267    0.05338    0.00000    7
   15      0.204D-08      0.288D-09      -152.08708573    187.325809    1.06267    0.05338    0.00000    7
   16      0.541D-09      0.146D-09      -152.08708573    187.325809    1.06267    0.05338    0.00000    7
   17      0.223D-09      0.387D-10      -152.08708573    187.325809    1.06267    0.05338    0.00000    8
   18      0.106D-09      0.418D-11      -152.08708573    187.325809    1.06267    0.05338    0.00000    8
   19      0.773D-11      0.163D-11      -152.08708573    187.325809    1.06267    0.05338    0.00000    7
   20      0.390D-11      0.242D-12      -152.08708573    187.325809    1.06267    0.05338    0.00000    0

 Final occupancy:   8   2

 !RHF STATE 1.1 Energy               -152.087085725845
 Nuclear energy                        36.50766208
 One-electron energy                 -282.25765212
 Two-electron energy                   93.66290432
 Virial quotient                       -1.00176949
 !RHF STATE 1.1 Dipole moment           1.06266671     0.05338460     0.00000000
 Dipole moment /Debye                   2.70085247     0.13568122     0.00000000

 Orbital energies:

         1.1          2.1          3.1          4.1          5.1          6.1          7.1          8.1          9.1         10.1
    -20.603223   -20.545755    -1.379242    -1.322991    -0.694846    -0.613409    -0.557928    -0.529364     0.112593     0.152923

         1.2          2.2          3.2          4.2
     -0.739516    -0.479648     0.165336     0.240396


 **********************************************************************************************************************************
 DATASETS  * FILE   NREC   LENGTH (MB)   RECORD NAMES
              1      19       12.43       500      610      700      900      950      970     1000      129      960     1100   
                                          VAR    BASINP    GEOM    SYMINP    ZMAT    AOBASIS   BASIS     P2S    ABASIS      S 
                                         1400     1410     1200     1210     1080     1600     1650     1300     1700   
                                           T        V       H0       H01     AOSYM     SMH    MOLCAS    ERIS     OPER   

              2       3        0.40       700     1000     2100   
                                         GEOM     BASIS     RHF  

 PROGRAMS   *        TOTAL       RHF       INT
 CPU TIMES  *         0.35      0.12      0.20
 REAL TIME  *         0.61 SEC
 DISK USED  *        42.42 MB      
 GA USED    *         0.00 MB       (max)       0.00 MB       (current)
 **********************************************************************************************************************************


1PROGRAM * CCSD (Closed-shell coupled cluster)     Authors: C. Hampel, H.-J. Werner, 1991, M. Deegan, P.J. Knowles, 1992


 Convergence thresholds:  THRVAR = 1.00D-08  THRDEN = 1.00D-12

 CCSD(T)     terms to be evaluated (factor= 1.000)


 Number of core orbitals:           2 (   2   0 )
 Number of closed-shell orbitals:   8 (   6   2 )
 Number of external orbitals:      56 (  37  19 )

 Molecular orbitals read from record     2100.2  Type=RHF/CANONICAL (state 1.1)

 Number of N-1 electron functions:               8
 Number of N-2 electron functions:              36
 Number of singly external CSFs:               260
 Number of doubly external CSFs:             51696
 Total number of CSFs:                       51957

 Length of J-op  integral file:               0.00 MB
 Length of K-op  integral file:               0.20 MB
 Length of 3-ext integral record:             0.00 MB

 Memory could be reduced to 1.36 Mwords without degradation in triples

 Integral transformation finished. Total CPU:   0.02 sec, npass=  1  Memory used:   0.50 MW

 Reference energy:                   -152.08708573

 MP2 singlet pair energy:              -0.27038589
 MP2 triplet pair energy:              -0.16871947
 MP2 correlation energy:               -0.43910536
 MP2 total energy:                   -152.52619108

 SCS-MP2 correlation energy:           -0.42944407   (PS=  1.200000  PT=  0.333333)
 SCS-MP2 total energy:               -152.51652979

 ITER.      SQ.NORM     CORR.ENERGY   TOTAL ENERGY   ENERGY CHANGE        DEN1      VAR(S)    VAR(P)  DIIS     TIME
   1      1.12088510    -0.45275242  -152.53983815    -0.01364706    -0.00438453  0.23D-02  0.17D-02  1  1     0.06
   2      1.12900595    -0.45409422  -152.54117995    -0.00134180    -0.00871729  0.16D-04  0.26D-03  2  2     0.10
   3      1.13183050    -0.45435002  -152.54143575    -0.00025580    -0.00159969  0.34D-04  0.92D-05  3  3     0.14
   4      1.13271999    -0.45429079  -152.54137652     0.00005923    -0.00038676  0.14D-05  0.88D-06  4  4     0.18
   5      1.13295550    -0.45427905  -152.54136477     0.00001174    -0.00007271  0.19D-06  0.54D-07  5  5     0.22
   6      1.13300296    -0.45427540  -152.54136112     0.00000365    -0.00000665  0.19D-07  0.51D-08  6  6     0.26
   7      1.13301449    -0.45427400  -152.54135972     0.00000140    -0.00000109  0.13D-08  0.91D-09  6  2     0.30
   8      1.13301708    -0.45427398  -152.54135971     0.00000002    -0.00000005  0.15D-09  0.76D-10  6  1     0.34
   9      1.13301762    -0.45427393  -152.54135966     0.00000005     0.00000018  0.12D-10  0.91D-11  6  4     0.38
  10      1.13301790    -0.45427391  -152.54135963     0.00000002    -0.00000004  0.20D-11  0.71D-12  6  3     0.42
  11      1.13301787    -0.45427392  -152.54135965    -0.00000001     0.00000004  0.34D-12  0.10D-12  6  5     0.46
  12      1.13301784    -0.45427392  -152.54135965    -0.00000000     0.00000001  0.65D-13  0.15D-13  6  6     0.50
  13      1.13301782    -0.45427392  -152.54135965    -0.00000000     0.00000001  0.84D-14  0.28D-14  6  1     0.54
  14      1.13301781    -0.45427392  -152.54135965    -0.00000000     0.00000000  0.14D-14  0.37D-15  6  2     0.58
  15      1.13301781    -0.45427392  -152.54135965    -0.00000000     0.00000000  0.27D-15  0.61D-16  6  4     0.63
  16      1.13301781    -0.45427392  -152.54135965    -0.00000000    -0.00000000  0.35D-16  0.13D-16  6  3     0.67
  17      1.13301781    -0.45427392  -152.54135965     0.00000000    -0.00000000  0.30D-17  0.18D-17  6  6     0.71
  18      1.13301781    -0.45427392  -152.54135965    -0.00000000     0.00000000  0.30D-18  0.14D-18  6  5     0.75
  19      1.13301781    -0.45427392  -152.54135965     0.00000000    -0.00000000  0.70D-19  0.23D-19  6  2     0.79
  20      1.13301781    -0.45427392  -152.54135965     0.00000000    -0.00000000  0.12D-19  0.38D-20  6  1     0.83

 Norm of t1 vector:      0.06806092      S-energy:    -0.00000000      T1 diagnostic:  0.01203158
                                                                       D1 diagnostic:  0.02669188


 Total CPU time for triples:      0.29 sec


 RESULTS
 =======

  Reference energy                   -152.087085725845
  CCSD singlet pair energy             -0.304796792455
  CCSD triplet pair energy             -0.149477131049
  CCSD correlation energy              -0.454273923506

  Triples (T) contribution             -0.010292287176
  Total correlation energy             -0.464566210682

  CCSD total energy                  -152.541359649351
  CCSD[T] energy                     -152.552382047992
  CCSD-T energy                      -152.551365189219
 !CCSD(T) total energy               -152.551651936527

 Timing summary (sec):

 STEP                 CPU(USER)    SYS     CPU(TOT)    WALL
 Transformation          0.02      0.01      0.03      0.03
 CCSD iterations         0.81      0.08      0.89      0.91
 Triples                 0.29      0.00      0.29      0.30

 Program statistics:

 Available memory in ccsd:               999999644
 Min. memory needed in ccsd:                173249
 Max. memory used in ccsd:                  213325
 Max. memory used in cckext:                255581 (20 integral passes)



 **********************************************************************************************************************************
 DATASETS  * FILE   NREC   LENGTH (MB)   RECORD NAMES
              1      20       16.37       500      610      700      900      950      970     1000      129      960     1100   
                                          VAR    BASINP    GEOM    SYMINP    ZMAT    AOBASIS   BASIS     P2S    ABASIS      S 
                                         1400     1410     1200     1210     1080     1600     1650     1300     1700     1380   
                                           T        V       H0       H01     AOSYM     SMH    MOLCAS    ERIS     OPER     JKOP   

              2       3        0.40       700     1000     2100   
                                         GEOM     BASIS     RHF  

 PROGRAMS   *        TOTAL   CCSD(T)       RHF       INT
 CPU TIMES  *         1.48      1.13      0.12      0.20
 REAL TIME  *         1.87 SEC
 DISK USED  *        42.42 MB      
 GA USED    *         0.00 MB       (max)       0.00 MB       (current)
 **********************************************************************************************************************************

        CCSD(T)         RHF-SCF 
   -152.55165194   -152.08708573
 **********************************************************************************************************************************
 Variable memory released
