
 Primary working directories    : /tmp/1065196.357.gen4.q
 Secondary working directories  : /tmp/1065196.357.gen4.q
 Wavefunction directory         : /home/vulcan/jj04645/wfu/
 Main file repository           : /tmp/1065196.357.gen4.q/

 ARCHNAME  : Linux/x86_64
 FC        : /opt/intel/compilers_and_libraries_2016.1.150/linux/bin/intel64/ifort
 FCVERSION : 16.0.1
 BLASLIB   : -mkl
 id        : ccgc

 Nodes     nprocs
 n062         1
 ga_uses_ma=false, calling ma_init with nominal heap.
 GA-space will be limited to   8.0 MW (determined by -G option)

 Using customized tuning parameters: mindgm=10; mindgv=16; mindgc=4; mindgr=1; noblas=0; mincuda=1000; minvec=7
 default implementation of scratch files=df  

 ***,Optimization of t-butanol
 memory,1000,m
 gthresh,energy=1.0d-12,orbital=1.0d-10,oneint=1.0d-16,twoint=1.0d-16,optgrad=1.0d-6,compress=1.0d-13
 geomtyp=xyz
 
 bohr
 geometry = {
  C    0.0059034355   -0.0584306343   -0.0000000000
  O   -0.0201702555    2.6543465565   -0.0000000000
  C   -2.7671016462   -0.8321309571   -0.0000000000
  C    1.3370951488   -1.0184788765   -2.3773560859
  C    1.3370951488   -1.0184788765    2.3773560859
  H    1.7031474371    3.2050432026   -0.0000000000
  H   -2.9461076847   -2.8881250306   -0.0000000000
  H   -3.7096873843   -0.0814819828   -1.6741166982
  H   -3.7096873843   -0.0814819828    1.6741166982
  H    1.3126980122   -3.0819101134   -2.4592778326
  H    3.3096077866   -0.3971528716   -2.4031835963
  H    0.4072570743   -0.2688871237   -4.0590324259
  H    1.3126980122   -3.0819101134    2.4592778326
  H    3.3096077866   -0.3971528716    2.4031835963
  H    0.4072570743   -0.2688871237    4.0590324259
 }
 
 basis=VDZ
 {rhf;maxit,200}
 {ccsd(t);maxit,200}

 Variables initialized (661), CPU time= 0.00 sec
 Commands  initialized (458), CPU time= 0.00 sec, 486 directives.
 Default parameters read. Elapsed time= 0.04 sec

 Checking input...
 Passed
1


                                         ***  PROGRAM SYSTEM MOLPRO  ***
                         Copyright, University College Cardiff Consultants Limited, 2008

                                    Version 2010.1 linked May 16 2016 07:17:05


 **********************************************************************************************************************************
 LABEL *   Optimization of t-butanol                                                     
 Linux-4.4.3/n062(x86_64) 64 bit mpp version                                             DATE: 20-May-24          TIME: 11:37:05  
 **********************************************************************************************************************************

 SHA1:             9e8077add272b0f3cad6f7df79ec5211205f459d
 **********************************************************************************************************************************

 THRESHOLDS:

 ZERO    =  1.00D-12  ONEINT  =  1.00D-16  TWOINT  =  1.00D-16  PREFAC  =  1.00D-14  LOCALI  =  1.00D-09  EORDER  =  1.00D-04
 ENERGY  =  1.00D-12  ETEST   =  0.00D+00  EDENS   =  0.00D+00  THRDEDEF=  1.00D-06  GRADIENT=  1.00D-02  STEP    =  1.00D-03
 ORBITAL =  1.00D-10  CIVEC   =  1.00D-05  COEFF   =  1.00D-04  PRINTCI =  5.00D-02  PUNCHCI =  9.90D+01  OPTGRAD =  1.00D-06
 OPTENERG=  1.00D-06  OPTSTEP =  3.00D-04  THRGRAD =  1.00D-10  COMPRESS=  1.00D-13  VARMIN  =  1.00D-07  VARMAX  =  1.00D-03
 THRDOUB =  0.00D+00  THRDIV  =  1.00D-05  THRRED  =  1.00D-07  THRPSP  =  1.00D+00  THRDC   =  1.00D-10  THRCS   =  1.00D-10
 THRNRM  =  1.00D-08  THREQ   =  0.00D+00  THRDE   =  1.00D+00  THRREF  =  1.00D-05  SPARFAC =  1.00D+00  THRDLP  =  1.00D-07
 THRDIA  =  1.00D-10  THRDLS  =  1.00D-07  THRGPS  =  0.00D+00  THRKEX  =  0.00D+00  THRDIS  =  2.00D-01  THRVAR  =  1.00D-10
 THRLOC  =  1.00D-06  THRGAP  =  1.00D-06  THRLOCT = -1.00D+00  THRGAPT = -1.00D+00  THRORB  =  1.00D-06  THRMLTP =  0.00D+00
 THRCPQCI=  1.00D-10  KEXTA   =  0.00D+00  THRCOARS=  0.00D+00  SYMTOL  =  1.00D-06  GRADTOL =  1.00D-06  THROVL  =  1.00D-08
 THRORTH =  1.00D-08  GRID    =  1.00D-06  GRIDMAX =  1.00D-03  DTMAX   =  0.00D+00

 SETTING GEOMTYP        =    XYZ
 ZUNIT=BOHR
 

 Variable memory set to 1000000000 words,  buffer space   230000 words

 SETTING BASIS          =    VDZ


 Recomputing integrals since basis changed


 Using spherical harmonics

 Library entry C      S cc-pVDZ              selected for orbital group  1
 Library entry C      P cc-pVDZ              selected for orbital group  1
 Library entry C      D cc-pVDZ              selected for orbital group  1
 Library entry O      S cc-pVDZ              selected for orbital group  2
 Library entry O      P cc-pVDZ              selected for orbital group  2
 Library entry O      D cc-pVDZ              selected for orbital group  2
 Library entry H      S cc-pVDZ              selected for orbital group  4
 Library entry H      P cc-pVDZ              selected for orbital group  4

1PROGRAM * SEWARD (Integral evaluation for generally contracted gaussian basis sets)     Author: Roland Lindh, 1990

 Geometry written to block  1 of record 700


 Point group  Cs  



 ATOMIC COORDINATES

 NR  ATOM    CHARGE       X              Y              Z

   1  C       6.00    0.005903436   -0.058430634    0.000000000
   2  O       8.00   -0.020170256    2.654346557    0.000000000
   3  C       6.00   -2.767101646   -0.832130957    0.000000000
   4  C       6.00    1.337095149   -1.018478876   -2.377356086
   5  C       6.00    1.337095149   -1.018478876    2.377356086
   6  H       1.00    1.703147437    3.205043203    0.000000000
   7  H       1.00   -2.946107685   -2.888125031    0.000000000
   8  H       1.00   -3.709687384   -0.081481983   -1.674116698
   9  H       1.00   -3.709687384   -0.081481983    1.674116698
  10  H       1.00    1.312698012   -3.081910113   -2.459277833
  11  H       1.00    1.312698012   -3.081910113    2.459277833
  12  H       1.00    3.309607787   -0.397152872   -2.403183596
  13  H       1.00    3.309607787   -0.397152872    2.403183596
  14  H       1.00    0.407257074   -0.268887124   -4.059032426
  15  H       1.00    0.407257074   -0.268887124    4.059032426

 Bond lengths in Bohr (Angstrom)

 1-2  2.712902491  1-3  2.878918091  1-4  2.888872784  1-5  2.888872784  2-6  1.809168501
     ( 1.435606168)     ( 1.523457840)     ( 1.528725637)     ( 1.528725637)     ( 0.957370738)

  3- 7  2.063771982   3- 8  2.062670229   3- 9  2.062670229   4-10  2.065200925   4-12  2.068216423
       ( 1.092101097)       ( 1.091518075)       ( 1.091518075)       ( 1.092857262)       ( 1.094452994)

  4-14  2.062649256   5-11  2.065200925   5-13  2.068216423   5-15  2.062649256
       ( 1.091506976)       ( 1.092857262)       ( 1.094452994)       ( 1.091506976)

 Bond angles

  1-2-6  107.17091859   1-3-7  110.56564859   1-3-8  110.02067679   1-3-9  110.02067679

  1- 4-10  111.05363904   1- 4-12  110.48225585   1- 4-14  110.02558713   1- 5-11  111.05363904

  1- 5-13  110.48225585   1- 5-15  110.02558713   2- 1- 3  105.03903602   2- 1- 4  109.67835923

  2-1-5  109.67835923   3-1-4  110.76498583   3-1-5  110.76498583   4-1-5  110.75948302

  7- 3- 8  108.83916949   7- 3- 9  108.83916949   8- 3- 9  108.51019466  10- 4-12  108.11530606

 10- 4-14  108.99188314  11- 5-13  108.11530606  11- 5-15  108.99188314  12- 4-14  108.09428830

 13- 5-15  108.09428830

 NUCLEAR CHARGE:                   42
 NUMBER OF PRIMITIVE AOS:         205
 NUMBER OF SYMMETRY AOS:          200
 NUMBER OF CONTRACTIONS:          120   (  72A'  +  48A"  )
 NUMBER OF CORE ORBITALS:           5   (   4A'  +   1A"  )
 NUMBER OF VALENCE ORBITALS:       30   (  19A'  +  11A"  )


 NUCLEAR REPULSION ENERGY  199.68292573


 Eigenvalues of metric

         1 0.260E-02 0.490E-02 0.834E-02 0.169E-01 0.192E-01 0.249E-01 0.300E-01 0.336E-01
         2 0.488E-02 0.191E-01 0.240E-01 0.303E-01 0.343E-01 0.351E-01 0.375E-01 0.444E-01


 Contracted 2-electron integrals neglected if value below      1.0D-16
 AO integral compression algorithm  1   Integral accuracy      1.0D-16

     119.538 MB (compressed) written to integral file ( 98.2%)

     Node minimum: 119.538 MB, node maximum: 119.538 MB


 NUMBER OF SORTED TWO-ELECTRON INTEGRALS:   13418166.     BUFFER LENGTH:  32768
 NUMBER OF SEGMENTS:   1  SEGMENT LENGTH:   13418166      RECORD LENGTH: 524288

 Memory used in sort:      13.98 MW

 SORT1 READ    15222547. AND WROTE    13374780. INTEGRALS IN     39 RECORDS. CPU TIME:     0.16 SEC, REAL TIME:     0.25 SEC
 SORT2 READ    13374780. AND WROTE    13418166. INTEGRALS IN    456 RECORDS. CPU TIME:     0.16 SEC, REAL TIME:     0.21 SEC

 FILE SIZES:   FILE 1:   109.5 MBYTE,  FILE 4:   163.6 MBYTE,   TOTAL:    273.1 MBYTE

 OPERATOR DM      FOR CENTER  0  COORDINATES:    0.000000    0.000000    0.000000


 **********************************************************************************************************************************
 DATASETS  * FILE   NREC   LENGTH (MB)   RECORD NAMES
              1      19      109.55       500      610      700      900      950      970     1000      129      960     1100   
                                          VAR    BASINP    GEOM    SYMINP    ZMAT    AOBASIS   BASIS     P2S    ABASIS      S 
                                         1400     1410     1200     1210     1080     1600     1650     1300     1700   
                                           T        V       H0       H01     AOSYM     SMH    MOLCAS    ERIS     OPER   

 PROGRAMS   *        TOTAL       INT
 CPU TIMES  *         2.32      2.28
 REAL TIME  *         2.70 SEC
 DISK USED  *       393.57 MB      
 GA USED    *         0.00 MB       (max)       0.00 MB       (current)
 **********************************************************************************************************************************

1PROGRAM * RHF-SCF (CLOSED SHELL)       Authors: W. Meyer, H.-J. Werner


 NUMBER OF ELECTRONS:      21+   21-
 CONVERGENCE THRESHOLDS:    1.00E-10 (Density)    1.00E-13 (Energy)
 MAX. NUMBER OF ITERATIONS:      200
 INTERPOLATION TYPE:            DIIS
 INTERPOLATION STEPS:              2 (START)      1 (STEP)
 LEVEL SHIFTS:                  0.00 (CLOSED)  0.00 (OPEN) 



 Orbital guess generated from atomic densities. Full valence occupancy:   23  12

 Molecular orbital dump at record        2100.2

 Initial alpha occupancy:  14   7
 Initial beta  occupancy:  14   7
 Wave function symmetry:    1

 ITERATION    DDIFF          GRAD             ENERGY        2-EL.EN.            DIPOLE MOMENTS         DIIS
    1      0.000D+00      0.000D+00      -232.08702918    561.160421    0.88416   -0.62591    0.00000    0
    2      0.000D+00      0.851D-02      -232.16325586    555.953687    0.40861   -0.32505    0.00000    1
    3      0.169D-01      0.366D-02      -232.17390566    557.941793    0.52851   -0.43028    0.00000    2
    4      0.537D-02      0.101D-02      -232.17519941    557.716615    0.50212   -0.39400    0.00000    3
    5      0.195D-02      0.263D-03      -232.17527560    557.653199    0.50141   -0.40612    0.00000    4
    6      0.422D-03      0.491D-04      -232.17527859    557.673284    0.50081   -0.40441    0.00000    5
    7      0.124D-03      0.892D-05      -232.17527873    557.667700    0.50074   -0.40455    0.00000    6
    8      0.253D-04      0.283D-05      -232.17527874    557.669249    0.50075   -0.40464    0.00000    7
    9      0.536D-05      0.901D-06      -232.17527874    557.668915    0.50072   -0.40465    0.00000    7
   10      0.204D-05      0.251D-06      -232.17527874    557.668966    0.50073   -0.40467    0.00000    7
   11      0.655D-06      0.516D-07      -232.17527874    557.668955    0.50072   -0.40467    0.00000    7
   12      0.163D-06      0.159D-07      -232.17527874    557.668963    0.50073   -0.40467    0.00000    7
   13      0.319D-07      0.685D-08      -232.17527874    557.668960    0.50073   -0.40467    0.00000    7
   14      0.134D-07      0.224D-08      -232.17527874    557.668960    0.50073   -0.40467    0.00000    8
   15      0.400D-08      0.585D-09      -232.17527874    557.668960    0.50073   -0.40467    0.00000    8
   16      0.141D-08      0.146D-09      -232.17527874    557.668960    0.50073   -0.40467    0.00000    7
   17      0.343D-09      0.403D-10      -232.17527874    557.668960    0.50073   -0.40467    0.00000    7
   18      0.105D-09      0.114D-10      -232.17527874    557.668960    0.50073   -0.40467    0.00000    8
   19      0.232D-10      0.306D-11      -232.17527874    557.668960    0.50073   -0.40467    0.00000    8
   20      0.852D-11      0.997D-12      -232.17527874    557.668960    0.50073   -0.40467    0.00000    7
   21      0.238D-11      0.343D-12      -232.17527874    557.668960    0.50073   -0.40467    0.00000    7
   22      0.782D-12      0.108D-12      -232.17527874    557.668960    0.50073   -0.40467    0.00000    0

 Final occupancy:  14   7

 !RHF STATE 1.1 Energy               -232.175278740791
 Nuclear energy                       199.68292573
 One-electron energy                 -710.69268460
 Two-electron energy                  278.83448013
 Virial quotient                       -1.00084687
 !RHF STATE 1.1 Dipole moment           0.50072546    -0.40466976     0.00000000
 Dipole moment /Debye                   1.27263382    -1.02850057     0.00000000

 Orbital energies:

         1.1          2.1          3.1          4.1          5.1          6.1          7.1          8.1          9.1         10.1
    -20.544683   -11.282140   -11.220473   -11.214387    -1.353358    -1.064536    -0.938153    -0.767305    -0.666245    -0.620942

        11.1         12.1         13.1         14.1         15.1         16.1
     -0.573359    -0.527974    -0.505603    -0.458165     0.167021     0.220445

         1.2          2.2          3.2          4.2          5.2          6.2          7.2          8.2          9.2
    -11.220491    -0.940019    -0.618108    -0.554305    -0.514094    -0.500557    -0.426965     0.241080     0.255113


 **********************************************************************************************************************************
 DATASETS  * FILE   NREC   LENGTH (MB)   RECORD NAMES
              1      19      109.55       500      610      700      900      950      970     1000      129      960     1100   
                                          VAR    BASINP    GEOM    SYMINP    ZMAT    AOBASIS   BASIS     P2S    ABASIS      S 
                                         1400     1410     1200     1210     1080     1600     1650     1300     1700   
                                           T        V       H0       H01     AOSYM     SMH    MOLCAS    ERIS     OPER   

              2       3        0.66       700     1000     2100   
                                         GEOM     BASIS     RHF  

 PROGRAMS   *        TOTAL       RHF       INT
 CPU TIMES  *         3.84      1.52      2.28
 REAL TIME  *         4.46 SEC
 DISK USED  *       393.57 MB      
 GA USED    *         0.00 MB       (max)       0.00 MB       (current)
 **********************************************************************************************************************************


1PROGRAM * CCSD (Closed-shell coupled cluster)     Authors: C. Hampel, H.-J. Werner, 1991, M. Deegan, P.J. Knowles, 1992


 Convergence thresholds:  THRVAR = 1.00D-08  THRDEN = 1.00D-12

 CCSD(T)     terms to be evaluated (factor= 1.000)


 Number of core orbitals:           5 (   4   1 )
 Number of closed-shell orbitals:  16 (  10   6 )
 Number of external orbitals:      99 (  58  41 )

 Molecular orbitals read from record     2100.2  Type=RHF/CANONICAL (state 1.1)

 Number of N-1 electron functions:              16
 Number of N-2 electron functions:             136
 Number of singly external CSFs:               826
 Number of doubly external CSFs:            629212
 Total number of CSFs:                      630039

 Length of J-op  integral file:               0.00 MB
 Length of K-op  integral file:               0.55 MB
 Length of 3-ext integral record:             0.00 MB

 Memory could be reduced to 10.83 Mwords without degradation in triples

 Integral transformation finished. Total CPU:   0.49 sec, npass=  1  Memory used:   6.19 MW

 Reference energy:                   -232.17527874

 MP2 singlet pair energy:              -0.49744138
 MP2 triplet pair energy:              -0.27467170
 MP2 correlation energy:               -0.77211308
 MP2 total energy:                   -232.94739182

 SCS-MP2 correlation energy:           -0.76783649   (PS=  1.200000  PT=  0.333333)
 SCS-MP2 total energy:               -232.94311523

 ITER.      SQ.NORM     CORR.ENERGY   TOTAL ENERGY   ENERGY CHANGE        DEN1      VAR(S)    VAR(P)  DIIS     TIME
   1      1.27346969    -0.82933590  -233.00461464    -0.05722282    -0.03610901  0.25D-02  0.44D-02  1  1     1.47
   2      1.29462716    -0.83365080  -233.00892954    -0.00431490    -0.02218409  0.67D-04  0.42D-03  2  2     2.47
   3      1.29913802    -0.83386056  -233.00913930    -0.00020976    -0.00276870  0.24D-04  0.24D-04  3  3     3.48
   4      1.30040170    -0.83386631  -233.00914505    -0.00000575    -0.00060150  0.63D-06  0.21D-05  4  4     4.49
   5      1.30063209    -0.83387524  -233.00915398    -0.00000893    -0.00008076  0.18D-06  0.15D-06  5  5     5.50
   6      1.30067292    -0.83387200  -233.00915074     0.00000324    -0.00001313  0.25D-07  0.14D-07  6  6     6.52
   7      1.30067973    -0.83387079  -233.00914953     0.00000121    -0.00000071  0.37D-08  0.17D-08  6  1     7.53
   8      1.30068324    -0.83387080  -233.00914954    -0.00000001    -0.00000041  0.66D-09  0.21D-09  6  2     8.54
   9      1.30068380    -0.83387074  -233.00914948     0.00000006     0.00000056  0.62D-10  0.38D-10  6  4     9.55
  10      1.30068438    -0.83387072  -233.00914946     0.00000001    -0.00000001  0.49D-11  0.37D-11  6  3    10.57
  11      1.30068436    -0.83387073  -233.00914947    -0.00000000     0.00000005  0.75D-12  0.45D-12  6  5    11.58
  12      1.30068430    -0.83387073  -233.00914947    -0.00000000     0.00000003  0.14D-12  0.64D-13  6  6    12.59
  13      1.30068424    -0.83387073  -233.00914947    -0.00000000     0.00000003  0.11D-13  0.98D-14  6  2    13.60
  14      1.30068423    -0.83387073  -233.00914947    -0.00000000     0.00000001  0.17D-14  0.60D-15  6  1    14.61
  15      1.30068423    -0.83387073  -233.00914947    -0.00000000     0.00000000  0.22D-15  0.13D-15  6  4    15.63
  16      1.30068423    -0.83387073  -233.00914947     0.00000000    -0.00000000  0.34D-16  0.20D-16  6  3    16.63
  17      1.30068423    -0.83387073  -233.00914947     0.00000000    -0.00000000  0.32D-17  0.25D-17  6  5    17.65
  18      1.30068423    -0.83387073  -233.00914947    -0.00000000    -0.00000000  0.85D-18  0.34D-18  6  6    18.66
  19      1.30068423    -0.83387073  -233.00914947    -0.00000000    -0.00000000  0.21D-18  0.61D-19  6  2    19.68
  20      1.30068423    -0.83387073  -233.00914947    -0.00000000     0.00000000  0.31D-19  0.12D-19  6  1    20.69
  21      1.30068423    -0.83387073  -233.00914947    -0.00000000     0.00000000  0.38D-20  0.20D-20  6  4    21.71
  22      1.30068423    -0.83387073  -233.00914947     0.00000000    -0.00000000  0.65D-21  0.30D-21  6  3    22.72

 Norm of t1 vector:      0.06593944      S-energy:    -0.00000000      T1 diagnostic:  0.00824243
                                                                       D1 diagnostic:  0.02154832


 Total CPU time for triples:     17.49 sec


 RESULTS
 =======

  Reference energy                   -232.175278740791
  CCSD singlet pair energy             -0.580832971683
  CCSD triplet pair energy             -0.253037758540
  CCSD correlation energy              -0.833870730223

  Triples (T) contribution             -0.023238710966
  Total correlation energy             -0.857109441189

  CCSD total energy                  -233.009149471014
  CCSD[T] energy                     -233.033083559283
  CCSD-T energy                      -233.032052832078
 !CCSD(T) total energy               -233.032388181980

 Timing summary (sec):

 STEP                 CPU(USER)    SYS     CPU(TOT)    WALL
 Transformation          0.51      0.07      0.58      0.58
 CCSD iterations        22.21      0.94     23.15     23.20
 Triples                17.49      0.58     18.07     18.07

 Program statistics:

 Available memory in ccsd:               999998876
 Min. memory needed in ccsd:               1681381
 Max. memory used in ccsd:                 2239583
 Max. memory used in cckext:               2333618 (22 integral passes)



 **********************************************************************************************************************************
 DATASETS  * FILE   NREC   LENGTH (MB)   RECORD NAMES
              1      20      153.11       500      610      700      900      950      970     1000      129      960     1100   
                                          VAR    BASINP    GEOM    SYMINP    ZMAT    AOBASIS   BASIS     P2S    ABASIS      S 
                                         1400     1410     1200     1210     1080     1600     1650     1300     1700     1380   
                                           T        V       H0       H01     AOSYM     SMH    MOLCAS    ERIS     OPER     JKOP   

              2       3        0.66       700     1000     2100   
                                         GEOM     BASIS     RHF  

 PROGRAMS   *        TOTAL   CCSD(T)       RHF       INT
 CPU TIMES  *        44.06     40.22      1.52      2.28
 REAL TIME  *        46.34 SEC
 DISK USED  *       393.57 MB      
 GA USED    *         0.00 MB       (max)       0.00 MB       (current)
 **********************************************************************************************************************************

        CCSD(T)         RHF-SCF 
   -233.03238818   -232.17527874
 **********************************************************************************************************************************
 Variable memory released
