
 Primary working directories    : /tmp/880701.846.gen5.q
 Secondary working directories  : /tmp/880701.846.gen5.q
 Wavefunction directory         : /home/vulcan/lo21740/wfu/
 Main file repository           : /tmp/880701.846.gen5.q/

 ARCHNAME  : Linux/x86_64
 FC        : /opt/intel/compilers_and_libraries_2016.1.150/linux/bin/intel64/ifort
 FCVERSION : 16.0.1
 BLASLIB   : -mkl
 id        : ccgc

 Nodes     nprocs
 n070         1
 ga_uses_ma=false, calling ma_init with nominal heap.
 GA-space will be limited to   8.0 MW (determined by -G option)

 Using customized tuning parameters: mindgm=10; mindgv=16; mindgc=4; mindgr=1; noblas=0; mincuda=1000; minvec=7
 default implementation of scratch files=df  

 ***,Optimization of formamide
 memory,1000,m
 gthresh,energy=1.0d-12,orbital=1.0d-10,oneint=1.0d-16,twoint=1.0d-16,optgrad=1.0d-6,compress=1.0d-13
 geomtyp=xyz
 
 bohr
 geometry = {
  C   -3.8266967945    0.0884150115    0.0002715903
  O   -2.7343401050    2.1449234334   -0.0035825244
  N   -2.6803258355   -2.1810629575   -0.0011475236
  H   -3.7406643419   -3.7566899057    0.0001728968
  H   -0.7474224287   -2.3108500685   -0.0021721998
  H   -5.9037514608   -0.0185081990    0.0064577607
  C    3.8266967945   -0.0884150115    0.0002715903
  O    2.7343401050   -2.1449234334   -0.0035825244
  N    2.6803258355    2.1810629575   -0.0011475236
  H    3.7406643419    3.7566899057    0.0001728968
  H    0.7474224287    2.3108500685   -0.0021721998
  H    5.9037514608    0.0185081990    0.0064577607
 }
 
 basis=AVDZ
 {rhf;maxit,200}
 {ccsd(t);maxit,200}

 Variables initialized (661), CPU time= 0.01 sec
 Commands  initialized (458), CPU time= 0.02 sec, 486 directives.
 Default parameters read. Elapsed time= 0.13 sec

 Checking input...
 Passed
1


                                         ***  PROGRAM SYSTEM MOLPRO  ***
                         Copyright, University College Cardiff Consultants Limited, 2008

                                    Version 2010.1 linked May 16 2016 07:17:05


 **********************************************************************************************************************************
 LABEL *   Optimization of formamide                                                     
 Linux-4.4.3/n070(x86_64) 64 bit mpp version                                             DATE: 25-May-23          TIME: 04:43:55  
 **********************************************************************************************************************************

 SHA1:             9e8077add272b0f3cad6f7df79ec5211205f459d
 **********************************************************************************************************************************

 THRESHOLDS:

 ZERO    =  1.00D-12  ONEINT  =  1.00D-16  TWOINT  =  1.00D-16  PREFAC  =  1.00D-14  LOCALI  =  1.00D-09  EORDER  =  1.00D-04
 ENERGY  =  1.00D-12  ETEST   =  0.00D+00  EDENS   =  0.00D+00  THRDEDEF=  1.00D-06  GRADIENT=  1.00D-02  STEP    =  1.00D-03
 ORBITAL =  1.00D-10  CIVEC   =  1.00D-05  COEFF   =  1.00D-04  PRINTCI =  5.00D-02  PUNCHCI =  9.90D+01  OPTGRAD =  1.00D-06
 OPTENERG=  1.00D-06  OPTSTEP =  3.00D-04  THRGRAD =  1.00D-10  COMPRESS=  1.00D-13  VARMIN  =  1.00D-07  VARMAX  =  1.00D-03
 THRDOUB =  0.00D+00  THRDIV  =  1.00D-05  THRRED  =  1.00D-07  THRPSP  =  1.00D+00  THRDC   =  1.00D-10  THRCS   =  1.00D-10
 THRNRM  =  1.00D-08  THREQ   =  0.00D+00  THRDE   =  1.00D+00  THRREF  =  1.00D-05  SPARFAC =  1.00D+00  THRDLP  =  1.00D-07
 THRDIA  =  1.00D-10  THRDLS  =  1.00D-07  THRGPS  =  0.00D+00  THRKEX  =  0.00D+00  THRDIS  =  2.00D-01  THRVAR  =  1.00D-10
 THRLOC  =  1.00D-06  THRGAP  =  1.00D-06  THRLOCT = -1.00D+00  THRGAPT = -1.00D+00  THRORB  =  1.00D-06  THRMLTP =  0.00D+00
 THRCPQCI=  1.00D-10  KEXTA   =  0.00D+00  THRCOARS=  0.00D+00  SYMTOL  =  1.00D-06  GRADTOL =  1.00D-06  THROVL  =  1.00D-08
 THRORTH =  1.00D-08  GRID    =  1.00D-06  GRIDMAX =  1.00D-03  DTMAX   =  0.00D+00

 SETTING GEOMTYP        =    XYZ
 ZUNIT=BOHR
 

 Variable memory set to 1000000000 words,  buffer space   230000 words

 SETTING BASIS          =    AVDZ


 Recomputing integrals since basis changed


 Using spherical harmonics

 Library entry C      S aug-cc-pVDZ          selected for orbital group  1
 Library entry C      P aug-cc-pVDZ          selected for orbital group  1
 Library entry C      D aug-cc-pVDZ          selected for orbital group  1
 Library entry O      S aug-cc-pVDZ          selected for orbital group  2
 Library entry O      P aug-cc-pVDZ          selected for orbital group  2
 Library entry O      D aug-cc-pVDZ          selected for orbital group  2
 Library entry N      S aug-cc-pVDZ          selected for orbital group  3
 Library entry N      P aug-cc-pVDZ          selected for orbital group  3
 Library entry N      D aug-cc-pVDZ          selected for orbital group  3
 Library entry H      S aug-cc-pVDZ          selected for orbital group  4
 Library entry H      P aug-cc-pVDZ          selected for orbital group  4

1PROGRAM * SEWARD (Integral evaluation for generally contracted gaussian basis sets)     Author: Roland Lindh, 1990

 Geometry written to block  1 of record 700


 Point group  C2  



 ATOMIC COORDINATES

 NR  ATOM    CHARGE       X              Y              Z

   1  C       6.00   -3.826696795    0.088415012    0.000271590
   2  C       6.00    3.826696795   -0.088415012    0.000271590
   3  O       8.00   -2.734340105    2.144923433   -0.003582524
   4  O       8.00    2.734340105   -2.144923433   -0.003582524
   5  N       7.00   -2.680325836   -2.181062958   -0.001147524
   6  N       7.00    2.680325836    2.181062958   -0.001147524
   7  H       1.00   -3.740664342   -3.756689906    0.000172897
   8  H       1.00    3.740664342    3.756689906    0.000172897
   9  H       1.00   -0.747422429   -2.310850069   -0.002172200
  10  H       1.00    0.747422429    2.310850069   -0.002172200
  11  H       1.00   -5.903751461   -0.018508199    0.006457761
  12  H       1.00    5.903751461    0.018508199    0.006457761

 Bond lengths in Bohr (Angstrom)

  1- 3  2.328622958   1- 5  2.542577165   1-11  2.079814157   2- 4  2.328622958   2- 6  2.542577165
       ( 1.232254198)       ( 1.345473888)       ( 1.100590251)       ( 1.232254198)       ( 1.345473888)

  2-12  2.079814157   5- 7  1.899189241   5- 9  1.937256133   6- 8  1.899189241   6-10  1.937256133
       ( 1.100590251)       ( 1.005007662)       ( 1.025151793)       ( 1.005007662)       ( 1.025151793)

 Bond angles

  1- 5- 7  119.26137038   1- 5- 9  120.64093710   2- 6- 8  119.26137038   2- 6-10  120.64093710

  3- 1- 5  125.22444977   3- 1-11  120.92294077   4- 2- 6  125.22444977   4- 2-12  120.92294077

  5- 1-11  113.85260091   6- 2-12  113.85260091   7- 5- 9  120.09767558   8- 6-10  120.09767558

 NUCLEAR CHARGE:                   48
 NUMBER OF PRIMITIVE AOS:         288
 NUMBER OF SYMMETRY AOS:          276
 NUMBER OF CONTRACTIONS:          192   (  96A   +  96B   )
 NUMBER OF CORE ORBITALS:           6   (   3A   +   3B   )
 NUMBER OF VALENCE ORBITALS:       30   (  15A   +  15B   )


 NUCLEAR REPULSION ENERGY  230.27785429


 Eigenvalues of metric

         1 0.232E-03 0.530E-03 0.704E-03 0.718E-03 0.866E-03 0.218E-02 0.279E-02 0.328E-02
         2 0.271E-03 0.528E-03 0.566E-03 0.718E-03 0.120E-02 0.134E-02 0.233E-02 0.321E-02


 Contracted 2-electron integrals neglected if value below      1.0D-16
 AO integral compression algorithm  1   Integral accuracy      1.0D-16

     823.394 MB (compressed) written to integral file ( 95.7%)

     Node minimum: 823.394 MB, node maximum: 823.394 MB


 NUMBER OF SORTED TWO-ELECTRON INTEGRALS:   86718000.     BUFFER LENGTH:  32768
 NUMBER OF SEGMENTS:   6  SEGMENT LENGTH:   15998362      RECORD LENGTH: 524288

 Memory used in sort:      16.56 MW

 SORT1 READ   107623504. AND WROTE    86266541. INTEGRALS IN    250 RECORDS. CPU TIME:     1.16 SEC, REAL TIME:     1.75 SEC
 SORT2 READ    86266541. AND WROTE    86718000. INTEGRALS IN   3141 RECORDS. CPU TIME:     0.85 SEC, REAL TIME:     1.23 SEC

 FILE SIZES:   FILE 1:   684.3 MBYTE,  FILE 4:  1048.6 MBYTE,   TOTAL:   1732.9 MBYTE

 OPERATOR DM      FOR CENTER  0  COORDINATES:    0.000000    0.000000    0.000000


 **********************************************************************************************************************************
 DATASETS  * FILE   NREC   LENGTH (MB)   RECORD NAMES
              1      19      684.50       500      610      700      900      950      970     1000      129      960     1100   
                                          VAR    BASINP    GEOM    SYMINP    ZMAT    AOBASIS   BASIS     P2S    ABASIS      S 
                                         1400     1410     1200     1210     1080     1600     1650     1300     1700   
                                           T        V       H0       H01     AOSYM     SMH    MOLCAS    ERIS     OPER   

 PROGRAMS   *        TOTAL       INT
 CPU TIMES  *         7.19      7.02
 REAL TIME  *         9.13 SEC
 DISK USED  *         2.56 GB      
 GA USED    *         0.00 MB       (max)       0.00 MB       (current)
 **********************************************************************************************************************************

1PROGRAM * RHF-SCF (CLOSED SHELL)       Authors: W. Meyer, H.-J. Werner


 NUMBER OF ELECTRONS:      24+   24-
 CONVERGENCE THRESHOLDS:    1.00E-10 (Density)    1.00E-13 (Energy)
 MAX. NUMBER OF ITERATIONS:      200
 INTERPOLATION TYPE:            DIIS
 INTERPOLATION STEPS:              2 (START)      1 (STEP)
 LEVEL SHIFTS:                  0.00 (CLOSED)  0.00 (OPEN) 



 Orbital guess generated from atomic densities. Full valence occupancy:   18  18

 Molecular orbital dump at record        2100.2

 Initial alpha occupancy:  12  12
 Initial beta  occupancy:  12  12
 Wave function symmetry:    1

 ITERATION    DDIFF          GRAD             ENERGY        2-EL.EN.            DIPOLE MOMENTS         DIIS
    1      0.000D+00      0.000D+00      -337.80552839    704.220533    0.00000    0.00000    0.00680    0
    2      0.000D+00      0.795D-02      -337.88284771    698.646528    0.00000    0.00000    0.00313    1
    3      0.151D-01      0.580D-02      -337.94086664    701.374361    0.00000    0.00000    0.00478    2
    4      0.613D-02      0.765D-03      -337.94308598    701.278070    0.00000    0.00000    0.00480    3
    5      0.146D-02      0.264D-03      -337.94335638    701.212086    0.00000    0.00000    0.00478    4
    6      0.499D-03      0.869D-04      -337.94341834    701.237743    0.00000    0.00000    0.00479    5
    7      0.221D-03      0.385D-04      -337.94342948    701.228685    0.00000    0.00000    0.00479    6
    8      0.105D-03      0.115D-04      -337.94343044    701.234346    0.00000    0.00000    0.00479    7
    9      0.331D-04      0.349D-05      -337.94343052    701.231838    0.00000    0.00000    0.00479    8
   10      0.877D-05      0.121D-05      -337.94343053    701.232380    0.00000    0.00000    0.00479    7
   11      0.366D-05      0.289D-06      -337.94343053    701.232307    0.00000    0.00000    0.00479    8
   12      0.841D-06      0.436D-07      -337.94343053    701.232313    0.00000    0.00000    0.00479    7
   13      0.123D-06      0.102D-07      -337.94343053    701.232314    0.00000    0.00000    0.00479    7
   14      0.314D-07      0.183D-08      -337.94343053    701.232314    0.00000    0.00000    0.00479    6
   15      0.484D-08      0.636D-09      -337.94343053    701.232314    0.00000    0.00000    0.00479    6
   16      0.138D-08      0.273D-09      -337.94343053    701.232314    0.00000    0.00000    0.00479    6
   17      0.510D-09      0.722D-10      -337.94343053    701.232314    0.00000    0.00000    0.00479    7
   18      0.168D-09      0.208D-10      -337.94343053    701.232314    0.00000    0.00000    0.00479    7
   19      0.560D-10      0.670D-11      -337.94343053    701.232314    0.00000    0.00000    0.00479    7
   20      0.183D-10      0.255D-11      -337.94343053    701.232314    0.00000    0.00000    0.00479    7
   21      0.787D-11      0.607D-12      -337.94343053    701.232314    0.00000    0.00000    0.00479    8
   22      0.531D-11      0.268D-12      -337.94343053    701.232314    0.00000    0.00000    0.00479    0

 Final occupancy:  12  12

 !RHF STATE 1.1 Energy               -337.943430526512
 Nuclear energy                       230.27785429
 One-electron energy                 -918.83744190
 Two-electron energy                  350.61615708
 Virial quotient                       -1.00181776
 !RHF STATE 1.1 Dipole moment           0.00000000     0.00000000     0.00478564
 Dipole moment /Debye                   0.00000000     0.00000000     0.01216308

 Orbital energies:

         1.1          2.1          3.1          4.1          5.1          6.1          7.1          8.1          9.1         10.1
    -20.541635   -15.589308   -11.368370    -1.388736    -1.211670    -0.860695    -0.749268    -0.644903    -0.619203    -0.573205

        11.1         12.1         13.1         14.1
     -0.454633    -0.409797     0.033379     0.059147

         1.2          2.2          3.2          4.2          5.2          6.2          7.2          8.2          9.2         10.2
    -20.541635   -15.589308   -11.368370    -1.384054    -1.217817    -0.835600    -0.740194    -0.705660    -0.593828    -0.565159

        11.2         12.2         13.2         14.2
     -0.429165    -0.420350     0.036349     0.052532


 **********************************************************************************************************************************
 DATASETS  * FILE   NREC   LENGTH (MB)   RECORD NAMES
              1      19      684.50       500      610      700      900      950      970     1000      129      960     1100   
                                          VAR    BASINP    GEOM    SYMINP    ZMAT    AOBASIS   BASIS     P2S    ABASIS      S 
                                         1400     1410     1200     1210     1080     1600     1650     1300     1700   
                                           T        V       H0       H01     AOSYM     SMH    MOLCAS    ERIS     OPER   

              2       3        0.85       700     1000     2100   
                                         GEOM     BASIS     RHF  

 PROGRAMS   *        TOTAL       RHF       INT
 CPU TIMES  *        16.72      9.52      7.02
 REAL TIME  *        20.68 SEC
 DISK USED  *         2.56 GB      
 GA USED    *         0.00 MB       (max)       0.00 MB       (current)
 **********************************************************************************************************************************


1PROGRAM * CCSD (Closed-shell coupled cluster)     Authors: C. Hampel, H.-J. Werner, 1991, M. Deegan, P.J. Knowles, 1992


 Convergence thresholds:  THRVAR = 1.00D-08  THRDEN = 1.00D-12

 CCSD(T)     terms to be evaluated (factor= 1.000)


 Number of core orbitals:           6 (   3   3 )
 Number of closed-shell orbitals:  18 (   9   9 )
 Number of external orbitals:     168 (  84  84 )

 Molecular orbitals read from record     2100.2  Type=RHF/CANONICAL (state 1.1)

 Number of N-1 electron functions:              18
 Number of N-2 electron functions:             171
 Number of singly external CSFs:              1512
 Number of doubly external CSFs:           2287656
 Total number of CSFs:                     2289169

 Length of J-op  integral file:               0.00 MB
 Length of K-op  integral file:               1.31 MB
 Length of 3-ext integral record:             0.00 MB

 Memory could be reduced to 54.59 Mwords without degradation in triples

 Integral transformation finished. Total CPU:   3.84 sec, npass=  1  Memory used:  28.81 MW

 Reference energy:                   -337.94343053

 MP2 singlet pair energy:              -0.62310605
 MP2 triplet pair energy:              -0.40634508
 MP2 correlation energy:               -1.02945113
 MP2 total energy:                   -338.97288166

 SCS-MP2 correlation energy:           -1.00056420   (PS=  1.200000  PT=  0.333333)
 SCS-MP2 total energy:               -338.94399473

 ITER.      SQ.NORM     CORR.ENERGY   TOTAL ENERGY   ENERGY CHANGE        DEN1      VAR(S)    VAR(P)  DIIS     TIME
   1      1.31980153    -1.05792421  -339.00135474    -0.02847308     0.00293515  0.10D-01  0.60D-02  1  1     9.65
   2      1.34539178    -1.05980170  -339.00323222    -0.00187748    -0.02601410  0.22D-03  0.11D-02  2  2    15.86
   3      1.35810924    -1.06070125  -339.00413178    -0.00089955    -0.00559165  0.22D-03  0.52D-04  3  3    21.77
   4      1.36335990    -1.06043587  -339.00386640     0.00026538    -0.00170406  0.22D-04  0.96D-05  4  4    27.65
   5      1.36552880    -1.06037813  -339.00380866     0.00005774    -0.00045291  0.27D-05  0.12D-05  5  5    33.53
   6      1.36605501    -1.06034923  -339.00377976     0.00002890    -0.00005007  0.28D-06  0.19D-06  6  6    39.42
   7      1.36618345    -1.06033685  -339.00376738     0.00001238    -0.00000199  0.35D-07  0.23D-07  6  1    45.30
   8      1.36622095    -1.06033565  -339.00376618     0.00000120    -0.00000704  0.74D-08  0.33D-08  6  2    51.19
   9      1.36622242    -1.06033583  -339.00376635    -0.00000018     0.00000268  0.13D-08  0.49D-09  6  3    57.08
  10      1.36622720    -1.06033528  -339.00376581     0.00000054    -0.00000110  0.32D-09  0.68D-10  6  4    62.98
  11      1.36622695    -1.06033554  -339.00376607    -0.00000025     0.00000046  0.58D-10  0.13D-10  6  5    68.87
  12      1.36622695    -1.06033551  -339.00376604     0.00000002     0.00000002  0.46D-11  0.35D-11  6  6    74.75
  13      1.36622667    -1.06033556  -339.00376608    -0.00000004     0.00000012  0.11D-11  0.39D-12  6  1    80.62
  14      1.36622657    -1.06033557  -339.00376609    -0.00000001     0.00000004  0.89D-13  0.75D-13  6  2    86.53
  15      1.36622655    -1.06033557  -339.00376609     0.00000000     0.00000001  0.23D-13  0.12D-13  6  3    92.42
  16      1.36622655    -1.06033557  -339.00376609    -0.00000000     0.00000000  0.49D-14  0.22D-14  6  4    98.31
  17      1.36622655    -1.06033557  -339.00376609     0.00000000    -0.00000000  0.92D-15  0.45D-15  6  5   104.18
  18      1.36622656    -1.06033557  -339.00376609     0.00000000    -0.00000000  0.26D-15  0.95D-16  6  2   110.08
  19      1.36622656    -1.06033557  -339.00376609     0.00000000    -0.00000000  0.46D-16  0.14D-16  6  6   115.98
  20      1.36622656    -1.06033557  -339.00376609    -0.00000000     0.00000000  0.13D-16  0.29D-17  6  1   121.86
  21      1.36622656    -1.06033557  -339.00376609     0.00000000    -0.00000000  0.35D-17  0.11D-17  6  4   127.77
  22      1.36622656    -1.06033557  -339.00376609    -0.00000000     0.00000000  0.11D-17  0.25D-18  6  3   133.64
  23      1.36622656    -1.06033557  -339.00376609     0.00000000    -0.00000000  0.66D-19  0.35D-19  6  5   139.50
  24      1.36622656    -1.06033557  -339.00376609     0.00000000    -0.00000000  0.19D-19  0.68D-20  6  2   145.38
  25      1.36622656    -1.06033557  -339.00376609    -0.00000000     0.00000000  0.42D-20  0.16D-20  6  4   151.25
  26      1.36622656    -1.06033557  -339.00376609     0.00000000    -0.00000000  0.11D-20  0.27D-21  6  6   157.13

 Norm of t1 vector:      0.14873758      S-energy:     0.00000000      T1 diagnostic:  0.01752889
                                                                       D1 diagnostic:  0.05931108


 Total CPU time for triples:    180.90 sec


 RESULTS
 =======

  Reference energy                   -337.943430526512
  CCSD singlet pair energy             -0.700103335129
  CCSD triplet pair energy             -0.360232230965
  CCSD correlation energy              -1.060335566093

  Triples (T) contribution             -0.040037200590
  Total correlation energy             -1.100372766684

  CCSD total energy                  -339.003766092605
  CCSD[T] energy                     -339.047043044133
  CCSD-T energy                      -339.042675007046
 !CCSD(T) total energy               -339.043803293195

 Timing summary (sec):

 STEP                 CPU(USER)    SYS     CPU(TOT)    WALL
 Transformation          3.90      0.39      4.29      4.29
 CCSD iterations       153.23      5.89    159.12    159.19
 Triples               180.90      4.82    185.72    185.72

 Program statistics:

 Available memory in ccsd:               999998604
 Min. memory needed in ccsd:               5718748
 Max. memory used in ccsd:                 7826908
 Max. memory used in cckext:               7427053 (26 integral passes)



 **********************************************************************************************************************************
 DATASETS  * FILE   NREC   LENGTH (MB)   RECORD NAMES
              1      20      895.75       500      610      700      900      950      970     1000      129      960     1100   
                                          VAR    BASINP    GEOM    SYMINP    ZMAT    AOBASIS   BASIS     P2S    ABASIS      S 
                                         1400     1410     1200     1210     1080     1600     1650     1300     1700     1380   
                                           T        V       H0       H01     AOSYM     SMH    MOLCAS    ERIS     OPER     JKOP   

              2       3        0.85       700     1000     2100   
                                         GEOM     BASIS     RHF  

 PROGRAMS   *        TOTAL   CCSD(T)       RHF       INT
 CPU TIMES  *       354.77    338.06      9.52      7.02
 REAL TIME  *       369.96 SEC
 DISK USED  *         2.56 GB      
 GA USED    *         0.00 MB       (max)       0.00 MB       (current)
 **********************************************************************************************************************************

        CCSD(T)         RHF-SCF 
   -339.04380329   -337.94343053
 **********************************************************************************************************************************
 Variable memory released
