
 Primary working directories    : /tmp/943186.358.gen4.q
 Secondary working directories  : /tmp/943186.358.gen4.q
 Wavefunction directory         : /home/vulcan/mel64643/wfu/
 Main file repository           : /tmp/943186.358.gen4.q/

 ARCHNAME  : Linux/x86_64
 FC        : /opt/intel/compilers_and_libraries_2016.1.150/linux/bin/intel64/ifort
 FCVERSION : 16.0.1
 BLASLIB   : -mkl
 id        : ccgc

 Nodes     nprocs
 n026         1
 ga_uses_ma=false, calling ma_init with nominal heap.
 GA-space will be limited to   8.0 MW (determined by -G option)

 Using customized tuning parameters: mindgm=10; mindgv=16; mindgc=4; mindgr=1; noblas=0; mincuda=1000; minvec=7
 default implementation of scratch files=df  

 ***,Optimization of h2o_2
 memory,1000,m
 gthresh,energy=1.0d-12,orbital=1.0d-10,oneint=1.0d-16,twoint=1.0d-16,optgrad=1.0d-6,compress=1.0d-13
 geomtyp=xyz
 
 bohr
 geometry = {
  C   -0.0014999748   -3.4267484955   -0.0011234203
  H   -0.9718840808   -2.7500975352   -1.6874074535
  H   -0.9816225309   -2.7375415841    1.6744091182
  H    1.9346115494   -2.7235303857    0.0018586405
  H    0.0128300891   -5.4864959812    0.0066109842
  C    0.0015131752    3.4267485539    0.0011310418
  H    0.0017564045    5.4865602854    0.0018105284
  H    0.9670624380    2.7374773968   -1.6828153879
  H    0.9767580899    2.7363672546    1.6790245733
  H   -1.9395251596    2.7372604910    0.0065013754
 }
 
 basis=VDZ
 {rhf;maxit,200}
 {ccsd(t);maxit,200}

 Variables initialized (661), CPU time= 0.00 sec
 Commands  initialized (458), CPU time= 0.00 sec, 486 directives.
 Default parameters read. Elapsed time= 0.05 sec

 Checking input...
 Passed
1


                                         ***  PROGRAM SYSTEM MOLPRO  ***
                         Copyright, University College Cardiff Consultants Limited, 2008

                                    Version 2010.1 linked May 16 2016 07:17:05


 **********************************************************************************************************************************
 LABEL *   Optimization of h2o_2                                                         
 Linux-4.4.3/n026(x86_64) 64 bit mpp version                                             DATE: 23-Oct-23          TIME: 12:39:19  
 **********************************************************************************************************************************

 SHA1:             9e8077add272b0f3cad6f7df79ec5211205f459d
 **********************************************************************************************************************************

 THRESHOLDS:

 ZERO    =  1.00D-12  ONEINT  =  1.00D-16  TWOINT  =  1.00D-16  PREFAC  =  1.00D-14  LOCALI  =  1.00D-09  EORDER  =  1.00D-04
 ENERGY  =  1.00D-12  ETEST   =  0.00D+00  EDENS   =  0.00D+00  THRDEDEF=  1.00D-06  GRADIENT=  1.00D-02  STEP    =  1.00D-03
 ORBITAL =  1.00D-10  CIVEC   =  1.00D-05  COEFF   =  1.00D-04  PRINTCI =  5.00D-02  PUNCHCI =  9.90D+01  OPTGRAD =  1.00D-06
 OPTENERG=  1.00D-06  OPTSTEP =  3.00D-04  THRGRAD =  1.00D-10  COMPRESS=  1.00D-13  VARMIN  =  1.00D-07  VARMAX  =  1.00D-03
 THRDOUB =  0.00D+00  THRDIV  =  1.00D-05  THRRED  =  1.00D-07  THRPSP  =  1.00D+00  THRDC   =  1.00D-10  THRCS   =  1.00D-10
 THRNRM  =  1.00D-08  THREQ   =  0.00D+00  THRDE   =  1.00D+00  THRREF  =  1.00D-05  SPARFAC =  1.00D+00  THRDLP  =  1.00D-07
 THRDIA  =  1.00D-10  THRDLS  =  1.00D-07  THRGPS  =  0.00D+00  THRKEX  =  0.00D+00  THRDIS  =  2.00D-01  THRVAR  =  1.00D-10
 THRLOC  =  1.00D-06  THRGAP  =  1.00D-06  THRLOCT = -1.00D+00  THRGAPT = -1.00D+00  THRORB  =  1.00D-06  THRMLTP =  0.00D+00
 THRCPQCI=  1.00D-10  KEXTA   =  0.00D+00  THRCOARS=  0.00D+00  SYMTOL  =  1.00D-06  GRADTOL =  1.00D-06  THROVL  =  1.00D-08
 THRORTH =  1.00D-08  GRID    =  1.00D-06  GRIDMAX =  1.00D-03  DTMAX   =  0.00D+00

 SETTING GEOMTYP        =    XYZ
 ZUNIT=BOHR
 

 Variable memory set to 1000000000 words,  buffer space   230000 words

 SETTING BASIS          =    VDZ


 Recomputing integrals since basis changed


 Using spherical harmonics

 Library entry C      S cc-pVDZ              selected for orbital group  1
 Library entry C      P cc-pVDZ              selected for orbital group  1
 Library entry C      D cc-pVDZ              selected for orbital group  1
 Library entry H      S cc-pVDZ              selected for orbital group  2
 Library entry H      P cc-pVDZ              selected for orbital group  2

1PROGRAM * SEWARD (Integral evaluation for generally contracted gaussian basis sets)     Author: Roland Lindh, 1990

 Geometry written to block  1 of record 700


 Point group  C1  



 ATOMIC COORDINATES

 NR  ATOM    CHARGE       X              Y              Z

   1  C       6.00   -0.001499975   -3.426748496   -0.001123420
   2  H       1.00   -0.971884081   -2.750097535   -1.687407454
   3  H       1.00   -0.981622531   -2.737541584    1.674409118
   4  H       1.00    1.934611549   -2.723530386    0.001858640
   5  H       1.00    0.012830089   -5.486495981    0.006610984
   6  C       6.00    0.001513175    3.426748554    0.001131042
   7  H       1.00    0.001756404    5.486560285    0.001810528
   8  H       1.00    0.967062438    2.737477397   -1.682815388
   9  H       1.00    0.976758090    2.736367255    1.679024573
  10  H       1.00   -1.939525160    2.737260491    0.006501375

 Bond lengths in Bohr (Angstrom)

 1-2  2.059867878  1-3  2.059867879  1-4  2.059867092  1-5  2.059811855  6-7  2.059811858
     ( 1.090035135)     ( 1.090035135)     ( 1.090034719)     ( 1.090005488)     ( 1.090005490)

  6- 8  2.059867880   6- 9  2.059867881   6-10  2.059867094
       ( 1.090035136)       ( 1.090035136)       ( 1.090034720)

 Bond angles

  2-1-3  109.37992585   2-1-4  109.37980965   2-1-5  109.56240834   3-1-4  109.37980982

  3-1-5  109.56240822   4-1-5  109.56250043   7-6-8  109.56240831   7-6-9  109.56240831

  7- 6-10  109.56250040   8- 6- 9  109.37992579   8- 6-10  109.37980975   9- 6-10  109.37980975

 NUCLEAR CHARGE:                   20
 NUMBER OF PRIMITIVE AOS:         110
 NUMBER OF SYMMETRY AOS:          108
 NUMBER OF CONTRACTIONS:           68   (  68A   )
 NUMBER OF CORE ORBITALS:           2   (   2A   )
 NUMBER OF VALENCE ORBITALS:       16   (  16A   )


 NUCLEAR REPULSION ENERGY   41.32142330


 Eigenvalues of metric

         1 0.113E-01 0.127E-01 0.348E-01 0.349E-01 0.356E-01 0.375E-01 0.383E-01 0.383E-01


 Contracted 2-electron integrals neglected if value below      1.0D-16
 AO integral compression algorithm  1   Integral accuracy      1.0D-16

     21.758 MB (compressed) written to integral file ( 87.3%)

     Node minimum: 21.758 MB, node maximum: 21.758 MB


 NUMBER OF SORTED TWO-ELECTRON INTEGRALS:    2753031.     BUFFER LENGTH:  32768
 NUMBER OF SEGMENTS:   1  SEGMENT LENGTH:    2753031      RECORD LENGTH: 524288

 Memory used in sort:       3.31 MW

 SORT1 READ     3104305. AND WROTE     2687126. INTEGRALS IN      8 RECORDS. CPU TIME:     0.02 SEC, REAL TIME:     0.05 SEC
 SORT2 READ     2687126. AND WROTE     2753031. INTEGRALS IN     83 RECORDS. CPU TIME:     0.05 SEC, REAL TIME:     0.06 SEC

 FILE SIZES:   FILE 1:    21.6 MBYTE,  FILE 4:    33.6 MBYTE,   TOTAL:     55.2 MBYTE

 OPERATOR DM      FOR CENTER  0  COORDINATES:    0.000000    0.000000    0.000000


 **********************************************************************************************************************************
 DATASETS  * FILE   NREC   LENGTH (MB)   RECORD NAMES
              1      19       21.63       500      610      700      900      950      970     1000      129      960     1100   
                                          VAR    BASINP    GEOM    SYMINP    ZMAT    AOBASIS   BASIS     P2S    ABASIS      S 
                                         1400     1410     1200     1210     1080     1600     1650     1300     1700   
                                           T        V       H0       H01     AOSYM     SMH    MOLCAS    ERIS     OPER   

 PROGRAMS   *        TOTAL       INT
 CPU TIMES  *         0.62      0.57
 REAL TIME  *         0.83 SEC
 DISK USED  *        77.69 MB      
 GA USED    *         0.00 MB       (max)       0.00 MB       (current)
 **********************************************************************************************************************************

1PROGRAM * RHF-SCF (CLOSED SHELL)       Authors: W. Meyer, H.-J. Werner


 NUMBER OF ELECTRONS:      10+   10-    SPACE SYMMETRY=1    SPIN SYMMETRY: Singlet 
 CONVERGENCE THRESHOLDS:    1.00E-10 (Density)    1.00E-13 (Energy)
 MAX. NUMBER OF ITERATIONS:      200
 INTERPOLATION TYPE:            DIIS
 INTERPOLATION STEPS:              2 (START)      1 (STEP)
 LEVEL SHIFTS:                  0.00 (CLOSED)  0.00 (OPEN) 



 Orbital guess generated from atomic densities. Full valence occupancy:   18

 Molecular orbital dump at record        2100.2

 ITERATION    DDIFF          GRAD             ENERGY        2-EL.EN.            DIPOLE MOMENTS         DIIS
    1      0.000D+00      0.000D+00       -80.35965181    134.787849   -0.00003    0.00000   -0.00002    0
    2      0.000D+00      0.637D-02       -80.39231495    132.508557   -0.00006    0.00000   -0.00004    1
    3      0.132D-01      0.234D-02       -80.39617621    133.309884   -0.00002    0.00000   -0.00001    2
    4      0.460D-02      0.630D-03       -80.39670480    133.173105   -0.00001    0.00000   -0.00000    3
    5      0.165D-02      0.664D-04       -80.39670932    133.179128   -0.00000    0.00000   -0.00000    4
    6      0.233D-03      0.392D-05       -80.39670934    133.178990   -0.00000    0.00000   -0.00000    5
    7      0.205D-04      0.231D-06       -80.39670934    133.178988   -0.00000    0.00000   -0.00000    5
    8      0.742D-06      0.400D-07       -80.39670934    133.178990   -0.00000    0.00000   -0.00000    4
    9      0.108D-06      0.109D-07       -80.39670934    133.178990   -0.00000    0.00000   -0.00000    4
   10      0.370D-07      0.223D-08       -80.39670934    133.178990   -0.00000    0.00000   -0.00000    5
   11      0.762D-08      0.270D-09       -80.39670934    133.178990   -0.00000    0.00000   -0.00000    5
   12      0.707D-09      0.740D-10       -80.39670934    133.178990   -0.00000    0.00000   -0.00000    6
   13      0.194D-09      0.261D-10       -80.39670934    133.178990   -0.00000    0.00000   -0.00000    6
   14      0.669D-10      0.424D-11       -80.39670934    133.178990   -0.00000    0.00000   -0.00000    0

 Final occupancy:  10

 !RHF STATE 1.1 Energy                -80.396709337621
 Nuclear energy                        41.32142330
 One-electron energy                 -188.30762771
 Two-electron energy                   66.58949507
 Virial quotient                       -1.00230063
 !RHF STATE 1.1 Dipole moment          -0.00000132     0.00000159    -0.00000088
 Dipole moment /Debye                  -0.00000337     0.00000403    -0.00000225

 Orbital energies:

         1.1          2.1          3.1          4.1          5.1          6.1          7.1          8.1          9.1         10.1
    -11.215313   -11.215310    -0.944232    -0.938430    -0.549636    -0.545346    -0.545303    -0.538100    -0.538056    -0.534593

        11.1         12.1
      0.172383     0.229210


 **********************************************************************************************************************************
 DATASETS  * FILE   NREC   LENGTH (MB)   RECORD NAMES
              1      19       21.63       500      610      700      900      950      970     1000      129      960     1100   
                                          VAR    BASINP    GEOM    SYMINP    ZMAT    AOBASIS   BASIS     P2S    ABASIS      S 
                                         1400     1410     1200     1210     1080     1600     1650     1300     1700   
                                           T        V       H0       H01     AOSYM     SMH    MOLCAS    ERIS     OPER   

              2       3        0.51       700     1000     2100   
                                         GEOM     BASIS     RHF  

 PROGRAMS   *        TOTAL       RHF       INT
 CPU TIMES  *         0.95      0.33      0.57
 REAL TIME  *         1.21 SEC
 DISK USED  *        77.69 MB      
 GA USED    *         0.00 MB       (max)       0.00 MB       (current)
 **********************************************************************************************************************************


1PROGRAM * CCSD (Closed-shell coupled cluster)     Authors: C. Hampel, H.-J. Werner, 1991, M. Deegan, P.J. Knowles, 1992


 Convergence thresholds:  THRVAR = 1.00D-08  THRDEN = 1.00D-12

 CCSD(T)     terms to be evaluated (factor= 1.000)


 Number of core orbitals:           2 (   2 )
 Number of closed-shell orbitals:   8 (   8 )
 Number of external orbitals:      58 (  58 )

 Molecular orbitals read from record     2100.2  Type=RHF/CANONICAL (state 1.1)

 Number of N-1 electron functions:               8
 Number of N-2 electron functions:              36
 Number of singly external CSFs:               464
 Number of doubly external CSFs:            107880
 Total number of CSFs:                      108345

 Length of J-op  integral file:               0.00 MB
 Length of K-op  integral file:               0.35 MB
 Length of 3-ext integral record:             0.00 MB

 Memory could be reduced to 2.66 Mwords without degradation in triples

 Integral transformation finished. Total CPU:   0.09 sec, npass=  1  Memory used:   1.86 MW

 Reference energy:                    -80.39670934

 MP2 singlet pair energy:              -0.23207346
 MP2 triplet pair energy:              -0.09154257
 MP2 correlation energy:               -0.32361604
 MP2 total energy:                    -80.72032537

 SCS-MP2 correlation energy:           -0.33544798   (PS=  1.200000  PT=  0.333333)
 SCS-MP2 total energy:                -80.73215732

 ITER.      SQ.NORM     CORR.ENERGY   TOTAL ENERGY   ENERGY CHANGE        DEN1      VAR(S)    VAR(P)  DIIS     TIME
   1      1.13420748    -0.36751829   -80.76422763    -0.04390225    -0.03297838  0.50D-03  0.24D-02  1  1     0.28
   2      1.14681586    -0.37031577   -80.76702510    -0.00279748    -0.01276515  0.15D-04  0.96D-04  2  2     0.47
   3      1.14860800    -0.37048679   -80.76719613    -0.00017103    -0.00095545  0.17D-05  0.56D-05  3  3     0.66
   4      1.14897565    -0.37050710   -80.76721644    -0.00002031    -0.00016574  0.25D-07  0.35D-06  4  4     0.86
   5      1.14902156    -0.37050462   -80.76721396     0.00000248    -0.00002391  0.18D-08  0.18D-07  5  5     1.05
   6      1.14902287    -0.37050456   -80.76721390     0.00000006    -0.00000011  0.19D-09  0.12D-08  6  6     1.24
   7      1.14902296    -0.37050482   -80.76721416    -0.00000026     0.00000013  0.13D-10  0.71D-10  6  1     1.43
   8      1.14902314    -0.37050482   -80.76721415     0.00000001    -0.00000013  0.15D-11  0.41D-11  6  2     1.62
   9      1.14902317    -0.37050480   -80.76721414     0.00000001    -0.00000003  0.15D-12  0.26D-12  6  3     1.81
  10      1.14902316    -0.37050480   -80.76721414     0.00000000     0.00000001  0.11D-13  0.23D-13  6  4     2.01
  11      1.14902315    -0.37050480   -80.76721414    -0.00000000     0.00000001  0.80D-15  0.19D-14  6  5     2.20
  12      1.14902315    -0.37050480   -80.76721414    -0.00000000     0.00000000  0.43D-16  0.23D-15  6  6     2.39
  13      1.14902314    -0.37050480   -80.76721414    -0.00000000     0.00000000  0.33D-17  0.28D-16  6  1     2.59
  14      1.14902314    -0.37050480   -80.76721414     0.00000000     0.00000000  0.59D-18  0.37D-17  6  2     2.78
  15      1.14902314    -0.37050480   -80.76721414     0.00000000     0.00000000  0.71D-19  0.36D-18  6  3     2.97
  16      1.14902314    -0.37050480   -80.76721414    -0.00000000     0.00000000  0.15D-20  0.20D-19  6  5     3.16
  17      1.14902314    -0.37050480   -80.76721414    -0.00000000     0.00000000  0.18D-21  0.56D-21  6  4     3.35
  18      1.14902314    -0.37050480   -80.76721414     0.00000000    -0.00000000  0.45D-22  0.51D-22  6  6     3.55

 Norm of t1 vector:      0.03062239      S-energy:    -0.00000000      T1 diagnostic:  0.00541332
                                                                       D1 diagnostic:  0.00878209


 Total CPU time for triples:      1.32 sec


 RESULTS
 =======

  Reference energy                    -80.396709337621
  CCSD singlet pair energy             -0.281837675593
  CCSD triplet pair energy             -0.088667125535
  CCSD correlation energy              -0.370504801128

  Triples (T) contribution             -0.007534567165
  Total correlation energy             -0.378039368293

  CCSD total energy                   -80.767214138750
  CCSD[T] energy                      -80.774924878188
  CCSD-T energy                       -80.774654281524
 !CCSD(T) total energy                -80.774748705915

 Timing summary (sec):

 STEP                 CPU(USER)    SYS     CPU(TOT)    WALL
 Transformation          0.10      0.02      0.12      0.12
 CCSD iterations         3.45      0.12      3.57      3.60
 Triples                 1.32      0.03      1.35      1.36

 Program statistics:

 Available memory in ccsd:               999999644
 Min. memory needed in ccsd:                356281
 Max. memory used in ccsd:                  442401
 Max. memory used in cckext:                403930 (18 integral passes)



 **********************************************************************************************************************************
 DATASETS  * FILE   NREC   LENGTH (MB)   RECORD NAMES
              1      20       30.09       500      610      700      900      950      970     1000      129      960     1100   
                                          VAR    BASINP    GEOM    SYMINP    ZMAT    AOBASIS   BASIS     P2S    ABASIS      S 
                                         1400     1410     1200     1210     1080     1600     1650     1300     1700     1380   
                                           T        V       H0       H01     AOSYM     SMH    MOLCAS    ERIS     OPER     JKOP   

              2       3        0.51       700     1000     2100   
                                         GEOM     BASIS     RHF  

 PROGRAMS   *        TOTAL   CCSD(T)       RHF       INT
 CPU TIMES  *         5.84      4.89      0.33      0.57
 REAL TIME  *         6.31 SEC
 DISK USED  *        77.69 MB      
 GA USED    *         0.00 MB       (max)       0.00 MB       (current)
 **********************************************************************************************************************************

        CCSD(T)         RHF-SCF 
    -80.77474871    -80.39670934
 **********************************************************************************************************************************
 Variable memory released
