
    -----------------------------------------------------------------------
          Psi4: An Open-Source Ab Initio Electronic Structure Package
                               Psi4 1.4a2.dev629 

                         Git: Rev {master} 2938fc2 dirty


    D. G. A. Smith, L. A. Burns, A. C. Simmonett, R. M. Parrish,
    M. C. Schieber, R. Galvelis, P. Kraus, H. Kruse, R. Di Remigio,
    A. Alenaizan, A. M. James, S. Lehtola, J. P. Misiewicz, M. Scheurer,
    R. A. Shaw, J. B. Schriber, Y. Xie, Z. L. Glick, D. A. Sirianni,
    J. S. O'Brien, J. M. Waldrop, A. Kumar, E. G. Hohenstein,
    B. P. Pritchard, B. R. Brooks, H. F. Schaefer III, A. Yu. Sokolov,
    K. Patkowski, A. E. DePrince III, U. Bozkaya, R. A. King,
    F. A. Evangelista, J. M. Turney, T. D. Crawford, C. D. Sherrill,
    J. Chem. Phys. 152(18) 184108 (2020). https://doi.org/10.1063/5.0006002

                            Additional Code Authors
    E. T. Seidl, C. L. Janssen, E. F. Valeev, M. L. Leininger,
    J. F. Gonthier, R. M. Richard, H. R. McAlexander, M. Saitow, X. Wang,
    P. Verma, and M. H. Lechner

             Previous Authors, Complete List of Code Contributors,
                       and Citations for Specific Modules
    https://github.com/psi4/psi4/blob/master/codemeta.json
    https://github.com/psi4/psi4/graphs/contributors
    http://psicode.org/psi4manual/master/introduction.html#citing-psifour

    -----------------------------------------------------------------------


    Psi4 started on: Monday, 25 October 2021 02:12PM

    Process ID: 13169
    Host:       n085
    PSIDATADIR: /opt/psi/4/master/share/psi4
    Memory:     500.0 MiB
    Threads:    1
    
  ==> Input File <==

--------------------------------------------------------------------------
import os
memory 14 GB 
 
molecule {
 C   -2.6466683651    0.0009475933   -0.0029199666
 N    0.1744987340   -0.0009490775   -0.0150693829
 O    1.2225840342    2.0577407305    0.0045237932
 O    1.2272331533   -2.0641263227    0.0044524636
 H   -3.2868159492    1.7107318976   -0.9394794568
 H   -3.2740839844   -1.7066003800   -0.9397082852
 H   -3.2295991228    0.0022549788    1.9704223347
units bohr
}

basis {

assign 6-31g_2dfp_

[ 6-31g_2dfp_ ]

spherical

!----------------------------------------------------------------------
! Basis Set Exchange
! Version v0.8.13
! https://www.basissetexchange.org
!----------------------------------------------------------------------
!   Basis set: 6-31G(2df,p)
! Description: 6-31G(2df,p)
!        Role: orbital
!     Version: 0  (Data from the original Basis Set Exchange)
!----------------------------------------------------------------------


****
H     0
S    3   1.00
     18.7311370              0.03349460
      2.8253937              0.23472695
      0.6401217              0.81375733
S    1   1.00
      0.1612778              1.00000000
P    1   1.00
      1.5000000              1.0000000
P    1   1.00
      0.3750000              1.0000000
****
B     0
S    6   1.00
   2068.8823000              0.0018663
    310.6495700              0.0142515
     70.6830330              0.0695516
     19.8610800              0.2325729
      6.2993048              0.4670787
      2.1270270              0.3634314
SP   3   1.00
      4.7279710             -0.1303938              0.0745976
      1.1903377             -0.1307889              0.3078467
      0.3594117              1.1309444              0.7434568
SP   1   1.00
      0.1267512              1.0000000              1.0000000
D    1   1.00
      0.8020000              1.0000000
D    1   1.00
      0.2005000              1.0000000
F    1   1.00
      0.5000000              1.0000000
****
C     0
S    6   1.00
   3047.5249000              0.0018347
    457.3695100              0.0140373
    103.9486900              0.0688426
     29.2101550              0.2321844
      9.2866630              0.4679413
      3.1639270              0.3623120
SP   3   1.00
      7.8682724             -0.1193324              0.0689991
      1.8812885             -0.1608542              0.3164240
      0.5442493              1.1434564              0.7443083
SP   1   1.00
      0.1687144              1.0000000              1.0000000
D    1   1.00
      1.2520000              1.0000000
D    1   1.00
      0.3130000              1.0000000
F    1   1.00
      0.8000000              1.0000000
****
N     0
S    6   1.00
   4173.5110000              0.0018348
    627.4579000              0.0139950
    142.9021000              0.0685870
     40.2343300              0.2322410
     12.8202100              0.4690700
      4.3904370              0.3604550
SP   3   1.00
     11.6263580             -0.1149610              0.0675800
      2.7162800             -0.1691180              0.3239070
      0.7722180              1.1458520              0.7408950
SP   1   1.00
      0.2120313              1.0000000              1.0000000
D    1   1.00
      1.8260000              1.0000000
D    1   1.00
      0.4565000              1.0000000
F    1   1.00
      1.0000000              1.0000000
****
O     0
S    6   1.00
   5484.6717000              0.0018311
    825.2349500              0.0139501
    188.0469600              0.0684451
     52.9645000              0.2327143
     16.8975700              0.4701930
      5.7996353              0.3585209
SP   3   1.00
     15.5396160             -0.1107775              0.0708743
      3.5999336             -0.1480263              0.3397528
      1.0137618              1.1307670              0.7271586
SP   1   1.00
      0.2700058              1.0000000              1.0000000
D    1   1.00
      2.5840000              1.0000000
D    1   1.00
      0.6460000              1.0000000
F    1   1.00
      1.4000000              1.0000000
****
F     0
S    6   1.00
   7001.7130900              0.0018196169
   1051.3660900              0.0139160796
    239.2856900              0.0684053245
     67.3974453              0.233185760
     21.5199573              0.471267439
      7.40310130             0.356618546
SP   3   1.00
     20.8479528             -0.108506975            0.0716287243
      4.80830834            -0.146451658            0.3459121030
      1.34406986             1.128688580            0.7224699570
SP   1   1.00
      0.358151393            1.0000000              1.0000000
D    1   1.00
      3.5000000              1.0000000
D    1   1.00
      0.8750000              1.0000000
F    1   1.00
      1.8500000              1.0000000
****
Al     0
S    6   1.00
  13983.1000000              0.00194267
   2098.7500000              0.0148599
    477.7050000              0.0728494
    134.3600000              0.2468300
     42.8709000              0.4872580
     14.5189000              0.3234960
SP   6   1.00
    239.6680000             -0.00292619             0.00460285
     57.4419000             -0.0374080              0.0331990
     18.2859000             -0.1144870              0.1362820
      6.5991400              0.1156350              0.3304760
      2.4904900              0.6125950              0.4491460
      0.9445400              0.3937990              0.2657040
SP   3   1.00
      1.2779000             -0.2276060             -0.0175130
      0.3975900              0.00144583             0.2445330
      0.1600950              1.0927900              0.8049340
SP   1   1.00
      0.0556577              1.0000000              1.0000000
D    1   1.00
      0.6500000              1.0000000
D    1   1.00
      0.1625000              1.0000000
F    1   1.00
      0.2500000              1.0000000
****
Si     0
S    6   1.00
  16115.9000000              0.00195948
   2425.5800000              0.01492880
    553.8670000              0.07284780
    156.3400000              0.24613000
     50.0683000              0.48591400
     17.0178000              0.32500200
SP   6   1.00
    292.7180000             -0.00278094             0.00443826
     69.8731000             -0.03571460             0.03266790
     22.3363000             -0.11498500             0.13472100
      8.1503900              0.09356340             0.32867800
      3.1345800              0.60301700             0.44964000
      1.2254300              0.41895900             0.26137200
SP   3   1.00
      1.7273800             -0.24463000            -0.01779510
      0.5729220              0.00431572             0.25353900
      0.2221920              1.09818000             0.80066900
SP   1   1.00
      0.0778369              1.00000000             1.00000000
D    1   1.00
      0.9000000              1.0000000
D    1   1.00
      0.2250000              1.0000000
F    1   1.00
      0.3200000              1.0000000
****
P     0
S    6   1.00
  19413.3000000              0.0018516
   2909.4200000              0.0142062
    661.3640000              0.0699995
    185.7590000              0.2400790
     59.1943000              0.4847620
     20.0310000              0.3352000
SP   6   1.00
    339.4780000             -0.00278217             0.00456462
     81.0101000             -0.0360499              0.03369360
     25.8780000             -0.1166310              0.13975500
      9.4522100              0.0968328              0.33936200
      3.6656600              0.6144180              0.45092100
      1.4674600              0.4037980              0.23858600
SP   3   1.00
      2.1562300             -0.2529230             -0.01776530
      0.7489970              0.0328517              0.27405800
      0.2831450              1.0812500              0.78542100
SP   1   1.00
      0.0998317              1.0000000              1.00000000
D    1   1.00
      1.1000000              1.0000000
D    1   1.00
      0.2750000              1.0000000
F    1   1.00
      0.4500000              1.0000000
****
S     0
S    6   1.00
  21917.1000000              0.0018690
   3301.4900000              0.0142300
    754.1460000              0.0696960
    212.7110000              0.2384870
     67.9896000              0.4833070
     23.0515000              0.3380740
SP   6   1.00
    423.7350000             -0.0023767              0.0040610
    100.7100000             -0.0316930              0.0306810
     32.1599000             -0.1133170              0.1304520
     11.8079000              0.0560900              0.3272050
      4.6311000              0.5922550              0.4528510
      1.8702500              0.4550060              0.2560420
SP   3   1.00
      2.6158400             -0.2503740             -0.0145110
      0.9221670              0.0669570              0.3102630
      0.3412870              1.0545100              0.7544830
SP   1   1.00
      0.1171670              1.0000000              1.0000000
D    1   1.00
      1.3000000              1.0000000
D    1   1.00
      0.3250000              1.0000000
F    1   1.00
      0.5500000              1.0000000
****
Cl     0
S    6   1.00
  25180.1000000              0.0018330
   3780.3500000              0.0140340
    860.4740000              0.0690970
    242.1450000              0.2374520
     77.3349000              0.4830340
     26.2470000              0.3398560
SP   6   1.00
    491.7650000             -0.0022974              0.0039894
    116.9840000             -0.0307140              0.0303180
     37.4153000             -0.1125280              0.1298800
     13.7834000              0.0450160              0.3279510
      5.4521500              0.5893530              0.4535270
      2.2258800              0.4652060              0.2521540
SP   3   1.00
      3.1864900             -0.2518300             -0.0142990
      1.1442700              0.0615890              0.3235720
      0.4203770              1.0601800              0.7435070
SP   1   1.00
      0.1426570              1.0000000              1.0000000
D    1   1.00
      1.5000000              1.0000000
D    1   1.00
      0.3750000              1.0000000
F    1   1.00
      0.7000000              1.0000000
****
}


set {
reference rhf                          
freeze_core true
e_convergence 10                       
d_convergence 10                      
dft_spherical_points 1202
dft_radial_points 99
}

e = energy('b3lyp')

print_out('Grab this energy {0}'.format(e))
--------------------------------------------------------------------------

  Memory set to  13.039 GiB by Python driver.

Scratch directory: /tmp/

*** tstart() called on n085
*** at Mon Oct 25 14:12:02 2021

   => Loading Basis Set <=

    Name: ANONYMOUS89B29D61
    Role: ORBITAL
    Keyword: BASIS
    atoms 1   entry C          line    48 inputblock 6-31g_2dfp_ 
    atoms 2   entry N          line    69 inputblock 6-31g_2dfp_ 
    atoms 3-4 entry O          line    90 inputblock 6-31g_2dfp_ 
    atoms 5-7 entry H          line    15 inputblock 6-31g_2dfp_ 


         ---------------------------------------------------------
                                   SCF
               by Justin Turney, Rob Parrish, Andy Simmonett
                          and Daniel G. A. Smith
                              RKS Reference
                        1 Threads,  13351 MiB Core
         ---------------------------------------------------------

  ==> Geometry <==

    Molecular point group: c1
    Full point group: C1

    Geometry (in Bohr), charge = 0, multiplicity = 1:

       Center              X                  Y                   Z               Mass       
    ------------   -----------------  -----------------  -----------------  -----------------
         C           -2.646684836501     0.002547481996    -0.002747319255    12.000000000000
         N            0.174482262599     0.000650811196    -0.014896735555    14.003074004430
         O            1.222567562799     2.059340619196     0.004696440545    15.994914619570
         O            1.227216681899    -2.062526434004     0.004625110945    15.994914619570
         H           -3.286832420601     1.712331786296    -0.939306809455     1.007825032230
         H           -3.274100455801    -1.705000491304    -0.939535637855     1.007825032230
         H           -3.229615594201     0.003854867496     1.970594982045     1.007825032230

  Running in c1 symmetry.

  Rotational constants: A =      0.40827  B =      0.35331  C =      0.19644 [cm^-1]
  Rotational constants: A =  12239.60125  B =  10591.99219  C =   5889.27112 [MHz]
  Nuclear repulsion =  124.865776308151752

  Charge       = 0
  Multiplicity = 1
  Electrons    = 32
  Nalpha       = 16
  Nbeta        = 16

  ==> Algorithm <==

  SCF Algorithm Type is DF.
  DIIS enabled.
  MOM disabled.
  Fractional occupation disabled.
  Guess Type is SAD.
  Energy threshold   = 1.00e-10
  Density threshold  = 1.00e-10
  Integral threshold = 0.00e+00

  ==> Primary Basis <==

  Basis Set: ANONYMOUS89B29D61
    Blend: 6-31G_2DFP_
    Number of shells: 44
    Number of basis function: 128
    Number of Cartesian functions: 148
    Spherical Harmonics?: true
    Max angular momentum: 3

  ==> DFT Potential <==

   => Composite Functional: B3LYP <= 

    B3LYP Hyb-GGA Exchange-Correlation Functional

    P. J. Stephens, F. J. Devlin, C. F. Chabalowski, and M. J. Frisch, J. Phys. Chem. 98, 11623 (1994)

    Deriv               =              1
    GGA                 =           TRUE
    Meta                =          FALSE

    Exchange Hybrid     =           TRUE
    MP2 Hybrid          =          FALSE

   => Exchange Functionals <=

    0.0800   Slater exchange
    0.7200         Becke 88

   => Exact (HF) Exchange <=

    0.2000               HF 

   => Correlation Functionals <=

    0.1900   Vosko, Wilk & Nusair (VWN5_RPA)
    0.8100   Lee, Yang & Parr

   => Molecular Quadrature <=

    Radial Scheme          =       TREUTLER
    Pruning Scheme         =           NONE
    Nuclear Scheme         =       TREUTLER

    BS radius alpha        =              1
    Pruning alpha          =              1
    Radial Points          =             99
    Spherical Points       =           1202
    Total Points           =         782587
    Total Blocks           =           5383
    Max Points             =            256
    Max Functions          =            128
    Weights Tolerance      =       1.00E-15

   => Loading Basis Set <=

    Name: (ANONYMOUS89B29D61 AUX)
    Role: JKFIT
    Keyword: DF_BASIS_SCF
    atoms 1   entry C          line   198 file /opt/psi/4/master/share/psi4/basis/def2-universal-jkfit.gbs 
    atoms 2   entry N          line   258 file /opt/psi/4/master/share/psi4/basis/def2-universal-jkfit.gbs 
    atoms 3-4 entry O          line   318 file /opt/psi/4/master/share/psi4/basis/def2-universal-jkfit.gbs 
    atoms 5-7 entry H          line    18 file /opt/psi/4/master/share/psi4/basis/def2-universal-jkfit.gbs 

  ==> Integral Setup <==

  DFHelper Memory: AOs need 0.048 GiB; user supplied 7.440 GiB. Using in-core AOs.

  ==> MemDFJK: Density-Fitted J/K Matrices <==

    J tasked:                   Yes
    K tasked:                   Yes
    wK tasked:                   No
    OpenMP threads:               1
    Memory [MiB]:              7618
    Algorithm:                 Core
    Schwarz Cutoff:           1E-12
    Mask sparsity (%):       0.5981
    Fitting Condition:        1E-10

   => Auxiliary Basis Set <=

  Basis Set: (ANONYMOUS89B29D61 AUX)
    Blend: DEF2-UNIVERSAL-JKFIT
    Number of shells: 118
    Number of basis function: 360
    Number of Cartesian functions: 428
    Spherical Harmonics?: true
    Max angular momentum: 4

  Cached 100.0% of DFT collocation blocks in 2.339 [GiB].

  Minimum eigenvalue in the overlap matrix is 2.2805173583E-03.
  Reciprocal condition number of the overlap matrix is 4.3471345918E-04.
    Using symmetric orthogonalization.

  ==> Pre-Iterations <==

  SCF Guess: Superposition of Atomic Densities via on-the-fly atomic UHF (no occupation information).

   -------------------------
    Irrep   Nso     Nmo    
   -------------------------
     A        128     128 
   -------------------------
    Total     128     128
   -------------------------

  ==> Iterations <==

                           Total Energy        Delta E     RMS |[F,P]|

   @DF-RKS iter SAD:  -244.63878497466411   -2.44639e+02   0.00000e+00 
   @DF-RKS iter   1:  -244.81996092320477   -1.81176e-01   5.64050e-03 DIIS
   @DF-RKS iter   2:  -244.61363427579295    2.06327e-01   8.35537e-03 DIIS
   @DF-RKS iter   3:  -245.00839943216400   -3.94765e-01   1.42270e-03 DIIS
   @DF-RKS iter   4:  -245.02204834553856   -1.36489e-02   2.77676e-04 DIIS
   @DF-RKS iter   5:  -245.02245687545141   -4.08530e-04   1.42068e-04 DIIS
   @DF-RKS iter   6:  -245.02254740898783   -9.05335e-05   8.35965e-05 DIIS
   @DF-RKS iter   7:  -245.02259235848362   -4.49495e-05   1.19800e-05 DIIS
   @DF-RKS iter   8:  -245.02259328849479   -9.30011e-07   1.07976e-06 DIIS
   @DF-RKS iter   9:  -245.02259329618047   -7.68568e-09   1.78804e-07 DIIS
   @DF-RKS iter  10:  -245.02259329637332   -1.92841e-10   4.05342e-08 DIIS
   @DF-RKS iter  11:  -245.02259329638301   -9.69180e-12   3.53761e-09 DIIS
   @DF-RKS iter  12:  -245.02259329638338   -3.69482e-13   1.12255e-09 DIIS
   @DF-RKS iter  13:  -245.02259329638309    2.84217e-13   2.29970e-10 DIIS
   @DF-RKS iter  14:  -245.02259329638323   -1.42109e-13   3.27199e-11 DIIS
  Energy and wave function converged.


  ==> Post-Iterations <==

    Orbital Energies [Eh]
    ---------------------

    Doubly Occupied:                                                      

       1A    -19.182368     2A    -19.181743     3A    -14.570982  
       4A    -10.247879     5A     -1.228353     6A     -1.057041  
       7A     -0.817791     8A     -0.624449     9A     -0.549888  
      10A     -0.539346    11A     -0.519902    12A     -0.453133  
      13A     -0.434907    14A     -0.315413    15A     -0.307051  
      16A     -0.294928  

    Virtual:                                                              

      17A     -0.068152    18A      0.078161    19A      0.109595  
      20A      0.125157    21A      0.135429    22A      0.258571  
      23A      0.342215    24A      0.403271    25A      0.417023  
      26A      0.419772    27A      0.492833    28A      0.527668  
      29A      0.541429    30A      0.573409    31A      0.587831  
      32A      0.634823    33A      0.689531    34A      0.740151  
      35A      0.784948    36A      0.809219    37A      0.835951  
      38A      0.872792    39A      0.875259    40A      0.929705  
      41A      0.953332    42A      0.964024    43A      0.998204  
      44A      1.025048    45A      1.041720    46A      1.132620  
      47A      1.189223    48A      1.220584    49A      1.245009  
      50A      1.291668    51A      1.313181    52A      1.375550  
      53A      1.408934    54A      1.541076    55A      1.573263  
      56A      1.587331    57A      1.625740    58A      1.659993  
      59A      1.669606    60A      1.695620    61A      1.750080  
      62A      1.805455    63A      1.866735    64A      1.942310  
      65A      2.054684    66A      2.079923    67A      2.169091  
      68A      2.283958    69A      2.444214    70A      2.589315  
      71A      2.618143    72A      2.873083    73A      2.921392  
      74A      2.939244    75A      2.942019    76A      3.095963  
      77A      3.156619    78A      3.258547    79A      3.340711  
      80A      3.396923    81A      3.404272    82A      3.521272  
      83A      3.711772    84A      3.801618    85A      3.841892  
      86A      3.927398    87A      3.931261    88A      4.055943  
      89A      4.081096    90A      4.201501    91A      4.272631  
      92A      4.300517    93A      4.350618    94A      4.455569  
      95A      4.503461    96A      4.511457    97A      4.603582  
      98A      4.641012    99A      4.695363   100A      4.861635  
     101A      4.930403   102A      5.030333   103A      5.037561  
     104A      5.041865   105A      5.053058   106A      5.150542  
     107A      5.156453   108A      5.219815   109A      5.262634  
     110A      5.450570   111A      5.486283   112A      5.547909  
     113A      5.782176   114A      6.028625   115A      6.183466  
     116A      6.287589   117A      6.497904   118A      6.720714  
     119A      6.739810   120A      6.770662   121A      6.798964  
     122A      6.800955   123A      7.042745   124A      7.087810  
     125A      7.116126   126A      7.383335   127A      7.523762  
     128A      7.746263  

    Final Occupation by Irrep:
              A 
    DOCC [    16 ]

  @DF-RKS Final Energy:  -245.02259329638323

   => Energetics <=

    Nuclear Repulsion Energy =            124.8657763081517516
    One-Electron Energy =                -581.3653114692606323
    Two-Electron Energy =                 236.2050092172836457
    DFT Exchange-Correlation Energy =     -24.7280673525579857
    Empirical Dispersion Energy =           0.0000000000000000
    VV10 Nonlocal Energy =                  0.0000000000000000
    Total Energy =                       -245.0225932963832349

Computation Completed


Properties will be evaluated at   0.000000,   0.000000,   0.000000 [a0]

Properties computed using the SCF density matrix

  Nuclear Dipole Moment: [e a0]
     X:    -4.8510      Y:     0.0055      Z:     0.0456

  Electronic Dipole Moment: [e a0]
     X:     3.5318      Y:     0.0011      Z:    -0.0291

  Dipole Moment: [e a0]
     X:    -1.3192      Y:     0.0066      Z:     0.0164     Total:     1.3193

  Dipole Moment: [D]
     X:    -3.3531      Y:     0.0168      Z:     0.0418     Total:     3.3534


*** tstop() called on n085 at Mon Oct 25 14:12:42 2021
Module time:
	user time   =      39.20 seconds =       0.65 minutes
	system time =       0.64 seconds =       0.01 minutes
	total time  =         40 seconds =       0.67 minutes
Total time:
	user time   =      39.20 seconds =       0.65 minutes
	system time =       0.64 seconds =       0.01 minutes
	total time  =         40 seconds =       0.67 minutes
Grab this energy -245.02259329638323
    Psi4 stopped on: Monday, 25 October 2021 02:12PM
    Psi4 wall time for execution: 0:00:39.88

*** Psi4 exiting successfully. Buy a developer a beer!
