
    -----------------------------------------------------------------------
          Psi4: An Open-Source Ab Initio Electronic Structure Package
                               Psi4 1.4a2.dev629 

                         Git: Rev {master} 2938fc2 dirty


    D. G. A. Smith, L. A. Burns, A. C. Simmonett, R. M. Parrish,
    M. C. Schieber, R. Galvelis, P. Kraus, H. Kruse, R. Di Remigio,
    A. Alenaizan, A. M. James, S. Lehtola, J. P. Misiewicz, M. Scheurer,
    R. A. Shaw, J. B. Schriber, Y. Xie, Z. L. Glick, D. A. Sirianni,
    J. S. O'Brien, J. M. Waldrop, A. Kumar, E. G. Hohenstein,
    B. P. Pritchard, B. R. Brooks, H. F. Schaefer III, A. Yu. Sokolov,
    K. Patkowski, A. E. DePrince III, U. Bozkaya, R. A. King,
    F. A. Evangelista, J. M. Turney, T. D. Crawford, C. D. Sherrill,
    J. Chem. Phys. 152(18) 184108 (2020). https://doi.org/10.1063/5.0006002

                            Additional Code Authors
    E. T. Seidl, C. L. Janssen, E. F. Valeev, M. L. Leininger,
    J. F. Gonthier, R. M. Richard, H. R. McAlexander, M. Saitow, X. Wang,
    P. Verma, and M. H. Lechner

             Previous Authors, Complete List of Code Contributors,
                       and Citations for Specific Modules
    https://github.com/psi4/psi4/blob/master/codemeta.json
    https://github.com/psi4/psi4/graphs/contributors
    http://psicode.org/psi4manual/master/introduction.html#citing-psifour

    -----------------------------------------------------------------------


    Psi4 started on: Monday, 25 October 2021 02:24PM

    Process ID: 6261
    Host:       n044
    PSIDATADIR: /opt/psi/4/master/share/psi4
    Memory:     500.0 MiB
    Threads:    1
    
  ==> Input File <==

--------------------------------------------------------------------------
import os
memory 14 GB 
 
molecule {
 C   -2.6511833388   -0.0000001803   -0.0029537526
 N    0.1776754012    0.0000000101   -0.0172660799
 O    1.2334559132    2.0591209860    0.0050719035
 O    1.2334562334   -2.0591208150    0.0050719042
 H   -3.2854270490    1.7048928435   -0.9421440120
 H   -3.2854268501   -1.7048939476   -0.9421428079
 H   -3.2354018100    0.0000005233    1.9765843447
units bohr
}

basis {

assign 6-31g_2dfp_

[ 6-31g_2dfp_ ]

spherical

!----------------------------------------------------------------------
! Basis Set Exchange
! Version v0.8.13
! https://www.basissetexchange.org
!----------------------------------------------------------------------
!   Basis set: 6-31G(2df,p)
! Description: 6-31G(2df,p)
!        Role: orbital
!     Version: 0  (Data from the original Basis Set Exchange)
!----------------------------------------------------------------------


****
H     0
S    3   1.00
     18.7311370              0.03349460
      2.8253937              0.23472695
      0.6401217              0.81375733
S    1   1.00
      0.1612778              1.00000000
P    1   1.00
      1.5000000              1.0000000
P    1   1.00
      0.3750000              1.0000000
****
B     0
S    6   1.00
   2068.8823000              0.0018663
    310.6495700              0.0142515
     70.6830330              0.0695516
     19.8610800              0.2325729
      6.2993048              0.4670787
      2.1270270              0.3634314
SP   3   1.00
      4.7279710             -0.1303938              0.0745976
      1.1903377             -0.1307889              0.3078467
      0.3594117              1.1309444              0.7434568
SP   1   1.00
      0.1267512              1.0000000              1.0000000
D    1   1.00
      0.8020000              1.0000000
D    1   1.00
      0.2005000              1.0000000
F    1   1.00
      0.5000000              1.0000000
****
C     0
S    6   1.00
   3047.5249000              0.0018347
    457.3695100              0.0140373
    103.9486900              0.0688426
     29.2101550              0.2321844
      9.2866630              0.4679413
      3.1639270              0.3623120
SP   3   1.00
      7.8682724             -0.1193324              0.0689991
      1.8812885             -0.1608542              0.3164240
      0.5442493              1.1434564              0.7443083
SP   1   1.00
      0.1687144              1.0000000              1.0000000
D    1   1.00
      1.2520000              1.0000000
D    1   1.00
      0.3130000              1.0000000
F    1   1.00
      0.8000000              1.0000000
****
N     0
S    6   1.00
   4173.5110000              0.0018348
    627.4579000              0.0139950
    142.9021000              0.0685870
     40.2343300              0.2322410
     12.8202100              0.4690700
      4.3904370              0.3604550
SP   3   1.00
     11.6263580             -0.1149610              0.0675800
      2.7162800             -0.1691180              0.3239070
      0.7722180              1.1458520              0.7408950
SP   1   1.00
      0.2120313              1.0000000              1.0000000
D    1   1.00
      1.8260000              1.0000000
D    1   1.00
      0.4565000              1.0000000
F    1   1.00
      1.0000000              1.0000000
****
O     0
S    6   1.00
   5484.6717000              0.0018311
    825.2349500              0.0139501
    188.0469600              0.0684451
     52.9645000              0.2327143
     16.8975700              0.4701930
      5.7996353              0.3585209
SP   3   1.00
     15.5396160             -0.1107775              0.0708743
      3.5999336             -0.1480263              0.3397528
      1.0137618              1.1307670              0.7271586
SP   1   1.00
      0.2700058              1.0000000              1.0000000
D    1   1.00
      2.5840000              1.0000000
D    1   1.00
      0.6460000              1.0000000
F    1   1.00
      1.4000000              1.0000000
****
F     0
S    6   1.00
   7001.7130900              0.0018196169
   1051.3660900              0.0139160796
    239.2856900              0.0684053245
     67.3974453              0.233185760
     21.5199573              0.471267439
      7.40310130             0.356618546
SP   3   1.00
     20.8479528             -0.108506975            0.0716287243
      4.80830834            -0.146451658            0.3459121030
      1.34406986             1.128688580            0.7224699570
SP   1   1.00
      0.358151393            1.0000000              1.0000000
D    1   1.00
      3.5000000              1.0000000
D    1   1.00
      0.8750000              1.0000000
F    1   1.00
      1.8500000              1.0000000
****
Al     0
S    6   1.00
  13983.1000000              0.00194267
   2098.7500000              0.0148599
    477.7050000              0.0728494
    134.3600000              0.2468300
     42.8709000              0.4872580
     14.5189000              0.3234960
SP   6   1.00
    239.6680000             -0.00292619             0.00460285
     57.4419000             -0.0374080              0.0331990
     18.2859000             -0.1144870              0.1362820
      6.5991400              0.1156350              0.3304760
      2.4904900              0.6125950              0.4491460
      0.9445400              0.3937990              0.2657040
SP   3   1.00
      1.2779000             -0.2276060             -0.0175130
      0.3975900              0.00144583             0.2445330
      0.1600950              1.0927900              0.8049340
SP   1   1.00
      0.0556577              1.0000000              1.0000000
D    1   1.00
      0.6500000              1.0000000
D    1   1.00
      0.1625000              1.0000000
F    1   1.00
      0.2500000              1.0000000
****
Si     0
S    6   1.00
  16115.9000000              0.00195948
   2425.5800000              0.01492880
    553.8670000              0.07284780
    156.3400000              0.24613000
     50.0683000              0.48591400
     17.0178000              0.32500200
SP   6   1.00
    292.7180000             -0.00278094             0.00443826
     69.8731000             -0.03571460             0.03266790
     22.3363000             -0.11498500             0.13472100
      8.1503900              0.09356340             0.32867800
      3.1345800              0.60301700             0.44964000
      1.2254300              0.41895900             0.26137200
SP   3   1.00
      1.7273800             -0.24463000            -0.01779510
      0.5729220              0.00431572             0.25353900
      0.2221920              1.09818000             0.80066900
SP   1   1.00
      0.0778369              1.00000000             1.00000000
D    1   1.00
      0.9000000              1.0000000
D    1   1.00
      0.2250000              1.0000000
F    1   1.00
      0.3200000              1.0000000
****
P     0
S    6   1.00
  19413.3000000              0.0018516
   2909.4200000              0.0142062
    661.3640000              0.0699995
    185.7590000              0.2400790
     59.1943000              0.4847620
     20.0310000              0.3352000
SP   6   1.00
    339.4780000             -0.00278217             0.00456462
     81.0101000             -0.0360499              0.03369360
     25.8780000             -0.1166310              0.13975500
      9.4522100              0.0968328              0.33936200
      3.6656600              0.6144180              0.45092100
      1.4674600              0.4037980              0.23858600
SP   3   1.00
      2.1562300             -0.2529230             -0.01776530
      0.7489970              0.0328517              0.27405800
      0.2831450              1.0812500              0.78542100
SP   1   1.00
      0.0998317              1.0000000              1.00000000
D    1   1.00
      1.1000000              1.0000000
D    1   1.00
      0.2750000              1.0000000
F    1   1.00
      0.4500000              1.0000000
****
S     0
S    6   1.00
  21917.1000000              0.0018690
   3301.4900000              0.0142300
    754.1460000              0.0696960
    212.7110000              0.2384870
     67.9896000              0.4833070
     23.0515000              0.3380740
SP   6   1.00
    423.7350000             -0.0023767              0.0040610
    100.7100000             -0.0316930              0.0306810
     32.1599000             -0.1133170              0.1304520
     11.8079000              0.0560900              0.3272050
      4.6311000              0.5922550              0.4528510
      1.8702500              0.4550060              0.2560420
SP   3   1.00
      2.6158400             -0.2503740             -0.0145110
      0.9221670              0.0669570              0.3102630
      0.3412870              1.0545100              0.7544830
SP   1   1.00
      0.1171670              1.0000000              1.0000000
D    1   1.00
      1.3000000              1.0000000
D    1   1.00
      0.3250000              1.0000000
F    1   1.00
      0.5500000              1.0000000
****
Cl     0
S    6   1.00
  25180.1000000              0.0018330
   3780.3500000              0.0140340
    860.4740000              0.0690970
    242.1450000              0.2374520
     77.3349000              0.4830340
     26.2470000              0.3398560
SP   6   1.00
    491.7650000             -0.0022974              0.0039894
    116.9840000             -0.0307140              0.0303180
     37.4153000             -0.1125280              0.1298800
     13.7834000              0.0450160              0.3279510
      5.4521500              0.5893530              0.4535270
      2.2258800              0.4652060              0.2521540
SP   3   1.00
      3.1864900             -0.2518300             -0.0142990
      1.1442700              0.0615890              0.3235720
      0.4203770              1.0601800              0.7435070
SP   1   1.00
      0.1426570              1.0000000              1.0000000
D    1   1.00
      1.5000000              1.0000000
D    1   1.00
      0.3750000              1.0000000
F    1   1.00
      0.7000000              1.0000000
****
}


set {
reference rhf                          
freeze_core true
e_convergence 10                       
d_convergence 10                      
dft_spherical_points 1202
dft_radial_points 99
}

e = energy('b3lyp')

print_out('Grab this energy {0}'.format(e))
--------------------------------------------------------------------------

  Memory set to  13.039 GiB by Python driver.

Scratch directory: /tmp/

*** tstart() called on n044
*** at Mon Oct 25 14:24:18 2021

   => Loading Basis Set <=

    Name: ANONYMOUS0DC4E0B8
    Role: ORBITAL
    Keyword: BASIS
    atoms 1   entry C          line    48 inputblock 6-31g_2dfp_ 
    atoms 2   entry N          line    69 inputblock 6-31g_2dfp_ 
    atoms 3-4 entry O          line    90 inputblock 6-31g_2dfp_ 
    atoms 5-7 entry H          line    15 inputblock 6-31g_2dfp_ 


         ---------------------------------------------------------
                                   SCF
               by Justin Turney, Rob Parrish, Andy Simmonett
                          and Daniel G. A. Smith
                              RKS Reference
                        1 Threads,  13351 MiB Core
         ---------------------------------------------------------

  ==> Geometry <==

    Molecular point group: c1
    Full point group: C1

    Geometry (in Bohr), charge = 0, multiplicity = 1:

       Center              X                  Y                   Z               Mass       
    ------------   -----------------  -----------------  -----------------  -----------------
         C           -2.655261930741    -0.000000182392    -0.002593945407    12.000000000000
         N            0.173596809259     0.000000008008    -0.016906272707    14.003074004430
         O            1.229377321259     2.059120983908     0.005431710693    15.994914619570
         O            1.229377641459    -2.059120817092     0.005431711393    15.994914619570
         H           -3.289505640941     1.704892841408    -0.941784204807     1.007825032230
         H           -3.289505442041    -1.704893949692    -0.941783000707     1.007825032230
         H           -3.239480401941     0.000000521208     1.976944151893     1.007825032230

  Running in c1 symmetry.

  Rotational constants: A =      0.40889  B =      0.35103  C =      0.19593 [cm^-1]
  Rotational constants: A =  12258.24571  B =  10523.60833  C =   5873.70273 [MHz]
  Nuclear repulsion =  124.732022223980820

  Charge       = 0
  Multiplicity = 1
  Electrons    = 32
  Nalpha       = 16
  Nbeta        = 16

  ==> Algorithm <==

  SCF Algorithm Type is DF.
  DIIS enabled.
  MOM disabled.
  Fractional occupation disabled.
  Guess Type is SAD.
  Energy threshold   = 1.00e-10
  Density threshold  = 1.00e-10
  Integral threshold = 0.00e+00

  ==> Primary Basis <==

  Basis Set: ANONYMOUS0DC4E0B8
    Blend: 6-31G_2DFP_
    Number of shells: 44
    Number of basis function: 128
    Number of Cartesian functions: 148
    Spherical Harmonics?: true
    Max angular momentum: 3

  ==> DFT Potential <==

   => Composite Functional: B3LYP <= 

    B3LYP Hyb-GGA Exchange-Correlation Functional

    P. J. Stephens, F. J. Devlin, C. F. Chabalowski, and M. J. Frisch, J. Phys. Chem. 98, 11623 (1994)

    Deriv               =              1
    GGA                 =           TRUE
    Meta                =          FALSE

    Exchange Hybrid     =           TRUE
    MP2 Hybrid          =          FALSE

   => Exchange Functionals <=

    0.0800   Slater exchange
    0.7200         Becke 88

   => Exact (HF) Exchange <=

    0.2000               HF 

   => Correlation Functionals <=

    0.1900   Vosko, Wilk & Nusair (VWN5_RPA)
    0.8100   Lee, Yang & Parr

   => Molecular Quadrature <=

    Radial Scheme          =       TREUTLER
    Pruning Scheme         =           NONE
    Nuclear Scheme         =       TREUTLER

    BS radius alpha        =              1
    Pruning alpha          =              1
    Radial Points          =             99
    Spherical Points       =           1202
    Total Points           =         782670
    Total Blocks           =           5400
    Max Points             =            256
    Max Functions          =            128
    Weights Tolerance      =       1.00E-15

   => Loading Basis Set <=

    Name: (ANONYMOUS0DC4E0B8 AUX)
    Role: JKFIT
    Keyword: DF_BASIS_SCF
    atoms 1   entry C          line   198 file /opt/psi/4/master/share/psi4/basis/def2-universal-jkfit.gbs 
    atoms 2   entry N          line   258 file /opt/psi/4/master/share/psi4/basis/def2-universal-jkfit.gbs 
    atoms 3-4 entry O          line   318 file /opt/psi/4/master/share/psi4/basis/def2-universal-jkfit.gbs 
    atoms 5-7 entry H          line    18 file /opt/psi/4/master/share/psi4/basis/def2-universal-jkfit.gbs 

  ==> Integral Setup <==

  DFHelper Memory: AOs need 0.048 GiB; user supplied 7.441 GiB. Using in-core AOs.

  ==> MemDFJK: Density-Fitted J/K Matrices <==

    J tasked:                   Yes
    K tasked:                   Yes
    wK tasked:                   No
    OpenMP threads:               1
    Memory [MiB]:              7619
    Algorithm:                 Core
    Schwarz Cutoff:           1E-12
    Mask sparsity (%):       0.5981
    Fitting Condition:        1E-10

   => Auxiliary Basis Set <=

  Basis Set: (ANONYMOUS0DC4E0B8 AUX)
    Blend: DEF2-UNIVERSAL-JKFIT
    Number of shells: 118
    Number of basis function: 360
    Number of Cartesian functions: 428
    Spherical Harmonics?: true
    Max angular momentum: 4

  Cached 100.0% of DFT collocation blocks in 2.338 [GiB].

  Minimum eigenvalue in the overlap matrix is 2.2907300561E-03.
  Reciprocal condition number of the overlap matrix is 4.3738381518E-04.
    Using symmetric orthogonalization.

  ==> Pre-Iterations <==

  SCF Guess: Superposition of Atomic Densities via on-the-fly atomic UHF (no occupation information).

   -------------------------
    Irrep   Nso     Nmo    
   -------------------------
     A        128     128 
   -------------------------
    Total     128     128
   -------------------------

  ==> Iterations <==

                           Total Energy        Delta E     RMS |[F,P]|

   @DF-RKS iter SAD:  -244.63114236336156   -2.44631e+02   0.00000e+00 
   @DF-RKS iter   1:  -244.81959553273325   -1.88453e-01   5.64658e-03 DIIS
   @DF-RKS iter   2:  -244.61003904915427    2.09556e-01   8.39240e-03 DIIS
   @DF-RKS iter   3:  -245.00838382291900   -3.98345e-01   1.42186e-03 DIIS
   @DF-RKS iter   4:  -245.02205784645383   -1.36740e-02   2.72348e-04 DIIS
   @DF-RKS iter   5:  -245.02252933451456   -4.71488e-04   8.78820e-05 DIIS
   @DF-RKS iter   6:  -245.02258407122866   -5.47367e-05   1.26641e-05 DIIS
   @DF-RKS iter   7:  -245.02258507601493   -1.00479e-06   1.42136e-06 DIIS
   @DF-RKS iter   8:  -245.02258508905277   -1.30378e-08   2.62370e-07 DIIS
   @DF-RKS iter   9:  -245.02258508946710   -4.14332e-10   5.63511e-08 DIIS
   @DF-RKS iter  10:  -245.02258508948583   -1.87299e-11   9.81956e-09 DIIS
   @DF-RKS iter  11:  -245.02258508948572    1.13687e-13   1.29927e-08 DIIS
   @DF-RKS iter  12:  -245.02258508948711   -1.39266e-12   1.74798e-09 DIIS
   @DF-RKS iter  13:  -245.02258508948651    5.96856e-13   2.29211e-10 DIIS
   @DF-RKS iter  14:  -245.02258508948623    2.84217e-13   3.27049e-11 DIIS
  Energy and wave function converged.


  ==> Post-Iterations <==

    Orbital Energies [Eh]
    ---------------------

    Doubly Occupied:                                                      

       1A    -19.181936     2A    -19.181898     3A    -14.570912  
       4A    -10.248562     5A     -1.227736     6A     -1.056153  
       7A     -0.816964     8A     -0.624574     9A     -0.549138  
      10A     -0.539056    11A     -0.519527    12A     -0.453134  
      13A     -0.435190    14A     -0.315051    15A     -0.307137  
      16A     -0.294540  

    Virtual:                                                              

      17A     -0.068275    18A      0.077804    19A      0.107635  
      20A      0.125214    21A      0.134866    22A      0.259323  
      23A      0.340783    24A      0.402508    25A      0.416693  
      26A      0.419995    27A      0.491811    28A      0.527114  
      29A      0.540698    30A      0.572742    31A      0.587783  
      32A      0.634823    33A      0.690251    34A      0.740897  
      35A      0.785421    36A      0.809025    37A      0.836751  
      38A      0.873009    39A      0.874432    40A      0.929646  
      41A      0.953172    42A      0.964305    43A      0.997352  
      44A      1.023603    45A      1.040948    46A      1.131159  
      47A      1.190311    48A      1.219976    49A      1.245054  
      50A      1.289980    51A      1.311927    52A      1.374906  
      53A      1.406820    54A      1.540842    55A      1.571515  
      56A      1.585957    57A      1.622760    58A      1.661230  
      59A      1.669399    60A      1.694176    61A      1.751327  
      62A      1.805848    63A      1.867717    64A      1.935960  
      65A      2.054283    66A      2.077198    67A      2.167214  
      68A      2.282394    69A      2.444675    70A      2.584596  
      71A      2.616779    72A      2.872857    73A      2.920056  
      74A      2.939591    75A      2.940212    76A      3.093920  
      77A      3.154889    78A      3.259359    79A      3.341178  
      80A      3.393913    81A      3.402882    82A      3.520219  
      83A      3.711173    84A      3.801781    85A      3.841106  
      86A      3.925440    87A      3.929718    88A      4.055437  
      89A      4.078997    90A      4.199299    91A      4.267039  
      92A      4.298906    93A      4.346652    94A      4.454199  
      95A      4.500948    96A      4.508095    97A      4.604191  
      98A      4.643691    99A      4.694770   100A      4.859882  
     101A      4.927781   102A      5.030469   103A      5.037656  
     104A      5.040834   105A      5.052396   106A      5.145315  
     107A      5.158296   108A      5.213083   109A      5.259324  
     110A      5.447621   111A      5.488606   112A      5.549269  
     113A      5.780020   114A      6.024603   115A      6.182870  
     116A      6.290950   117A      6.491413   118A      6.720917  
     119A      6.740067   120A      6.770733   121A      6.798032  
     122A      6.800143   123A      7.042987   124A      7.088464  
     125A      7.115486   126A      7.381116   127A      7.521305  
     128A      7.744287  

    Final Occupation by Irrep:
              A 
    DOCC [    16 ]

  @DF-RKS Final Energy:  -245.02258508948623

   => Energetics <=

    Nuclear Repulsion Energy =            124.7320222239808203
    One-Electron Energy =                -581.1067400697736502
    Two-Electron Energy =                 236.0777872844834633
    DFT Exchange-Correlation Energy =     -24.7256545281768716
    Empirical Dispersion Energy =           0.0000000000000000
    VV10 Nonlocal Energy =                  0.0000000000000000
    Total Energy =                       -245.0225850894862276

Computation Completed


Properties will be evaluated at   0.000000,   0.000000,   0.000000 [a0]

Properties computed using the SCF density matrix

  Nuclear Dipole Moment: [e a0]
     X:    -4.8648      Y:    -0.0000      Z:     0.0464

  Electronic Dipole Moment: [e a0]
     X:     3.5387      Y:     0.0000      Z:    -0.0315

  Dipole Moment: [e a0]
     X:    -1.3261      Y:    -0.0000      Z:     0.0148     Total:     1.3262

  Dipole Moment: [D]
     X:    -3.3707      Y:    -0.0000      Z:     0.0377     Total:     3.3709


*** tstop() called on n044 at Mon Oct 25 14:25:11 2021
Module time:
	user time   =      52.13 seconds =       0.87 minutes
	system time =       0.53 seconds =       0.01 minutes
	total time  =         53 seconds =       0.88 minutes
Total time:
	user time   =      52.13 seconds =       0.87 minutes
	system time =       0.53 seconds =       0.01 minutes
	total time  =         53 seconds =       0.88 minutes
Grab this energy -245.02258508948623
    Psi4 stopped on: Monday, 25 October 2021 02:25PM
    Psi4 wall time for execution: 0:00:52.71

*** Psi4 exiting successfully. Buy a developer a beer!
