
 Primary working directories    : /tmp/1049102.1390.gen6.q
 Secondary working directories  : /tmp/1049102.1390.gen6.q
 Wavefunction directory         : /home/vulcan/mel64643/wfu/
 Main file repository           : /tmp/1049102.1390.gen6.q/

 ARCHNAME  : Linux/x86_64
 FC        : /opt/intel/compilers_and_libraries_2016.1.150/linux/bin/intel64/ifort
 FCVERSION : 16.0.1
 BLASLIB   : -mkl
 id        : ccgc

 Nodes     nprocs
 n085         1
 ga_uses_ma=false, calling ma_init with nominal heap.
 GA-space will be limited to   8.0 MW (determined by -G option)

 Using customized tuning parameters: mindgm=10; mindgv=16; mindgc=4; mindgr=1; noblas=0; mincuda=1000; minvec=7
 default implementation of scratch files=df  

 ***,Optimization of h2o_3
 memory,1000,m
 gthresh,energy=1.0d-12,orbital=1.0d-10,oneint=1.0d-16,twoint=1.0d-16,optgrad=1.0d-6,compress=1.0d-13
 geomtyp=xyz
 
 
 
 bohr
 geometry = {
  C    0.9161071043    1.4047571046   -2.2712529184
  C    0.7399980204    2.7084622642    0.0202625599
  C    0.9981903603    1.4049697782    2.3042693031
  C    1.4308935907   -1.2022799683    2.2967615382
  C    1.6077299817   -2.5054936761    0.0052883743
  C    1.3495961074   -1.2017775855   -2.2785142295
  H    0.7080057852    2.4069081954   -4.0452341106
  H    0.3890825872    4.7260178597    0.0230629407
  H    0.8559912803    2.4175253126    4.0790786626
  H    1.6272620985   -2.2054881839    4.0718967591
  H    1.9408763790   -4.5264667624   -0.0119879180
  H    1.4825132624   -2.2025589733   -4.0609911407
  N   -5.4426267958   -0.3575921426   -0.0701097001
  H   -5.5911481664   -1.5688922926   -1.5506458581
  H   -6.0695777552   -1.3157389880    1.4693797094
  H   -3.5619619729   -0.0741415401    0.1988137051
 }
 
 basis=aug-cc-pvdz, H=cc-pvdz
 {rhf;maxit,200}
 {ccsd(t)}

 Variables initialized (661), CPU time= 0.00 sec
 Commands  initialized (458), CPU time= 0.01 sec, 486 directives.
 Default parameters read. Elapsed time= 0.05 sec

 Checking input...
 Passed
1


                                         ***  PROGRAM SYSTEM MOLPRO  ***
                         Copyright, University College Cardiff Consultants Limited, 2008

                                    Version 2010.1 linked May 16 2016 07:17:05


 **********************************************************************************************************************************
 LABEL *   Optimization of h2o_3                                                         
 Linux-4.4.3/n085(x86_64) 64 bit mpp version                                             DATE: 21-Mar-24          TIME: 01:24:37  
 **********************************************************************************************************************************

 SHA1:             9e8077add272b0f3cad6f7df79ec5211205f459d
 **********************************************************************************************************************************

 THRESHOLDS:

 ZERO    =  1.00D-12  ONEINT  =  1.00D-16  TWOINT  =  1.00D-16  PREFAC  =  1.00D-14  LOCALI  =  1.00D-09  EORDER  =  1.00D-04
 ENERGY  =  1.00D-12  ETEST   =  0.00D+00  EDENS   =  0.00D+00  THRDEDEF=  1.00D-06  GRADIENT=  1.00D-02  STEP    =  1.00D-03
 ORBITAL =  1.00D-10  CIVEC   =  1.00D-05  COEFF   =  1.00D-04  PRINTCI =  5.00D-02  PUNCHCI =  9.90D+01  OPTGRAD =  1.00D-06
 OPTENERG=  1.00D-06  OPTSTEP =  3.00D-04  THRGRAD =  1.00D-10  COMPRESS=  1.00D-13  VARMIN  =  1.00D-07  VARMAX  =  1.00D-03
 THRDOUB =  0.00D+00  THRDIV  =  1.00D-05  THRRED  =  1.00D-07  THRPSP  =  1.00D+00  THRDC   =  1.00D-10  THRCS   =  1.00D-10
 THRNRM  =  1.00D-08  THREQ   =  0.00D+00  THRDE   =  1.00D+00  THRREF  =  1.00D-05  SPARFAC =  1.00D+00  THRDLP  =  1.00D-07
 THRDIA  =  1.00D-10  THRDLS  =  1.00D-07  THRGPS  =  0.00D+00  THRKEX  =  0.00D+00  THRDIS  =  2.00D-01  THRVAR  =  1.00D-10
 THRLOC  =  1.00D-06  THRGAP  =  1.00D-06  THRLOCT = -1.00D+00  THRGAPT = -1.00D+00  THRORB  =  1.00D-06  THRMLTP =  0.00D+00
 THRCPQCI=  1.00D-10  KEXTA   =  0.00D+00  THRCOARS=  0.00D+00  SYMTOL  =  1.00D-06  GRADTOL =  1.00D-06  THROVL  =  1.00D-08
 THRORTH =  1.00D-08  GRID    =  1.00D-06  GRIDMAX =  1.00D-03  DTMAX   =  0.00D+00

 SETTING GEOMTYP        =    XYZ
 ZUNIT=BOHR
 

 Variable memory set to 1000000000 words,  buffer space   230000 words

 SETTING BASIS          =    AUG-CC-PVDZ,H=CC-PVDZ


 Recomputing integrals since basis changed


 Using spherical harmonics

 Library entry C      S aug-cc-pVDZ          selected for orbital group  1
 Library entry C      P aug-cc-pVDZ          selected for orbital group  1
 Library entry C      D aug-cc-pVDZ          selected for orbital group  1
 Library entry H      S cc-pVDZ              selected for orbital group  2
 Library entry H      P cc-pVDZ              selected for orbital group  2
 Library entry N      S aug-cc-pVDZ          selected for orbital group  3
 Library entry N      P aug-cc-pVDZ          selected for orbital group  3
 Library entry N      D aug-cc-pVDZ          selected for orbital group  3

1PROGRAM * SEWARD (Integral evaluation for generally contracted gaussian basis sets)     Author: Roland Lindh, 1990

 Geometry written to block  1 of record 700


 Point group  C1  



 ATOMIC COORDINATES

 NR  ATOM    CHARGE       X              Y              Z

   1  C       6.00    0.916107104    1.404757105   -2.271252918
   2  C       6.00    0.739998020    2.708462264    0.020262560
   3  C       6.00    0.998190360    1.404969778    2.304269303
   4  C       6.00    1.430893591   -1.202279968    2.296761538
   5  C       6.00    1.607729982   -2.505493676    0.005288374
   6  C       6.00    1.349596107   -1.201777585   -2.278514229
   7  H       1.00    0.708005785    2.406908195   -4.045234111
   8  H       1.00    0.389082587    4.726017860    0.023062941
   9  H       1.00    0.855991280    2.417525313    4.079078663
  10  H       1.00    1.627262098   -2.205488184    4.071896759
  11  H       1.00    1.940876379   -4.526466762   -0.011987918
  12  H       1.00    1.482513262   -2.202558973   -4.060991141
  13  N       7.00   -5.442626796   -0.357592143   -0.070109700
  14  H       1.00   -5.591148166   -1.568892293   -1.550645858
  15  H       1.00   -6.069577755   -1.315738988    1.469379709
  16  H       1.00   -3.561961973   -0.074141540    0.198813705

 Bond lengths in Bohr (Angstrom)

 1-2  2.642291570  1-6  2.642345271  1-7  2.048077693  2-3  2.642431219  2-8  2.047847666
     ( 1.398240478)     ( 1.398268896)     ( 1.083796038)     ( 1.398314378)     ( 1.083674313)

  3- 4  2.642922567   3- 9  2.048276727   4- 5  2.642061002   4-10  2.048436567   5- 6  2.642359377
       ( 1.398574387)       ( 1.083901362)       ( 1.398118467)       ( 1.083985945)       ( 1.398276360)

  5-11  2.048320582   6-12  2.048524907  13-14  1.918669843  13-15  1.918629856  13-16  1.920823838
       ( 1.083924569)       ( 1.084032693)       ( 1.015316352)       ( 1.015295192)       ( 1.016456198)

 Bond angles

  1- 2- 3  119.98067201   1- 2- 8  119.91455706   1- 6- 5  120.02353194   1- 6-12  119.66660919

  2-1-6  120.00199152   2-1-7  120.19749204   2-3-4  120.01167923   2-3-9  119.88868220

  3- 2- 8  120.10309392   3- 4- 5  120.00136253   3- 4-10  119.75987493   4- 3- 9  120.09930685

  4- 5- 6  119.98073482   4- 5-11  120.32285826   5- 4-10  120.23875783   5- 6-12  120.30984433

  6- 1- 7  119.79977653   6- 5-11  119.69629291  14-13-15  106.17607584  14-13-16  106.08043224

 15-13-16  106.33745550

 NUCLEAR CHARGE:                   52
 NUMBER OF PRIMITIVE AOS:         322
 NUMBER OF SYMMETRY AOS:          308
 NUMBER OF CONTRACTIONS:          206   ( 206A   )
 NUMBER OF CORE ORBITALS:           7   (   7A   )
 NUMBER OF VALENCE ORBITALS:       37   (  37A   )


 NUCLEAR REPULSION ENERGY  273.71064697


 Eigenvalues of metric

         1 0.861E-05 0.184E-04 0.228E-04 0.532E-04 0.641E-04 0.645E-04 0.107E-03 0.107E-03


 Contracted 2-electron integrals neglected if value below      1.0D-16
 AO integral compression algorithm  1   Integral accuracy      1.0D-16

     1892.155 MB (compressed) written to integral file ( 94.5%)

     Node minimum: 1892.155 MB, node maximum: 1892.155 MB


 NUMBER OF SORTED TWO-ELECTRON INTEGRALS:  227303181.     BUFFER LENGTH:  32768
 NUMBER OF SEGMENTS:  15  SEGMENT LENGTH:   15999503      RECORD LENGTH: 524288

 Memory used in sort:      16.56 MW

 SORT1 READ   250230022. AND WROTE   226407520. INTEGRALS IN    654 RECORDS. CPU TIME:     2.20 SEC, REAL TIME:     3.47 SEC
 SORT2 READ   226407520. AND WROTE   227303181. INTEGRALS IN   7218 RECORDS. CPU TIME:     1.48 SEC, REAL TIME:     2.34 SEC

 FILE SIZES:   FILE 1:  1743.1 MBYTE,  FILE 4:  2743.1 MBYTE,   TOTAL:   4486.2 MBYTE

 OPERATOR DM      FOR CENTER  0  COORDINATES:    0.000000    0.000000    0.000000


 **********************************************************************************************************************************
 DATASETS  * FILE   NREC   LENGTH (MB)   RECORD NAMES
              1      19     1743.60       500      610      700      900      950      970     1000      129      960     1100   
                                          VAR    BASINP    GEOM    SYMINP    ZMAT    AOBASIS   BASIS     P2S    ABASIS      S 
                                         1400     1410     1200     1210     1080     1600     1650     1300     1700   
                                           T        V       H0       H01     AOSYM     SMH    MOLCAS    ERIS     OPER   

 PROGRAMS   *        TOTAL       INT
 CPU TIMES  *        12.65     12.61
 REAL TIME  *        15.80 SEC
 DISK USED  *         6.38 GB      
 GA USED    *         0.01 MB       (max)       0.00 MB       (current)
 **********************************************************************************************************************************

1PROGRAM * RHF-SCF (CLOSED SHELL)       Authors: W. Meyer, H.-J. Werner


 NUMBER OF ELECTRONS:      26+   26-    SPACE SYMMETRY=1    SPIN SYMMETRY: Singlet 
 CONVERGENCE THRESHOLDS:    1.00E-10 (Density)    1.00E-13 (Energy)
 MAX. NUMBER OF ITERATIONS:      200
 INTERPOLATION TYPE:            DIIS
 INTERPOLATION STEPS:              2 (START)      1 (STEP)
 LEVEL SHIFTS:                  0.00 (CLOSED)  0.00 (OPEN) 



 Orbital guess generated from atomic densities. Full valence occupancy:   44

 Molecular orbital dump at record        2100.2

 ITERATION    DDIFF          GRAD             ENERGY        2-EL.EN.            DIPOLE MOMENTS         DIIS
    1      0.000D+00      0.000D+00      -286.85323343    740.883609    0.51927   -0.76741    0.13531    0
    2      0.000D+00      0.322D-02      -286.92079070    735.093191    0.43483   -0.38306    0.06014    1
    3      0.826D-02      0.133D-02      -286.93012009    737.724927    0.45148   -0.52220    0.09133    2
    4      0.218D-02      0.381D-03      -286.93133830    737.205336    0.45001   -0.49516    0.08303    3
    5      0.783D-03      0.527D-04      -286.93136216    737.193963    0.45586   -0.50540    0.08727    4
    6      0.135D-03      0.178D-04      -286.93136462    737.208877    0.45471   -0.49985    0.08505    5
    7      0.512D-04      0.556D-05      -286.93136490    737.205840    0.45536   -0.50206    0.08583    6
    8      0.150D-04      0.129D-05      -286.93136492    737.204822    0.45551   -0.50171    0.08569    7
    9      0.418D-05      0.542D-06      -286.93136492    737.205281    0.45554   -0.50180    0.08572    7
   10      0.148D-05      0.143D-06      -286.93136492    737.205229    0.45555   -0.50180    0.08572    7
   11      0.517D-06      0.411D-07      -286.93136492    737.205215    0.45556   -0.50180    0.08572    7
   12      0.142D-06      0.175D-07      -286.93136492    737.205229    0.45556   -0.50180    0.08572    8
   13      0.614D-07      0.765D-08      -286.93136492    737.205224    0.45556   -0.50180    0.08572    8
   14      0.340D-07      0.364D-08      -286.93136492    737.205226    0.45556   -0.50180    0.08572    8
   15      0.203D-07      0.138D-08      -286.93136492    737.205225    0.45556   -0.50180    0.08572    8
   16      0.715D-08      0.458D-09      -286.93136492    737.205225    0.45556   -0.50180    0.08572    9
   17      0.216D-08      0.126D-09      -286.93136492    737.205225    0.45556   -0.50180    0.08572    9
   18      0.412D-09      0.390D-10      -286.93136492    737.205225    0.45556   -0.50180    0.08572    9
   19      0.202D-09      0.170D-10      -286.93136492    737.205225    0.45556   -0.50180    0.08572    9
   20      0.143D-09      0.886D-11      -286.93136492    737.205225    0.45556   -0.50180    0.08572    9
   21      0.124D-09      0.417D-11      -286.93136492    737.205225    0.45556   -0.50180    0.08572    9
   22      0.163D-09      0.127D-11      -286.93136492    737.205225    0.45556   -0.50180    0.08572    9
   23      0.113D-09      0.752D-12      -286.93136492    737.205225    0.45556   -0.50180    0.08572    9
   24      0.981D-10      0.658D-12      -286.93136492    737.205225    0.45556   -0.50180    0.08572    9
   25      0.748D-10      0.568D-12      -286.93136492    737.205225    0.45556   -0.50180    0.08572    9
   26      0.440D-10      0.613D-12      -286.93136492    737.205225    0.45556   -0.50180    0.08572    9
   27      0.313D-10      0.450D-12      -286.93136492    737.205225    0.45556   -0.50180    0.08572    9
   28      0.339D-10      0.505D-12      -286.93136492    737.205225    0.45556   -0.50180    0.08572    9
   29      0.215D-10      0.526D-12      -286.93136492    737.205225    0.45556   -0.50180    0.08572    9
   30      0.133D-10      0.596D-12      -286.93136492    737.205225    0.45556   -0.50180    0.08572    9
   31      0.186D-10      0.544D-12      -286.93136492    737.205225    0.45556   -0.50180    0.08572    0

 Final occupancy:  26

 !RHF STATE 1.1 Energy               -286.931364922745
 Nuclear energy                       273.71064697
 One-electron energy                 -929.24462443
 Two-electron energy                  368.60261254
 Virial quotient                       -1.00146528
 !RHF STATE 1.1 Dipole moment           0.45555540    -0.50180064     0.08571627
 Dipole moment /Debye                   1.15783050    -1.27536646     0.21785475

 Orbital energies:

         1.1          2.1          3.1          4.1          5.1          6.1          7.1          8.1          9.1         10.1
    -15.535005   -11.250728   -11.250016   -11.249650   -11.248878   -11.248589   -11.247762    -1.157503    -1.125560    -1.022146

        11.1         12.1         13.1         14.1         15.1         16.1         17.1         18.1         19.1         20.1
     -1.021861    -0.830812    -0.830366    -0.714501    -0.650449    -0.623932    -0.611678    -0.609820    -0.593569    -0.593457

        21.1         22.1         23.1         24.1         25.1         26.1         27.1         28.1
     -0.504903    -0.500435    -0.499681    -0.413434    -0.342973    -0.341992     0.063911     0.066397


 **********************************************************************************************************************************
 DATASETS  * FILE   NREC   LENGTH (MB)   RECORD NAMES
              1      19     1743.60       500      610      700      900      950      970     1000      129      960     1100   
                                          VAR    BASINP    GEOM    SYMINP    ZMAT    AOBASIS   BASIS     P2S    ABASIS      S 
                                         1400     1410     1200     1210     1080     1600     1650     1300     1700   
                                           T        V       H0       H01     AOSYM     SMH    MOLCAS    ERIS     OPER   

              2       3        1.40       700     1000     2100   
                                         GEOM     BASIS     RHF  

 PROGRAMS   *        TOTAL       RHF       INT
 CPU TIMES  *        58.78     46.13     12.61
 REAL TIME  *        66.81 SEC
 DISK USED  *         6.38 GB      
 GA USED    *         0.01 MB       (max)       0.00 MB       (current)
 **********************************************************************************************************************************


1PROGRAM * CCSD (Closed-shell coupled cluster)     Authors: C. Hampel, H.-J. Werner, 1991, M. Deegan, P.J. Knowles, 1992


 Convergence thresholds:  THRVAR = 1.00D-08  THRDEN = 1.00D-12

 CCSD(T)     terms to be evaluated (factor= 1.000)


 Number of core orbitals:           7 (   7 )
 Number of closed-shell orbitals:  19 (  19 )
 Number of external orbitals:     180 ( 180 )

 Molecular orbitals read from record     2100.2  Type=RHF/CANONICAL (state 1.1)

 Number of N-1 electron functions:              19
 Number of N-2 electron functions:             190
 Number of singly external CSFs:              3420
 Number of doubly external CSFs:           5849910
 Total number of CSFs:                     5853331

 Length of J-op  integral file:               0.00 MB
 Length of K-op  integral file:               2.96 MB
 Length of 3-ext integral record:             0.00 MB

 Memory could be reduced to 140.12 Mwords without degradation in triples

 Integral transformation finished. Total CPU:  10.47 sec, npass=  1  Memory used: 101.90 MW

 Reference energy:                   -286.93136492

 MP2 singlet pair energy:              -0.62063211
 MP2 triplet pair energy:              -0.38983426
 MP2 correlation energy:               -1.01046637
 MP2 total energy:                   -287.94183129

 SCS-MP2 correlation energy:           -0.98732207   (PS=  1.200000  PT=  0.333333)
 SCS-MP2 total energy:               -287.91868700

 ITER.      SQ.NORM     CORR.ENERGY   TOTAL ENERGY   ENERGY CHANGE        DEN1      VAR(S)    VAR(P)  DIIS     TIME
   1      1.38488250    -1.05475849  -287.98612341    -0.04429212    -0.01721354  0.36D-02  0.80D-02  1  1    43.60
   2      1.41439518    -1.06062110  -287.99198602    -0.00586261    -0.02705286  0.63D-04  0.10D-02  2  2    77.10
   3      1.42352618    -1.06071682  -287.99208174    -0.00009572    -0.00464347  0.27D-04  0.84D-04  3  3   110.65
   4      1.42746340    -1.06088556  -287.99225049    -0.00016874    -0.00121412  0.22D-05  0.11D-04  4  4   144.19
   5      1.42867697    -1.06091651  -287.99228144    -0.00003095    -0.00027320  0.27D-06  0.13D-05  5  5   177.75
   6      1.42897954    -1.06090628  -287.99227120     0.00001023    -0.00004348  0.23D-07  0.79D-07  6  6   211.34
   7      1.42902028    -1.06090791  -287.99227283    -0.00000163    -0.00000103  0.35D-08  0.82D-08  6  2   244.93
   8      1.42902947    -1.06090777  -287.99227269     0.00000014    -0.00000117  0.76D-09  0.76D-09  6  1   278.52
   9      1.42902930    -1.06090790  -287.99227283    -0.00000014     0.00000123  0.21D-09  0.92D-10  6  4   312.09
  10      1.42903050    -1.06090791  -287.99227284    -0.00000001    -0.00000018  0.57D-10  0.15D-10  6  3   345.68
  11      1.42903044    -1.06090793  -287.99227285    -0.00000002     0.00000013  0.14D-10  0.37D-11  6  5   379.21
  12      1.42903040    -1.06090793  -287.99227286    -0.00000000     0.00000003  0.15D-11  0.10D-11  6  6   412.78
  13      1.42903023    -1.06090794  -287.99227286    -0.00000000     0.00000006  0.69D-13  0.20D-12  6  2   446.38
  14      1.42903012    -1.06090794  -287.99227286    -0.00000000     0.00000003  0.81D-14  0.40D-13  6  1   479.96
  15      1.42903007    -1.06090794  -287.99227286    -0.00000000     0.00000001  0.90D-15  0.54D-14  6  3   513.52
  16      1.42903004    -1.06090794  -287.99227286    -0.00000000     0.00000000  0.12D-15  0.37D-15  6  4   547.12
  17      1.42903004    -1.06090794  -287.99227286    -0.00000000     0.00000000  0.31D-16  0.44D-16  6  5   580.68
  18      1.42903004    -1.06090794  -287.99227286    -0.00000000     0.00000000  0.82D-17  0.71D-17  6  6   614.26
  19      1.42903004    -1.06090794  -287.99227286    -0.00000000     0.00000000  0.24D-17  0.77D-18  6  2   647.85
  20      1.42903004    -1.06090794  -287.99227286    -0.00000000     0.00000000  0.76D-18  0.18D-18  6  1   681.40
  21      1.42903004    -1.06090794  -287.99227286    -0.00000000     0.00000000  0.30D-18  0.79D-19  6  3   714.97
  22      1.42903004    -1.06090794  -287.99227286    -0.00000000     0.00000000  0.12D-18  0.37D-19  6  4   748.54
  23      1.42903004    -1.06090794  -287.99227286    -0.00000000     0.00000000  0.52D-19  0.20D-19  6  6   782.10

 Norm of t1 vector:      0.08385625      S-energy:    -0.00000000      T1 diagnostic:  0.00961897
                                                                       D1 diagnostic:  0.02619385

 Doubles amplitudes (print threshold =  0.500E-01):

         I         J         SYM. A    SYM. B    A         B      T(IJ, AB)

        19        19         1         1         7         7     -0.05356529


 Total CPU time for triples:    679.16 sec


 RESULTS
 =======

  Reference energy                   -286.931364922744
  CCSD singlet pair energy             -0.711156281873
  CCSD triplet pair energy             -0.349751656934
  CCSD correlation energy              -1.060907938807

  Triples (T) contribution             -0.045602743382
  Total correlation energy             -1.106510682189

  CCSD total energy                  -287.992272861551
  CCSD[T] energy                     -288.038745808885
  CCSD-T energy                      -288.037487063921
 !CCSD(T) total energy               -288.037875604933

 Timing summary (sec):

 STEP                 CPU(USER)    SYS     CPU(TOT)    WALL
 Transformation         10.81      0.77     11.58     11.58
 CCSD iterations       771.30     11.41    782.71    784.03
 Triples               679.16     10.47    689.63    689.73

 Program statistics:

 Available memory in ccsd:               999998456
 Min. memory needed in ccsd:              14392275
 Max. memory used in ccsd:                19775697
 Max. memory used in cckext:              16737545 (23 integral passes)



 **********************************************************************************************************************************
 DATASETS  * FILE   NREC   LENGTH (MB)   RECORD NAMES
              1      20     2287.21       500      610      700      900      950      970     1000      129      960     1100   
                                          VAR    BASINP    GEOM    SYMINP    ZMAT    AOBASIS   BASIS     P2S    ABASIS      S 
                                         1400     1410     1200     1210     1080     1600     1650     1300     1700     1380   
                                           T        V       H0       H01     AOSYM     SMH    MOLCAS    ERIS     OPER     JKOP   

              2       3        1.40       700     1000     2100   
                                         GEOM     BASIS     RHF  

 PROGRAMS   *        TOTAL   CCSD(T)       RHF       INT
 CPU TIMES  *      1520.07   1461.29     46.13     12.61
 REAL TIME  *      1552.25 SEC
 DISK USED  *         6.38 GB      
 GA USED    *         0.01 MB       (max)       0.00 MB       (current)
 **********************************************************************************************************************************

        CCSD(T)         RHF-SCF 
   -288.03787560   -286.93136492
 **********************************************************************************************************************************
 Variable memory released
