
 Primary working directories    : /tmp/1049102.1469.gen4.q
 Secondary working directories  : /tmp/1049102.1469.gen4.q
 Wavefunction directory         : /home/vulcan/mel64643/wfu/
 Main file repository           : /tmp/1049102.1469.gen4.q/

 ARCHNAME  : Linux/x86_64
 FC        : /opt/intel/compilers_and_libraries_2016.1.150/linux/bin/intel64/ifort
 FCVERSION : 16.0.1
 BLASLIB   : -mkl
 id        : ccgc

 Nodes     nprocs
 n021         1
 ga_uses_ma=false, calling ma_init with nominal heap.
 GA-space will be limited to   8.0 MW (determined by -G option)

 Using customized tuning parameters: mindgm=10; mindgv=16; mindgc=4; mindgr=1; noblas=0; mincuda=1000; minvec=7
 default implementation of scratch files=df  

 ***,Optimization of h2o_3
 memory,1000,m
 gthresh,energy=1.0d-12,orbital=1.0d-10,oneint=1.0d-16,twoint=1.0d-16,optgrad=1.0d-6,compress=1.0d-13
 geomtyp=xyz
 
 
 
 bohr
 geometry = {
  C    0.9163669024    1.4058970060   -2.2727911358
  C    0.7407274983    2.7096797264    0.0187162562
  C    0.9994120786    1.4062685931    2.3027137220
  C    1.4321378856   -1.2009774040    2.2952050968
  C    1.6085046169   -2.5042686943    0.0037398544
  C    1.3498785274   -1.2006339189   -2.2800534863
  H    0.7067692906    2.4151345833   -4.0425737758
  H    0.3899823300    4.7272243233    0.0318193468
  H    0.8569459981    2.4224500657    4.0754280765
  H    1.6300034009   -2.2112759141    4.0661479317
  H    1.9417443047   -4.5252578109   -0.0093562784
  H    1.4852541591   -2.2174317476   -4.0532567764
  N   -5.4419478245   -0.3559929779   -0.0704624568
  H   -5.5986350641   -1.5710507037   -1.5470726965
  H   -6.0750385916   -1.3185875345    1.4637305973
  H   -3.5611736453   -0.0729671900    0.1981434012
 }
 
 basis=aug-cc-pvdz, H=cc-pvdz
 {rhf;maxit,200}
 {ccsd(t)}

 Variables initialized (661), CPU time= 0.00 sec
 Commands  initialized (458), CPU time= 0.00 sec, 486 directives.
 Default parameters read. Elapsed time= 0.06 sec

 Checking input...
 Passed
1


                                         ***  PROGRAM SYSTEM MOLPRO  ***
                         Copyright, University College Cardiff Consultants Limited, 2008

                                    Version 2010.1 linked May 16 2016 07:17:05


 **********************************************************************************************************************************
 LABEL *   Optimization of h2o_3                                                         
 Linux-4.4.3/n021(x86_64) 64 bit mpp version                                             DATE: 21-Mar-24          TIME: 05:01:37  
 **********************************************************************************************************************************

 SHA1:             9e8077add272b0f3cad6f7df79ec5211205f459d
 **********************************************************************************************************************************

 THRESHOLDS:

 ZERO    =  1.00D-12  ONEINT  =  1.00D-16  TWOINT  =  1.00D-16  PREFAC  =  1.00D-14  LOCALI  =  1.00D-09  EORDER  =  1.00D-04
 ENERGY  =  1.00D-12  ETEST   =  0.00D+00  EDENS   =  0.00D+00  THRDEDEF=  1.00D-06  GRADIENT=  1.00D-02  STEP    =  1.00D-03
 ORBITAL =  1.00D-10  CIVEC   =  1.00D-05  COEFF   =  1.00D-04  PRINTCI =  5.00D-02  PUNCHCI =  9.90D+01  OPTGRAD =  1.00D-06
 OPTENERG=  1.00D-06  OPTSTEP =  3.00D-04  THRGRAD =  1.00D-10  COMPRESS=  1.00D-13  VARMIN  =  1.00D-07  VARMAX  =  1.00D-03
 THRDOUB =  0.00D+00  THRDIV  =  1.00D-05  THRRED  =  1.00D-07  THRPSP  =  1.00D+00  THRDC   =  1.00D-10  THRCS   =  1.00D-10
 THRNRM  =  1.00D-08  THREQ   =  0.00D+00  THRDE   =  1.00D+00  THRREF  =  1.00D-05  SPARFAC =  1.00D+00  THRDLP  =  1.00D-07
 THRDIA  =  1.00D-10  THRDLS  =  1.00D-07  THRGPS  =  0.00D+00  THRKEX  =  0.00D+00  THRDIS  =  2.00D-01  THRVAR  =  1.00D-10
 THRLOC  =  1.00D-06  THRGAP  =  1.00D-06  THRLOCT = -1.00D+00  THRGAPT = -1.00D+00  THRORB  =  1.00D-06  THRMLTP =  0.00D+00
 THRCPQCI=  1.00D-10  KEXTA   =  0.00D+00  THRCOARS=  0.00D+00  SYMTOL  =  1.00D-06  GRADTOL =  1.00D-06  THROVL  =  1.00D-08
 THRORTH =  1.00D-08  GRID    =  1.00D-06  GRIDMAX =  1.00D-03  DTMAX   =  0.00D+00

 SETTING GEOMTYP        =    XYZ
 ZUNIT=BOHR
 

 Variable memory set to 1000000000 words,  buffer space   230000 words

 SETTING BASIS          =    AUG-CC-PVDZ,H=CC-PVDZ


 Recomputing integrals since basis changed


 Using spherical harmonics

 Library entry C      S aug-cc-pVDZ          selected for orbital group  1
 Library entry C      P aug-cc-pVDZ          selected for orbital group  1
 Library entry C      D aug-cc-pVDZ          selected for orbital group  1
 Library entry H      S cc-pVDZ              selected for orbital group  2
 Library entry H      P cc-pVDZ              selected for orbital group  2
 Library entry N      S aug-cc-pVDZ          selected for orbital group  3
 Library entry N      P aug-cc-pVDZ          selected for orbital group  3
 Library entry N      D aug-cc-pVDZ          selected for orbital group  3

1PROGRAM * SEWARD (Integral evaluation for generally contracted gaussian basis sets)     Author: Roland Lindh, 1990

 Geometry written to block  1 of record 700


 Point group  C1  



 ATOMIC COORDINATES

 NR  ATOM    CHARGE       X              Y              Z

   1  C       6.00    0.916366902    1.405897006   -2.272791136
   2  C       6.00    0.740727498    2.709679726    0.018716256
   3  C       6.00    0.999412079    1.406268593    2.302713722
   4  C       6.00    1.432137886   -1.200977404    2.295205097
   5  C       6.00    1.608504617   -2.504268694    0.003739854
   6  C       6.00    1.349878527   -1.200633919   -2.280053486
   7  H       1.00    0.706769291    2.415134583   -4.042573776
   8  H       1.00    0.389982330    4.727224323    0.031819347
   9  H       1.00    0.856945998    2.422450066    4.075428076
  10  H       1.00    1.630003401   -2.211275914    4.066147932
  11  H       1.00    1.941744305   -4.525257811   -0.009356278
  12  H       1.00    1.485254159   -2.217431748   -4.053256776
  13  N       7.00   -5.441947824   -0.355992978   -0.070462457
  14  H       1.00   -5.598635064   -1.571050704   -1.547072696
  15  H       1.00   -6.075038592   -1.318587534    1.463730597
  16  H       1.00   -3.561173645   -0.072967190    0.198143401

 Bond lengths in Bohr (Angstrom)

 1-2  2.642291564  1-6  2.642345271  1-7  2.048077694  2-3  2.642431214  2-8  2.047847666
     ( 1.398240475)     ( 1.398268896)     ( 1.083796038)     ( 1.398314375)     ( 1.083674313)

  3- 4  2.642922567   3- 9  2.048276727   4- 5  2.642061008   4-10  2.048436566   5- 6  2.642359382
       ( 1.398574387)       ( 1.083901362)       ( 1.398118470)       ( 1.083985945)       ( 1.398276363)

  5-11  2.048320582   6-12  2.048524907  13-14  1.918669843  13-15  1.918629857  13-16  1.920823838
       ( 1.083924569)       ( 1.084032693)       ( 1.015316353)       ( 1.015295193)       ( 1.016456198)

 Bond angles

  1- 2- 3  119.98067262   1- 2- 8  120.20274457   1- 6- 5  120.02353239   1- 6-12  120.18870581

  2-1-6  120.00199113   2-1-7  119.96358318   2-3-4  120.01167878   2-3-9  119.77172789

  3- 2- 8  119.81490578   3- 4- 5  120.00136303   3- 4-10  119.99378370   4- 3- 9  120.21626160

  4- 5- 6  119.98073411   4- 5-11  120.20590410   5- 4-10  120.00484855   5- 6-12  119.78774726

  6- 1- 7  120.03368579   6- 5-11  119.81324779  14-13-15  105.70745252  14-13-16  106.31353427

 15-13-16  106.57055735

 NUCLEAR CHARGE:                   52
 NUMBER OF PRIMITIVE AOS:         322
 NUMBER OF SYMMETRY AOS:          308
 NUMBER OF CONTRACTIONS:          206   ( 206A   )
 NUMBER OF CORE ORBITALS:           7   (   7A   )
 NUMBER OF VALENCE ORBITALS:       37   (  37A   )


 NUCLEAR REPULSION ENERGY  273.70150658


 Eigenvalues of metric

         1 0.861E-05 0.184E-04 0.228E-04 0.531E-04 0.640E-04 0.646E-04 0.107E-03 0.107E-03


 Contracted 2-electron integrals neglected if value below      1.0D-16
 AO integral compression algorithm  1   Integral accuracy      1.0D-16

     1892.155 MB (compressed) written to integral file ( 94.5%)

     Node minimum: 1892.155 MB, node maximum: 1892.155 MB


 NUMBER OF SORTED TWO-ELECTRON INTEGRALS:  227303181.     BUFFER LENGTH:  32768
 NUMBER OF SEGMENTS:  15  SEGMENT LENGTH:   15999503      RECORD LENGTH: 524288

 Memory used in sort:      16.56 MW

 SORT1 READ   250229914. AND WROTE   226406593. INTEGRALS IN    654 RECORDS. CPU TIME:     2.63 SEC, REAL TIME:     5.46 SEC
 SORT2 READ   226406593. AND WROTE   227303181. INTEGRALS IN   7218 RECORDS. CPU TIME:     1.49 SEC, REAL TIME:     2.48 SEC

 FILE SIZES:   FILE 1:  1743.1 MBYTE,  FILE 4:  2743.1 MBYTE,   TOTAL:   4486.2 MBYTE

 OPERATOR DM      FOR CENTER  0  COORDINATES:    0.000000    0.000000    0.000000


 **********************************************************************************************************************************
 DATASETS  * FILE   NREC   LENGTH (MB)   RECORD NAMES
              1      19     1743.62       500      610      700      900      950      970     1000      129      960     1100   
                                          VAR    BASINP    GEOM    SYMINP    ZMAT    AOBASIS   BASIS     P2S    ABASIS      S 
                                         1400     1410     1200     1210     1080     1600     1650     1300     1700   
                                           T        V       H0       H01     AOSYM     SMH    MOLCAS    ERIS     OPER   

 PROGRAMS   *        TOTAL       INT
 CPU TIMES  *        15.76     15.70
 REAL TIME  *        22.64 SEC
 DISK USED  *         6.38 GB      
 GA USED    *         0.01 MB       (max)       0.00 MB       (current)
 **********************************************************************************************************************************

1PROGRAM * RHF-SCF (CLOSED SHELL)       Authors: W. Meyer, H.-J. Werner


 NUMBER OF ELECTRONS:      26+   26-    SPACE SYMMETRY=1    SPIN SYMMETRY: Singlet 
 CONVERGENCE THRESHOLDS:    1.00E-10 (Density)    1.00E-13 (Energy)
 MAX. NUMBER OF ITERATIONS:      200
 INTERPOLATION TYPE:            DIIS
 INTERPOLATION STEPS:              2 (START)      1 (STEP)
 LEVEL SHIFTS:                  0.00 (CLOSED)  0.00 (OPEN) 



 Orbital guess generated from atomic densities. Full valence occupancy:   44

 Molecular orbital dump at record        2100.2

 ITERATION    DDIFF          GRAD             ENERGY        2-EL.EN.            DIPOLE MOMENTS         DIIS
    1      0.000D+00      0.000D+00      -286.85322921    740.868922    0.51536   -0.77046    0.13578    0
    2      0.000D+00      0.322D-02      -286.92078965    735.074544    0.43296   -0.38554    0.06204    1
    3      0.826D-02      0.133D-02      -286.93012212    737.708362    0.44908   -0.52457    0.09202    2
    4      0.218D-02      0.381D-03      -286.93134051    737.188234    0.44772   -0.49772    0.08424    3
    5      0.783D-03      0.526D-04      -286.93136432    737.177062    0.45357   -0.50785    0.08822    4
    6      0.135D-03      0.177D-04      -286.93136676    737.191939    0.45242   -0.50233    0.08613    5
    7      0.511D-04      0.554D-05      -286.93136703    737.188869    0.45307   -0.50455    0.08688    6
    8      0.149D-04      0.129D-05      -286.93136705    737.187866    0.45322   -0.50420    0.08674    7
    9      0.417D-05      0.541D-06      -286.93136706    737.188323    0.45325   -0.50429    0.08677    7
   10      0.148D-05      0.143D-06      -286.93136706    737.188272    0.45326   -0.50429    0.08677    7
   11      0.517D-06      0.411D-07      -286.93136706    737.188258    0.45327   -0.50429    0.08677    7
   12      0.142D-06      0.174D-07      -286.93136706    737.188272    0.45326   -0.50429    0.08677    8
   13      0.612D-07      0.760D-08      -286.93136706    737.188266    0.45326   -0.50429    0.08677    8
   14      0.337D-07      0.363D-08      -286.93136706    737.188269    0.45326   -0.50429    0.08677    8
   15      0.201D-07      0.138D-08      -286.93136706    737.188268    0.45326   -0.50429    0.08677    8
   16      0.717D-08      0.458D-09      -286.93136706    737.188268    0.45326   -0.50429    0.08677    9
   17      0.213D-08      0.125D-09      -286.93136706    737.188268    0.45326   -0.50429    0.08677    9
   18      0.416D-09      0.378D-10      -286.93136706    737.188268    0.45326   -0.50429    0.08677    8
   19      0.216D-09      0.140D-10      -286.93136706    737.188268    0.45326   -0.50429    0.08677    8
   20      0.174D-09      0.678D-11      -286.93136706    737.188268    0.45326   -0.50429    0.08677    8
   21      0.175D-09      0.372D-11      -286.93136706    737.188268    0.45326   -0.50429    0.08677    9
   22      0.123D-09      0.117D-11      -286.93136706    737.188268    0.45326   -0.50429    0.08677    9
   23      0.130D-09      0.734D-12      -286.93136706    737.188268    0.45326   -0.50429    0.08677    9
   24      0.790D-10      0.558D-12      -286.93136706    737.188268    0.45326   -0.50429    0.08677    9
   25      0.509D-10      0.597D-12      -286.93136706    737.188268    0.45326   -0.50429    0.08677    9
   26      0.475D-10      0.657D-12      -286.93136706    737.188268    0.45326   -0.50429    0.08677    9
   27      0.270D-10      0.548D-12      -286.93136706    737.188268    0.45326   -0.50429    0.08677    9
   28      0.392D-10      0.485D-12      -286.93136706    737.188268    0.45326   -0.50429    0.08677    9
   29      0.210D-10      0.407D-12      -286.93136706    737.188268    0.45326   -0.50429    0.08677    9
   30      0.179D-10      0.518D-12      -286.93136706    737.188268    0.45326   -0.50429    0.08677    9
   31      0.131D-10      0.493D-12      -286.93136706    737.188268    0.45326   -0.50429    0.08677    9
   32      0.136D-10      0.434D-12      -286.93136706    737.188268    0.45326   -0.50429    0.08677    9
   33      0.146D-10      0.477D-12      -286.93136706    737.188268    0.45326   -0.50429    0.08677    9
   34      0.124D-10      0.530D-12      -286.93136706    737.188268    0.45326   -0.50429    0.08677    9
   35      0.147D-10      0.543D-12      -286.93136706    737.188268    0.45326   -0.50429    0.08677    9
   36      0.153D-10      0.419D-12      -286.93136706    737.188268    0.45326   -0.50429    0.08677    9
   37      0.156D-10      0.555D-12      -286.93136706    737.188268    0.45326   -0.50429    0.08677    9
   38      0.187D-10      0.516D-12      -286.93136706    737.188268    0.45326   -0.50429    0.08677    9
   39      0.285D-10      0.456D-12      -286.93136706    737.188268    0.45326   -0.50429    0.08677    9
   40      0.153D-10      0.471D-12      -286.93136706    737.188268    0.45326   -0.50429    0.08677    9
   41      0.213D-10      0.407D-12      -286.93136706    737.188268    0.45326   -0.50429    0.08677    9
   42      0.166D-10      0.451D-12      -286.93136706    737.188268    0.45326   -0.50429    0.08677    9
   43      0.157D-10      0.472D-12      -286.93136706    737.188268    0.45326   -0.50429    0.08677    9
   44      0.116D-10      0.654D-12      -286.93136706    737.188268    0.45326   -0.50429    0.08677    9
   45      0.149D-10      0.425D-12      -286.93136706    737.188268    0.45326   -0.50429    0.08677    9
   46      0.155D-10      0.562D-12      -286.93136706    737.188268    0.45326   -0.50429    0.08677    9
   47      0.855D-11      0.551D-12      -286.93136706    737.188268    0.45326   -0.50429    0.08677    9
   48      0.573D-11      0.476D-12      -286.93136706    737.188268    0.45326   -0.50429    0.08677    9
   49      0.145D-10      0.452D-12      -286.93136706    737.188268    0.45326   -0.50429    0.08677    9
   50      0.201D-10      0.468D-12      -286.93136706    737.188268    0.45326   -0.50429    0.08677    9
   51      0.120D-10      0.495D-12      -286.93136706    737.188268    0.45326   -0.50429    0.08677    0

 Final occupancy:  26

 !RHF STATE 1.1 Energy               -286.931367056190
 Nuclear energy                       273.70150658
 One-electron energy                 -929.22700753
 Two-electron energy                  368.59413390
 Virial quotient                       -1.00146531
 !RHF STATE 1.1 Dipole moment           0.45326412    -0.50429421     0.08676992
 Dipole moment /Debye                   1.15200702    -1.28170407     0.22053269

 Orbital energies:

         1.1          2.1          3.1          4.1          5.1          6.1          7.1          8.1          9.1         10.1
    -15.535020   -11.250619   -11.250008   -11.249649   -11.248790   -11.248639   -11.247811    -1.157485    -1.125576    -1.022100

        11.1         12.1         13.1         14.1         15.1         16.1         17.1         18.1         19.1         20.1
     -1.021870    -0.830848    -0.830290    -0.714484    -0.650434    -0.623911    -0.612577    -0.608889    -0.593556    -0.593433

        21.1         22.1         23.1         24.1         25.1         26.1         27.1         28.1
     -0.504926    -0.500381    -0.499705    -0.413440    -0.342953    -0.341978     0.063893     0.066447


 **********************************************************************************************************************************
 DATASETS  * FILE   NREC   LENGTH (MB)   RECORD NAMES
              1      19     1743.62       500      610      700      900      950      970     1000      129      960     1100   
                                          VAR    BASINP    GEOM    SYMINP    ZMAT    AOBASIS   BASIS     P2S    ABASIS      S 
                                         1400     1410     1200     1210     1080     1600     1650     1300     1700   
                                           T        V       H0       H01     AOSYM     SMH    MOLCAS    ERIS     OPER   

              2       3        1.40       700     1000     2100   
                                         GEOM     BASIS     RHF  

 PROGRAMS   *        TOTAL       RHF       INT
 CPU TIMES  *       106.41     90.65     15.70
 REAL TIME  *       134.55 SEC
 DISK USED  *         6.38 GB      
 GA USED    *         0.01 MB       (max)       0.00 MB       (current)
 **********************************************************************************************************************************


1PROGRAM * CCSD (Closed-shell coupled cluster)     Authors: C. Hampel, H.-J. Werner, 1991, M. Deegan, P.J. Knowles, 1992


 Convergence thresholds:  THRVAR = 1.00D-08  THRDEN = 1.00D-12

 CCSD(T)     terms to be evaluated (factor= 1.000)


 Number of core orbitals:           7 (   7 )
 Number of closed-shell orbitals:  19 (  19 )
 Number of external orbitals:     180 ( 180 )

 Molecular orbitals read from record     2100.2  Type=RHF/CANONICAL (state 1.1)

 Number of N-1 electron functions:              19
 Number of N-2 electron functions:             190
 Number of singly external CSFs:              3420
 Number of doubly external CSFs:           5849910
 Total number of CSFs:                     5853331

 Length of J-op  integral file:               0.00 MB
 Length of K-op  integral file:               2.96 MB
 Length of 3-ext integral record:             0.00 MB

 Memory could be reduced to 140.12 Mwords without degradation in triples

 Integral transformation finished. Total CPU:  16.83 sec, npass=  1  Memory used: 101.90 MW

 Reference energy:                   -286.93136706

 MP2 singlet pair energy:              -0.62063081
 MP2 triplet pair energy:              -0.38983135
 MP2 correlation energy:               -1.01046216
 MP2 total energy:                   -287.94182921

 SCS-MP2 correlation energy:           -0.98731870   (PS=  1.200000  PT=  0.333333)
 SCS-MP2 total energy:               -287.91868575

 ITER.      SQ.NORM     CORR.ENERGY   TOTAL ENERGY   ENERGY CHANGE        DEN1      VAR(S)    VAR(P)  DIIS     TIME
   1      1.38488193    -1.05475521  -287.98612227    -0.04429306    -0.01721469  0.36D-02  0.80D-02  1  1    69.23
   2      1.41439419    -1.06061787  -287.99198493    -0.00586266    -0.02705244  0.63D-04  0.10D-02  2  2   121.98
   3      1.42352537    -1.06071365  -287.99208071    -0.00009578    -0.00464370  0.27D-04  0.84D-04  3  3   174.84
   4      1.42746289    -1.06088240  -287.99224945    -0.00016875    -0.00121427  0.22D-05  0.11D-04  4  4   227.65
   5      1.42867647    -1.06091334  -287.99228040    -0.00003095    -0.00027319  0.27D-06  0.13D-05  5  5   280.50
   6      1.42897892    -1.06090311  -287.99227017     0.00001023    -0.00004345  0.23D-07  0.79D-07  6  6   333.36
   7      1.42901964    -1.06090474  -287.99227180    -0.00000163    -0.00000102  0.35D-08  0.82D-08  6  2   386.28
   8      1.42902882    -1.06090460  -287.99227166     0.00000014    -0.00000117  0.76D-09  0.76D-09  6  1   439.18
   9      1.42902865    -1.06090474  -287.99227179    -0.00000014     0.00000123  0.21D-09  0.92D-10  6  4   492.35
  10      1.42902985    -1.06090475  -287.99227180    -0.00000001    -0.00000018  0.57D-10  0.15D-10  6  3   545.17
  11      1.42902980    -1.06090476  -287.99227182    -0.00000002     0.00000013  0.14D-10  0.37D-11  6  5   598.07
  12      1.42902975    -1.06090477  -287.99227182    -0.00000000     0.00000003  0.15D-11  0.10D-11  6  6   651.31
  13      1.42902958    -1.06090477  -287.99227183    -0.00000000     0.00000006  0.69D-13  0.20D-12  6  2   704.56
  14      1.42902948    -1.06090477  -287.99227183    -0.00000000     0.00000003  0.81D-14  0.40D-13  6  1   757.52
  15      1.42902942    -1.06090477  -287.99227183    -0.00000000     0.00000001  0.89D-15  0.54D-14  6  3   810.40
  16      1.42902940    -1.06090477  -287.99227183    -0.00000000     0.00000000  0.12D-15  0.37D-15  6  4   863.29
  17      1.42902939    -1.06090477  -287.99227183    -0.00000000     0.00000000  0.31D-16  0.44D-16  6  5   916.27
  18      1.42902939    -1.06090477  -287.99227183    -0.00000000     0.00000000  0.81D-17  0.70D-17  6  6   969.58
  19      1.42902939    -1.06090477  -287.99227183    -0.00000000     0.00000000  0.24D-17  0.76D-18  6  2  1022.60
  20      1.42902939    -1.06090477  -287.99227183    -0.00000000     0.00000000  0.75D-18  0.18D-18  6  1  1075.47
  21      1.42902939    -1.06090477  -287.99227183    -0.00000000     0.00000000  0.30D-18  0.78D-19  6  3  1128.32
  22      1.42902939    -1.06090477  -287.99227183    -0.00000000     0.00000000  0.12D-18  0.37D-19  6  4  1181.27
  23      1.42902939    -1.06090477  -287.99227183    -0.00000000     0.00000000  0.52D-19  0.20D-19  6  6  1234.23

 Norm of t1 vector:      0.08385555      S-energy:    -0.00000000      T1 diagnostic:  0.00961889
                                                                       D1 diagnostic:  0.02619165

 Doubles amplitudes (print threshold =  0.500E-01):

         I         J         SYM. A    SYM. B    A         B      T(IJ, AB)

        18        18         1         1         6         6     -0.05272886
        19        19         1         1         7         7     -0.05590232


 Total CPU time for triples:   1024.78 sec


 RESULTS
 =======

  Reference energy                   -286.931367056188
  CCSD singlet pair energy             -0.711155621882
  CCSD triplet pair energy             -0.349749149748
  CCSD correlation energy              -1.060904771630

  Triples (T) contribution             -0.045602022064
  Total correlation energy             -1.106506793694

  CCSD total energy                  -287.992271827818
  CCSD[T] energy                     -288.038744035070
  CCSD-T energy                      -288.037485315603
 !CCSD(T) total energy               -288.037873849882

 Timing summary (sec):

 STEP                 CPU(USER)    SYS     CPU(TOT)    WALL
 Transformation         17.45      0.96     18.41     18.41
 CCSD iterations      1216.81     12.77   1229.58   1230.56
 Triples              1024.78     11.15   1035.93   1035.96

 Program statistics:

 Available memory in ccsd:               999998456
 Min. memory needed in ccsd:              14392275
 Max. memory used in ccsd:                19775697
 Max. memory used in cckext:              16737545 (23 integral passes)



 **********************************************************************************************************************************
 DATASETS  * FILE   NREC   LENGTH (MB)   RECORD NAMES
              1      20     2287.22       500      610      700      900      950      970     1000      129      960     1100   
                                          VAR    BASINP    GEOM    SYMINP    ZMAT    AOBASIS   BASIS     P2S    ABASIS      S 
                                         1400     1410     1200     1210     1080     1600     1650     1300     1700     1380   
                                           T        V       H0       H01     AOSYM     SMH    MOLCAS    ERIS     OPER     JKOP   

              2       3        1.40       700     1000     2100   
                                         GEOM     BASIS     RHF  

 PROGRAMS   *        TOTAL   CCSD(T)       RHF       INT
 CPU TIMES  *      2365.47   2259.06     90.65     15.70
 REAL TIME  *      2421.01 SEC
 DISK USED  *         6.38 GB      
 GA USED    *         0.01 MB       (max)       0.00 MB       (current)
 **********************************************************************************************************************************

        CCSD(T)         RHF-SCF 
   -288.03787385   -286.93136706
 **********************************************************************************************************************************
 Variable memory released
