
 Primary working directories    : /tmp/943420.499.gen6.q
 Secondary working directories  : /tmp/943420.499.gen6.q
 Wavefunction directory         : /home/vulcan/mel64643/wfu/
 Main file repository           : /tmp/943420.499.gen6.q/

 ARCHNAME  : Linux/x86_64
 FC        : /opt/intel/compilers_and_libraries_2016.1.150/linux/bin/intel64/ifort
 FCVERSION : 16.0.1
 BLASLIB   : -mkl
 id        : ccgc

 Nodes     nprocs
 n092         1
 ga_uses_ma=false, calling ma_init with nominal heap.
 GA-space will be limited to   8.0 MW (determined by -G option)

 Using customized tuning parameters: mindgm=10; mindgv=16; mindgc=4; mindgr=1; noblas=0; mincuda=1000; minvec=7
 default implementation of scratch files=df  

 ***,Optimization of nh3_nitrosmethane
 memory,1000,m
 gthresh,energy=1.0d-12,orbital=1.0d-10,oneint=1.0d-16,twoint=1.0d-16,optgrad=1.0d-6,compress=1.0d-13
 geomtyp=xyz
 
 bohr
 geometry = {
  N   -5.2167112794   -0.1837193607   -0.0015154125
  H   -6.2938858689    0.2229945948   -1.5360560064
  H   -3.7636243181    1.0725020627    0.0003360328
  H   -6.2955811819    0.2204330665    1.5325108982
  H   -0.9275885250   -2.3963288214    0.0001677018
  H    1.8679792858   -3.4341226969   -1.6669672722
  H    1.8880351667   -3.4351705757    1.6663482739
  C    1.1328250603   -2.4693828162    0.0044775557
  N    2.2669818956    0.0968043175   -0.0015396561
  O    0.7056882550    1.7830472384    0.0022378847
 }
 
 basis=aug-cc-pvdz, H=cc-pvdz
 {rhf;maxit,200}
 {ccsd(t);maxit,200}

 Variables initialized (661), CPU time= 0.00 sec
 Commands  initialized (458), CPU time= 0.00 sec, 486 directives.
 Default parameters read. Elapsed time= 0.05 sec

 Checking input...
 Passed
1


                                         ***  PROGRAM SYSTEM MOLPRO  ***
                         Copyright, University College Cardiff Consultants Limited, 2008

                                    Version 2010.1 linked May 16 2016 07:17:05


 **********************************************************************************************************************************
 LABEL *   Optimization of nh3_nitrosmethane                                             
 Linux-4.4.3/n092(x86_64) 64 bit mpp version                                             DATE: 26-Oct-23          TIME: 08:18:19  
 **********************************************************************************************************************************

 SHA1:             9e8077add272b0f3cad6f7df79ec5211205f459d
 **********************************************************************************************************************************

 THRESHOLDS:

 ZERO    =  1.00D-12  ONEINT  =  1.00D-16  TWOINT  =  1.00D-16  PREFAC  =  1.00D-14  LOCALI  =  1.00D-09  EORDER  =  1.00D-04
 ENERGY  =  1.00D-12  ETEST   =  0.00D+00  EDENS   =  0.00D+00  THRDEDEF=  1.00D-06  GRADIENT=  1.00D-02  STEP    =  1.00D-03
 ORBITAL =  1.00D-10  CIVEC   =  1.00D-05  COEFF   =  1.00D-04  PRINTCI =  5.00D-02  PUNCHCI =  9.90D+01  OPTGRAD =  1.00D-06
 OPTENERG=  1.00D-06  OPTSTEP =  3.00D-04  THRGRAD =  1.00D-10  COMPRESS=  1.00D-13  VARMIN  =  1.00D-07  VARMAX  =  1.00D-03
 THRDOUB =  0.00D+00  THRDIV  =  1.00D-05  THRRED  =  1.00D-07  THRPSP  =  1.00D+00  THRDC   =  1.00D-10  THRCS   =  1.00D-10
 THRNRM  =  1.00D-08  THREQ   =  0.00D+00  THRDE   =  1.00D+00  THRREF  =  1.00D-05  SPARFAC =  1.00D+00  THRDLP  =  1.00D-07
 THRDIA  =  1.00D-10  THRDLS  =  1.00D-07  THRGPS  =  0.00D+00  THRKEX  =  0.00D+00  THRDIS  =  2.00D-01  THRVAR  =  1.00D-10
 THRLOC  =  1.00D-06  THRGAP  =  1.00D-06  THRLOCT = -1.00D+00  THRGAPT = -1.00D+00  THRORB  =  1.00D-06  THRMLTP =  0.00D+00
 THRCPQCI=  1.00D-10  KEXTA   =  0.00D+00  THRCOARS=  0.00D+00  SYMTOL  =  1.00D-06  GRADTOL =  1.00D-06  THROVL  =  1.00D-08
 THRORTH =  1.00D-08  GRID    =  1.00D-06  GRIDMAX =  1.00D-03  DTMAX   =  0.00D+00

 SETTING GEOMTYP        =    XYZ
 ZUNIT=BOHR
 

 Variable memory set to 1000000000 words,  buffer space   230000 words

 SETTING BASIS          =    AUG-CC-PVDZ,H=CC-PVDZ


 Recomputing integrals since basis changed


 Using spherical harmonics

 Library entry N      S aug-cc-pVDZ          selected for orbital group  1
 Library entry N      P aug-cc-pVDZ          selected for orbital group  1
 Library entry N      D aug-cc-pVDZ          selected for orbital group  1
 Library entry H      S cc-pVDZ              selected for orbital group  2
 Library entry H      P cc-pVDZ              selected for orbital group  2
 Library entry C      S aug-cc-pVDZ          selected for orbital group  3
 Library entry C      P aug-cc-pVDZ          selected for orbital group  3
 Library entry C      D aug-cc-pVDZ          selected for orbital group  3
 Library entry O      S aug-cc-pVDZ          selected for orbital group  5
 Library entry O      P aug-cc-pVDZ          selected for orbital group  5
 Library entry O      D aug-cc-pVDZ          selected for orbital group  5

1PROGRAM * SEWARD (Integral evaluation for generally contracted gaussian basis sets)     Author: Roland Lindh, 1990

 Geometry written to block  1 of record 700


 Point group  C1  



 ATOMIC COORDINATES

 NR  ATOM    CHARGE       X              Y              Z

   1  N       7.00   -5.216711279   -0.183719361   -0.001515413
   2  H       1.00   -6.293885869    0.222994595   -1.536056006
   3  H       1.00   -3.763624318    1.072502063    0.000336033
   4  H       1.00   -6.295581182    0.220433066    1.532510898
   5  H       1.00   -0.927588525   -2.396328821    0.000167702
   6  H       1.00    1.867979286   -3.434122697   -1.666967272
   7  H       1.00    1.888035167   -3.435170576    1.666348274
   8  C       6.00    1.132825060   -2.469382816    0.004477556
   9  N       7.00    2.266981896    0.096804318   -0.001539656
  10  O       8.00    0.705688255    1.783047238    0.002237885

 Bond lengths in Bohr (Angstrom)

 1-2  1.918472354  1-3  1.920822066  1-4  1.918472354  5-8  2.061712784  6-8  2.065164058
     ( 1.015211846)     ( 1.016455260)     ( 1.015211846)     ( 1.091011417)     ( 1.092837752)

  7- 8  2.065164058   8- 9  2.805648649   9-10  2.298057286
       ( 1.092837752)       ( 1.484685321)       ( 1.216079541)

 Bond angles

  2-1-3  106.67095378   2-1-4  106.21107417   3-1-4  106.67095379   5-8-6  111.75356309

  5-8-7  112.56384403   5-8-9  111.81259323   6-8-7  107.61715628   6-8-9  106.35819341

  7- 8- 9  106.35819140   8- 9-10  113.35946296

 NUCLEAR CHARGE:                   34
 NUMBER OF PRIMITIVE AOS:         190
 NUMBER OF SYMMETRY AOS:          182
 NUMBER OF CONTRACTIONS:          122   ( 122A   )
 NUMBER OF CORE ORBITALS:           4   (   4A   )
 NUMBER OF VALENCE ORBITALS:       22   (  22A   )


 NUCLEAR REPULSION ENERGY  117.41020738


 Eigenvalues of metric

         1 0.465E-03 0.142E-02 0.195E-02 0.432E-02 0.523E-02 0.750E-02 0.799E-02 0.856E-02


 Contracted 2-electron integrals neglected if value below      1.0D-16
 AO integral compression algorithm  1   Integral accuracy      1.0D-16

     235.405 MB (compressed) written to integral file ( 87.5%)

     Node minimum: 235.405 MB, node maximum: 235.405 MB


 NUMBER OF SORTED TWO-ELECTRON INTEGRALS:   28151256.     BUFFER LENGTH:  32768
 NUMBER OF SEGMENTS:   2  SEGMENT LENGTH:   15997996      RECORD LENGTH: 524288

 Memory used in sort:      16.56 MW

 SORT1 READ    33603451. AND WROTE    27853166. INTEGRALS IN     81 RECORDS. CPU TIME:     0.30 SEC, REAL TIME:     0.46 SEC
 SORT2 READ    27853166. AND WROTE    28151256. INTEGRALS IN    898 RECORDS. CPU TIME:     0.26 SEC, REAL TIME:     0.38 SEC

 FILE SIZES:   FILE 1:   202.4 MBYTE,  FILE 4:   339.8 MBYTE,   TOTAL:    542.2 MBYTE

 OPERATOR DM      FOR CENTER  0  COORDINATES:    0.000000    0.000000    0.000000


 **********************************************************************************************************************************
 DATASETS  * FILE   NREC   LENGTH (MB)   RECORD NAMES
              1      19      202.59       500      610      700      900      950      970     1000      129      960     1100   
                                          VAR    BASINP    GEOM    SYMINP    ZMAT    AOBASIS   BASIS     P2S    ABASIS      S 
                                         1400     1410     1200     1210     1080     1600     1650     1300     1700   
                                           T        V       H0       H01     AOSYM     SMH    MOLCAS    ERIS     OPER   

 PROGRAMS   *        TOTAL       INT
 CPU TIMES  *         1.84      1.81
 REAL TIME  *         2.42 SEC
 DISK USED  *       778.37 MB      
 GA USED    *         0.00 MB       (max)       0.00 MB       (current)
 **********************************************************************************************************************************

1PROGRAM * RHF-SCF (CLOSED SHELL)       Authors: W. Meyer, H.-J. Werner


 NUMBER OF ELECTRONS:      17+   17-    SPACE SYMMETRY=1    SPIN SYMMETRY: Singlet 
 CONVERGENCE THRESHOLDS:    1.00E-10 (Density)    1.00E-13 (Energy)
 MAX. NUMBER OF ITERATIONS:      200
 INTERPOLATION TYPE:            DIIS
 INTERPOLATION STEPS:              2 (START)      1 (STEP)
 LEVEL SHIFTS:                  0.00 (CLOSED)  0.00 (OPEN) 



 Orbital guess generated from atomic densities. Full valence occupancy:   26

 Molecular orbital dump at record        2100.2

 ITERATION    DDIFF          GRAD             ENERGY        2-EL.EN.            DIPOLE MOMENTS         DIIS
    1      0.000D+00      0.000D+00      -224.96501174    393.139950    0.05943   -0.57685   -0.00199    0
    2      0.000D+00      0.710D-02      -225.02577313    392.766179   -0.59035   -0.37537    0.00096    1
    3      0.132D-01      0.496D-02      -225.05965411    393.311458   -0.24552   -0.55557   -0.00002    2
    4      0.572D-02      0.994D-03      -225.06192242    393.146575   -0.32344   -0.45825    0.00019    3
    5      0.146D-02      0.393D-03      -225.06234643    393.158390   -0.32114   -0.48772    0.00024    4
    6      0.638D-03      0.952D-04      -225.06238875    393.185536   -0.32651   -0.48491    0.00027    5
    7      0.217D-03      0.363D-04      -225.06239480    393.169505   -0.32813   -0.48501    0.00028    6
    8      0.864D-04      0.148D-04      -225.06239580    393.175988   -0.32914   -0.48493    0.00028    7
    9      0.331D-04      0.633D-05      -225.06239601    393.174820   -0.32941   -0.48463    0.00028    8
   10      0.184D-04      0.193D-05      -225.06239603    393.174534   -0.32950   -0.48445    0.00029    8
   11      0.562D-05      0.650D-06      -225.06239604    393.174640   -0.32951   -0.48436    0.00029    8
   12      0.184D-05      0.199D-06      -225.06239604    393.174604   -0.32951   -0.48434    0.00029    8
   13      0.689D-06      0.645D-07      -225.06239604    393.174598   -0.32951   -0.48433    0.00029    8
   14      0.170D-06      0.353D-07      -225.06239604    393.174601   -0.32951   -0.48433    0.00029    9
   15      0.900D-07      0.132D-07      -225.06239604    393.174601   -0.32951   -0.48433    0.00029    8
   16      0.406D-07      0.982D-08      -225.06239604    393.174601   -0.32951   -0.48433    0.00029    8
   17      0.803D-07      0.393D-08      -225.06239604    393.174601   -0.32951   -0.48433    0.00029    8
   18      0.346D-07      0.134D-08      -225.06239604    393.174601   -0.32951   -0.48433    0.00029    9
   19      0.776D-08      0.298D-09      -225.06239604    393.174601   -0.32951   -0.48433    0.00029    9
   20      0.954D-09      0.104D-09      -225.06239604    393.174601   -0.32951   -0.48433    0.00029    9
   21      0.270D-09      0.333D-10      -225.06239604    393.174601   -0.32951   -0.48433    0.00029    9
   22      0.862D-10      0.117D-10      -225.06239604    393.174601   -0.32951   -0.48433    0.00029    9
   23      0.305D-10      0.519D-11      -225.06239604    393.174601   -0.32951   -0.48433    0.00029    0

 Final occupancy:  17

 !RHF STATE 1.1 Energy               -225.062396036316
 Nuclear energy                       117.41020738
 One-electron energy                 -539.05990375
 Two-electron energy                  196.58730034
 Virial quotient                       -1.00219564
 !RHF STATE 1.1 Dipole moment          -0.32951403    -0.48433200     0.00028891
 Dipole moment /Debye                  -0.83748626    -1.23096852     0.00073428

 Orbital energies:

         1.1          2.1          3.1          4.1          5.1          6.1          7.1          8.1          9.1         10.1
    -20.640203   -15.714578   -15.548971   -11.271012    -1.514973    -1.140133    -1.076018    -0.862239    -0.691200    -0.675853

        11.1         12.1         13.1         14.1         15.1         16.1         17.1         18.1         19.1
     -0.636091    -0.623971    -0.623319    -0.555484    -0.534339    -0.428271    -0.405997     0.077602     0.084571


 **********************************************************************************************************************************
 DATASETS  * FILE   NREC   LENGTH (MB)   RECORD NAMES
              1      19      202.59       500      610      700      900      950      970     1000      129      960     1100   
                                          VAR    BASINP    GEOM    SYMINP    ZMAT    AOBASIS   BASIS     P2S    ABASIS      S 
                                         1400     1410     1200     1210     1080     1600     1650     1300     1700   
                                           T        V       H0       H01     AOSYM     SMH    MOLCAS    ERIS     OPER   

              2       3        0.72       700     1000     2100   
                                         GEOM     BASIS     RHF  

 PROGRAMS   *        TOTAL       RHF       INT
 CPU TIMES  *         6.54      4.70      1.81
 REAL TIME  *         7.59 SEC
 DISK USED  *       778.37 MB      
 GA USED    *         0.00 MB       (max)       0.00 MB       (current)
 **********************************************************************************************************************************


1PROGRAM * CCSD (Closed-shell coupled cluster)     Authors: C. Hampel, H.-J. Werner, 1991, M. Deegan, P.J. Knowles, 1992


 Convergence thresholds:  THRVAR = 1.00D-08  THRDEN = 1.00D-12

 CCSD(T)     terms to be evaluated (factor= 1.000)


 Number of core orbitals:           4 (   4 )
 Number of closed-shell orbitals:  13 (  13 )
 Number of external orbitals:     105 ( 105 )

 Molecular orbitals read from record     2100.2  Type=RHF/CANONICAL (state 1.1)

 Number of N-1 electron functions:              13
 Number of N-2 electron functions:              91
 Number of singly external CSFs:              1365
 Number of doubly external CSFs:            932295
 Total number of CSFs:                      933661

 Length of J-op  integral file:               0.00 MB
 Length of K-op  integral file:               1.06 MB
 Length of 3-ext integral record:             0.00 MB

 Memory could be reduced to 20.68 Mwords without degradation in triples

 Integral transformation finished. Total CPU:   1.00 sec, npass=  1  Memory used:  15.40 MW

 Reference energy:                   -225.06239604

 MP2 singlet pair energy:              -0.44860003
 MP2 triplet pair energy:              -0.26464056
 MP2 correlation energy:               -0.71324059
 MP2 total energy:                   -225.77563663

 SCS-MP2 correlation energy:           -0.70298527   (PS=  1.200000  PT=  0.333333)
 SCS-MP2 total energy:               -225.76538131

 ITER.      SQ.NORM     CORR.ENERGY   TOTAL ENERGY   ENERGY CHANGE        DEN1      VAR(S)    VAR(P)  DIIS     TIME
   1      1.24159910    -0.74722829  -225.80962433    -0.03398770    -0.01022362  0.52D-02  0.49D-02  1  1     3.29
   2      1.26337896    -0.75031619  -225.81271223    -0.00308790    -0.02110868  0.17D-03  0.87D-03  2  2     5.59
   3      1.27338293    -0.75102104  -225.81341708    -0.00070485    -0.00461133  0.12D-03  0.62D-04  3  3     7.89
   4      1.27753688    -0.75098651  -225.81338254     0.00003453    -0.00137306  0.11D-04  0.11D-04  4  4    10.21
   5      1.27918996    -0.75100453  -225.81340057    -0.00001802    -0.00036055  0.19D-05  0.17D-05  5  5    12.51
   6      1.27964985    -0.75097372  -225.81336975     0.00003081    -0.00005485  0.15D-06  0.33D-06  6  6    14.82
   7      1.27975044    -0.75097091  -225.81336695     0.00000280    -0.00000376  0.33D-07  0.87D-07  6  2    17.14
   8      1.27977420    -0.75097167  -225.81336770    -0.00000075    -0.00000033  0.43D-08  0.20D-07  6  1    19.46
   9      1.27977449    -0.75097105  -225.81336709     0.00000061     0.00000435  0.26D-08  0.32D-08  6  4    21.78
  10      1.27977682    -0.75097184  -225.81336788    -0.00000079    -0.00000121  0.52D-09  0.44D-09  6  3    24.08
  11      1.27977474    -0.75097205  -225.81336809    -0.00000021     0.00000043  0.17D-09  0.78D-10  6  5    26.39
  12      1.27977323    -0.75097213  -225.81336816    -0.00000007     0.00000032  0.39D-10  0.17D-10  6  6    28.70
  13      1.27977162    -0.75097225  -225.81336828    -0.00000012     0.00000040  0.56D-11  0.39D-11  6  1    31.02
  14      1.27977093    -0.75097226  -225.81336829    -0.00000001     0.00000018  0.13D-11  0.56D-12  6  2    33.32
  15      1.27977068    -0.75097226  -225.81336830    -0.00000001     0.00000004  0.26D-12  0.91D-13  6  4    35.64
  16      1.27977062    -0.75097227  -225.81336831    -0.00000000     0.00000001  0.10D-12  0.27D-13  6  3    37.94
  17      1.27977060    -0.75097227  -225.81336831     0.00000000    -0.00000000  0.43D-13  0.78D-14  6  6    40.26
  18      1.27977059    -0.75097227  -225.81336831    -0.00000000    -0.00000000  0.24D-13  0.30D-14  6  5    42.56
  19      1.27977060    -0.75097227  -225.81336831     0.00000000    -0.00000000  0.14D-13  0.16D-14  6  1    44.88
  20      1.27977060    -0.75097227  -225.81336831     0.00000000     0.00000000  0.70D-14  0.10D-14  6  2    47.20
  21      1.27977060    -0.75097227  -225.81336831     0.00000000     0.00000000  0.18D-14  0.50D-15  6  3    49.49
  22      1.27977060    -0.75097227  -225.81336830     0.00000000    -0.00000000  0.24D-15  0.12D-15  6  4    51.80
  23      1.27977060    -0.75097227  -225.81336831    -0.00000000    -0.00000000  0.40D-16  0.34D-16  6  5    54.10
  24      1.27977060    -0.75097227  -225.81336831    -0.00000000    -0.00000000  0.96D-17  0.81D-17  6  1    56.40
  25      1.27977060    -0.75097227  -225.81336831     0.00000000    -0.00000000  0.92D-18  0.11D-17  6  6    58.71

 Norm of t1 vector:      0.11114512      S-energy:     0.00000000      T1 diagnostic:  0.01541305
                                                                       D1 diagnostic:  0.04945258

 Doubles amplitudes (print threshold =  0.500E-01):

         I         J         SYM. A    SYM. B    A         B      T(IJ, AB)

        11        11         1         1         2         2     -0.05742805


 Total CPU time for triples:     34.68 sec


 RESULTS
 =======

  Reference energy                   -225.062396036316
  CCSD singlet pair energy             -0.516897877402
  CCSD triplet pair energy             -0.234074391308
  CCSD correlation energy              -0.750972268709

  Triples (T) contribution             -0.026301815646
  Total correlation energy             -0.777274084355

  CCSD total energy                  -225.813368305025
  CCSD[T] energy                     -225.841278068082
  CCSD-T energy                      -225.839178219706
 !CCSD(T) total energy               -225.839670120671

 Timing summary (sec):

 STEP                 CPU(USER)    SYS     CPU(TOT)    WALL
 Transformation          1.04      0.11      1.15      1.16
 CCSD iterations        57.68      1.61     59.29     59.35
 Triples                34.68      0.67     35.35     35.37

 Program statistics:

 Available memory in ccsd:               999999224
 Min. memory needed in ccsd:               2510565
 Max. memory used in ccsd:                 3320127
 Max. memory used in cckext:               2903072 (25 integral passes)



 **********************************************************************************************************************************
 DATASETS  * FILE   NREC   LENGTH (MB)   RECORD NAMES
              1      20      279.98       500      610      700      900      950      970     1000      129      960     1100   
                                          VAR    BASINP    GEOM    SYMINP    ZMAT    AOBASIS   BASIS     P2S    ABASIS      S 
                                         1400     1410     1200     1210     1080     1600     1650     1300     1700     1380   
                                           T        V       H0       H01     AOSYM     SMH    MOLCAS    ERIS     OPER     JKOP   

              2       3        0.72       700     1000     2100   
                                         GEOM     BASIS     RHF  

 PROGRAMS   *        TOTAL   CCSD(T)       RHF       INT
 CPU TIMES  *        99.94     93.40      4.70      1.81
 REAL TIME  *       103.50 SEC
 DISK USED  *       778.37 MB      
 GA USED    *         0.00 MB       (max)       0.00 MB       (current)
 **********************************************************************************************************************************

        CCSD(T)         RHF-SCF 
   -225.83967012   -225.06239604
 **********************************************************************************************************************************
 Variable memory released
