
 Primary working directories    : /tmp/870712.30.gen4.q
 Secondary working directories  : /tmp/870712.30.gen4.q
 Wavefunction directory         : /home/vulcan/lo21740/wfu/
 Main file repository           : /tmp/870712.30.gen4.q/

 ARCHNAME  : Linux/x86_64
 FC        : /opt/intel/compilers_and_libraries_2016.1.150/linux/bin/intel64/ifort
 FCVERSION : 16.0.1
 BLASLIB   : -mkl
 id        : ccgc

 Nodes     nprocs
 n040         1
 ga_uses_ma=false, calling ma_init with nominal heap.
 GA-space will be limited to   8.0 MW (determined by -G option)

 Using customized tuning parameters: mindgm=10; mindgv=16; mindgc=4; mindgr=1; noblas=0; mincuda=1000; minvec=7
 default implementation of scratch files=df  

 ***,Optimization of formic acid
 memory,1000,m
 gthresh,energy=1.0d-12,orbital=1.0d-10,oneint=1.0d-16,twoint=1.0d-16,optgrad=1.0d-6,compress=1.0d-13
 geomtyp=xyz
 
 bohr
 geometry = {
  C   -3.5020233584   -0.8310079510   -0.0000003855
  O   -3.0974216183    1.6216500356   -0.0000236940
  O   -1.8887226028   -2.4814616798   -0.0000143961
  H   -5.5165534222   -1.2726866090   -0.0000022098
  H   -1.2419796840    1.9540178411    0.0000406854
  C    3.5020233584    0.8310079510   -0.0000003855
  O    3.0974216183   -1.6216500356   -0.0000236940
  O    1.8887226028    2.4814616798   -0.0000143961
  H    5.5165534222    1.2726866090   -0.0000022098
  H    1.2419796840   -1.9540178411    0.0000406854
 }
 
 basis=AVTZ
 {rhf;maxit,200}
 {mp2}

 Variables initialized (661), CPU time= 0.00 sec
 Commands  initialized (458), CPU time= 0.01 sec, 486 directives.
 Default parameters read. Elapsed time= 0.06 sec

 Checking input...
 Passed
1


                                         ***  PROGRAM SYSTEM MOLPRO  ***
                         Copyright, University College Cardiff Consultants Limited, 2008

                                    Version 2010.1 linked May 16 2016 07:17:05


 **********************************************************************************************************************************
 LABEL *   Optimization of formic acid                                                   
 Linux-4.4.3/n040(x86_64) 64 bit mpp version                                             DATE: 12-May-23          TIME: 16:04:39  
 **********************************************************************************************************************************

 SHA1:             9e8077add272b0f3cad6f7df79ec5211205f459d
 **********************************************************************************************************************************

 THRESHOLDS:

 ZERO    =  1.00D-12  ONEINT  =  1.00D-16  TWOINT  =  1.00D-16  PREFAC  =  1.00D-14  LOCALI  =  1.00D-09  EORDER  =  1.00D-04
 ENERGY  =  1.00D-12  ETEST   =  0.00D+00  EDENS   =  0.00D+00  THRDEDEF=  1.00D-06  GRADIENT=  1.00D-02  STEP    =  1.00D-03
 ORBITAL =  1.00D-10  CIVEC   =  1.00D-05  COEFF   =  1.00D-04  PRINTCI =  5.00D-02  PUNCHCI =  9.90D+01  OPTGRAD =  1.00D-06
 OPTENERG=  1.00D-06  OPTSTEP =  3.00D-04  THRGRAD =  1.00D-10  COMPRESS=  1.00D-13  VARMIN  =  1.00D-07  VARMAX  =  1.00D-03
 THRDOUB =  0.00D+00  THRDIV  =  1.00D-05  THRRED  =  1.00D-07  THRPSP  =  1.00D+00  THRDC   =  1.00D-10  THRCS   =  1.00D-10
 THRNRM  =  1.00D-08  THREQ   =  0.00D+00  THRDE   =  1.00D+00  THRREF  =  1.00D-05  SPARFAC =  1.00D+00  THRDLP  =  1.00D-07
 THRDIA  =  1.00D-10  THRDLS  =  1.00D-07  THRGPS  =  0.00D+00  THRKEX  =  0.00D+00  THRDIS  =  2.00D-01  THRVAR  =  1.00D-10
 THRLOC  =  1.00D-06  THRGAP  =  1.00D-06  THRLOCT = -1.00D+00  THRGAPT = -1.00D+00  THRORB  =  1.00D-06  THRMLTP =  0.00D+00
 THRCPQCI=  1.00D-10  KEXTA   =  0.00D+00  THRCOARS=  0.00D+00  SYMTOL  =  1.00D-06  GRADTOL =  1.00D-06  THROVL  =  1.00D-08
 THRORTH =  1.00D-08  GRID    =  1.00D-06  GRIDMAX =  1.00D-03  DTMAX   =  0.00D+00

 SETTING GEOMTYP        =    XYZ
 ZUNIT=BOHR
 

 Variable memory set to 1000000000 words,  buffer space   230000 words

 SETTING BASIS          =    AVTZ


 Recomputing integrals since basis changed


 Using spherical harmonics

 Library entry C      S aug-cc-pVTZ          selected for orbital group  1
 Library entry C      P aug-cc-pVTZ          selected for orbital group  1
 Library entry C      D aug-cc-pVTZ          selected for orbital group  1
 Library entry C      F aug-cc-pVTZ          selected for orbital group  1
 Library entry O      S aug-cc-pVTZ          selected for orbital group  2
 Library entry O      P aug-cc-pVTZ          selected for orbital group  2
 Library entry O      D aug-cc-pVTZ          selected for orbital group  2
 Library entry O      F aug-cc-pVTZ          selected for orbital group  2
 Library entry H      S aug-cc-pVTZ          selected for orbital group  3
 Library entry H      P aug-cc-pVTZ          selected for orbital group  3
 Library entry H      D aug-cc-pVTZ          selected for orbital group  3

1PROGRAM * SEWARD (Integral evaluation for generally contracted gaussian basis sets)     Author: Roland Lindh, 1990

 Geometry written to block  1 of record 700


 Point group  C2  



 ATOMIC COORDINATES

 NR  ATOM    CHARGE       X              Y              Z

   1  C       6.00   -3.502023358   -0.831007951   -0.000000386
   2  C       6.00    3.502023358    0.831007951   -0.000000386
   3  O       8.00   -3.097421618    1.621650036   -0.000023694
   4  O       8.00    3.097421618   -1.621650036   -0.000023694
   5  O       8.00   -1.888722603   -2.481461680   -0.000014396
   6  O       8.00    1.888722603    2.481461680   -0.000014396
   7  H       1.00   -5.516553422   -1.272686609   -0.000002210
   8  H       1.00    5.516553422    1.272686609   -0.000002210
   9  H       1.00   -1.241979684    1.954017841    0.000040685
  10  H       1.00    1.241979684   -1.954017841    0.000040685

 Bond lengths in Bohr (Angstrom)

 1-3  2.485806462  1-5  2.307972452  1-7  2.062380036  2-4  2.485806462  2-6  2.307972452
     ( 1.315432126)     ( 1.221326421)     ( 1.091364512)     ( 1.315432126)     ( 1.221326421)

  2- 8  2.062380036   3- 9  1.884975632   4-10  1.884975632
       ( 1.091364512)       ( 0.997486144)       ( 0.997486144)

 Bond angles

  1- 3- 9  109.52316846   2- 4-10  109.52316846   3- 1- 5  126.28478826   3- 1- 7  111.73364301

  4-2-6  126.28478826   4-2-8  111.73364301   5-1-7  121.98156872   6-2-8  121.98156872

 NUCLEAR CHARGE:                   48
 NUMBER OF PRIMITIVE AOS:         510
 NUMBER OF SYMMETRY AOS:          448
 NUMBER OF CONTRACTIONS:          368   ( 184A   + 184B   )
 NUMBER OF CORE ORBITALS:           6   (   3A   +   3B   )
 NUMBER OF VALENCE ORBITALS:       28   (  14A   +  14B   )


 NUCLEAR REPULSION ENERGY  235.51306028


 Eigenvalues of metric

         1 0.342E-04 0.625E-04 0.168E-03 0.232E-03 0.275E-03 0.340E-03 0.532E-03 0.640E-03
         2 0.371E-04 0.559E-04 0.145E-03 0.227E-03 0.262E-03 0.380E-03 0.518E-03 0.660E-03


 Contracted 2-electron integrals neglected if value below      1.0D-16
 AO integral compression algorithm  1   Integral accuracy      1.0D-16

     8623.751 MB (compressed) written to integral file ( 77.2%)

     Node minimum: 8623.751 MB, node maximum: 8623.751 MB


 NUMBER OF SORTED TWO-ELECTRON INTEGRALS: 1158738620.     BUFFER LENGTH:  32768
 NUMBER OF SEGMENTS:  37  SEGMENT LENGTH:   31999960      RECORD LENGTH: 524288

 Memory used in sort:      32.56 MW

 SORT1 READ  1395541424. AND WROTE  1151291030. INTEGRALS IN   3313 RECORDS. CPU TIME:    18.73 SEC, REAL TIME:    82.38 SEC
 SORT2 READ  1151291030. AND WROTE  1158738620. INTEGRALS IN  32897 RECORDS. CPU TIME:    12.02 SEC, REAL TIME:    40.32 SEC

 FILE SIZES:   FILE 1:  7355.1 MBYTE,  FILE 4: 13895.8 MBYTE,   TOTAL:  21250.8 MBYTE

 OPERATOR DM      FOR CENTER  0  COORDINATES:    0.000000    0.000000    0.000000


 **********************************************************************************************************************************
 DATASETS  * FILE   NREC   LENGTH (MB)   RECORD NAMES
              1      19     7355.89       500      610      700      900      950      970     1000      129      960     1100   
                                          VAR    BASINP    GEOM    SYMINP    ZMAT    AOBASIS   BASIS     P2S    ABASIS      S 
                                         1400     1410     1200     1210     1080     1600     1650     1300     1700   
                                           T        V       H0       H01     AOSYM     SMH    MOLCAS    ERIS     OPER   

 PROGRAMS   *        TOTAL       INT
 CPU TIMES  *        81.54     81.48
 REAL TIME  *       186.56 SEC
 DISK USED  *        29.88 GB      
 GA USED    *         0.00 MB       (max)       0.00 MB       (current)
 **********************************************************************************************************************************

1PROGRAM * RHF-SCF (CLOSED SHELL)       Authors: W. Meyer, H.-J. Werner


 NUMBER OF ELECTRONS:      24+   24-
 CONVERGENCE THRESHOLDS:    1.00E-10 (Density)    1.00E-13 (Energy)
 MAX. NUMBER OF ITERATIONS:      200
 INTERPOLATION TYPE:            DIIS
 INTERPOLATION STEPS:              2 (START)      1 (STEP)
 LEVEL SHIFTS:                  0.00 (CLOSED)  0.00 (OPEN) 



 Orbital guess generated from atomic densities. Full valence occupancy:   17  17

 Molecular orbital dump at record        2100.2

 Initial alpha occupancy:  12  12
 Initial beta  occupancy:  12  12
 Wave function symmetry:    1

 ITERATION    DDIFF          GRAD             ENERGY        2-EL.EN.            DIPOLE MOMENTS         DIIS
    1      0.000D+00      0.000D+00      -377.56743933    746.989568    0.00000    0.00000    0.00010    0
    2      0.000D+00      0.454D-02      -377.65518680    743.898595    0.00000    0.00000    0.00003    1
    3      0.742D-02      0.297D-02      -377.70456619    746.248583    0.00000    0.00000    0.00005    2
    4      0.289D-02      0.400D-03      -377.70614683    745.894572    0.00000    0.00000    0.00006    3
    5      0.603D-03      0.176D-03      -377.70643110    745.934493    0.00000    0.00000    0.00006    4
    6      0.234D-03      0.507D-04      -377.70647849    745.980226    0.00000    0.00000    0.00006    5
    7      0.876D-04      0.218D-04      -377.70648946    745.961311    0.00000    0.00000    0.00006    6
    8      0.476D-04      0.711D-05      -377.70649083    745.967579    0.00000    0.00000    0.00006    7
    9      0.184D-04      0.231D-05      -377.70649096    745.966183    0.00000    0.00000    0.00006    8
   10      0.571D-05      0.676D-06      -377.70649097    745.966381    0.00000    0.00000    0.00006    8
   11      0.185D-05      0.214D-06      -377.70649098    745.966344    0.00000    0.00000    0.00006    8
   12      0.594D-06      0.387D-07      -377.70649098    745.966334    0.00000    0.00000    0.00006    8
   13      0.926D-07      0.139D-07      -377.70649098    745.966338    0.00000    0.00000    0.00006    8
   14      0.297D-07      0.367D-08      -377.70649098    745.966338    0.00000    0.00000    0.00006    7
   15      0.694D-08      0.117D-08      -377.70649098    745.966338    0.00000    0.00000    0.00006    7
   16      0.205D-08      0.517D-09      -377.70649098    745.966338    0.00000    0.00000    0.00006    8
   17      0.900D-09      0.163D-09      -377.70649098    745.966338    0.00000    0.00000    0.00006    8
   18      0.270D-09      0.414D-10      -377.70649098    745.966338    0.00000    0.00000    0.00006    8
   19      0.759D-10      0.173D-10      -377.70649098    745.966338    0.00000    0.00000    0.00006    8
   20      0.387D-10      0.578D-11      -377.70649098    745.966338    0.00000    0.00000    0.00006    8
   21      0.281D-10      0.183D-11      -377.70649098    745.966338    0.00000    0.00000    0.00006    8
   22      0.273D-10      0.588D-12      -377.70649098    745.966338    0.00000    0.00000    0.00006    8
   23      0.146D-10      0.290D-12      -377.70649098    745.966338    0.00000    0.00000    0.00006    8
   24      0.914D-11      0.226D-12      -377.70649098    745.966338    0.00000    0.00000    0.00006    9
   25      0.671D-11      0.239D-12      -377.70649098    745.966338    0.00000    0.00000    0.00006    0

 Final occupancy:  12  12

 !RHF STATE 1.1 Energy               -377.706490975877
 Nuclear energy                       235.51306028
 One-electron energy                 -986.20272023
 Two-electron energy                  372.98316897
 Virial quotient                       -1.00180392
 !RHF STATE 1.1 Dipole moment           0.00000000     0.00000000     0.00005502
 Dipole moment /Debye                   0.00000000     0.00000000     0.00013985

 Orbital energies:

         1.1          2.1          3.1          4.1          5.1          6.1          7.1          8.1          9.1         10.1
    -20.617781   -20.577222   -11.408612    -1.485657    -1.373831    -0.919625    -0.734046    -0.695977    -0.645688    -0.621942

        11.1         12.1         13.1         14.1
     -0.498543    -0.495927     0.029625     0.054823

         1.2          2.2          3.2          4.2          5.2          6.2          7.2          8.2          9.2         10.2
    -20.617780   -20.577223   -11.408612    -1.472994    -1.387718    -0.884139    -0.769429    -0.725311    -0.635381    -0.581426

        11.2         12.2         13.2         14.2
     -0.507446    -0.475879     0.033649     0.056818


 **********************************************************************************************************************************
 DATASETS  * FILE   NREC   LENGTH (MB)   RECORD NAMES
              1      19     7355.89       500      610      700      900      950      970     1000      129      960     1100   
                                          VAR    BASINP    GEOM    SYMINP    ZMAT    AOBASIS   BASIS     P2S    ABASIS      S 
                                         1400     1410     1200     1210     1080     1600     1650     1300     1700   
                                           T        V       H0       H01     AOSYM     SMH    MOLCAS    ERIS     OPER   

              2       3        1.84       700     1000     2100   
                                         GEOM     BASIS     RHF  

 PROGRAMS   *        TOTAL       RHF       INT
 CPU TIMES  *       261.13    179.59     81.48
 REAL TIME  *       385.12 SEC
 DISK USED  *        29.88 GB      
 GA USED    *         0.00 MB       (max)       0.00 MB       (current)
 **********************************************************************************************************************************


1PROGRAM * MP2 (Closed-shell)     Authors: C. Hampel, H.-J. Werner, 1991, M. Deegan, P.J. Knowles, 1992


 Convergence thresholds:  THRVAR = 1.00D-08  THRDEN = 1.00D-12

 Number of core orbitals:           6 (   3   3 )
 Number of closed-shell orbitals:  18 (   9   9 )
 Number of external orbitals:     344 ( 172 172 )

 Molecular orbitals read from record     2100.2  Type=RHF/CANONICAL (state 1.1)

 Number of N-1 electron functions:              18
 Number of N-2 electron functions:             171
 Number of singly external CSFs:              3096
 Number of doubly external CSFs:           9588312
 Total number of CSFs:                     9591409

 Length of J-op  integral file:               0.00 MB
 Length of K-op  integral file:               4.71 MB

 Integral transformation finished. Total CPU:  17.39 sec, npass=  1  Memory used:  14.22 MW

 Memory needed for MP2:                      0.33 MW

 SCS-MP2 correlation energy:           -1.263788314249   (PS=  1.200000  PT=  0.333333)
 SCS-MP2 total energy:               -378.970279290124


  Reference energy                   -377.706490975875
  MP2 singlet pair energy              -0.794079723503
  MP2 triplet pair energy              -0.499648895429
  MP2 correlation energy               -1.293728618932

 !MP2 total energy                   -379.000219594807


 **********************************************************************************************************************************
 DATASETS  * FILE   NREC   LENGTH (MB)   RECORD NAMES
              1      20     7496.68       500      610      700      900      950      970     1000      129      960     1100   
                                          VAR    BASINP    GEOM    SYMINP    ZMAT    AOBASIS   BASIS     P2S    ABASIS      S 
                                         1400     1410     1200     1210     1080     1600     1650     1300     1700     1380   
                                           T        V       H0       H01     AOSYM     SMH    MOLCAS    ERIS     OPER     JKOP   

              2       3        1.84       700     1000     2100   
                                         GEOM     BASIS     RHF  

 PROGRAMS   *        TOTAL       MP2       RHF       INT
 CPU TIMES  *       279.27     18.13    179.59     81.48
 REAL TIME  *       404.33 SEC
 DISK USED  *        29.88 GB      
 GA USED    *         0.00 MB       (max)       0.00 MB       (current)
 **********************************************************************************************************************************

        MP2             RHF-SCF 
   -379.00021959   -377.70649098
 **********************************************************************************************************************************
 Variable memory released
