
    -----------------------------------------------------------------------
          Psi4: An Open-Source Ab Initio Electronic Structure Package
                               Psi4 1.4a2.dev629 

                         Git: Rev {master} 2938fc2 dirty


    D. G. A. Smith, L. A. Burns, A. C. Simmonett, R. M. Parrish,
    M. C. Schieber, R. Galvelis, P. Kraus, H. Kruse, R. Di Remigio,
    A. Alenaizan, A. M. James, S. Lehtola, J. P. Misiewicz, M. Scheurer,
    R. A. Shaw, J. B. Schriber, Y. Xie, Z. L. Glick, D. A. Sirianni,
    J. S. O'Brien, J. M. Waldrop, A. Kumar, E. G. Hohenstein,
    B. P. Pritchard, B. R. Brooks, H. F. Schaefer III, A. Yu. Sokolov,
    K. Patkowski, A. E. DePrince III, U. Bozkaya, R. A. King,
    F. A. Evangelista, J. M. Turney, T. D. Crawford, C. D. Sherrill,
    J. Chem. Phys. 152(18) 184108 (2020). https://doi.org/10.1063/5.0006002

                            Additional Code Authors
    E. T. Seidl, C. L. Janssen, E. F. Valeev, M. L. Leininger,
    J. F. Gonthier, R. M. Richard, H. R. McAlexander, M. Saitow, X. Wang,
    P. Verma, and M. H. Lechner

             Previous Authors, Complete List of Code Contributors,
                       and Citations for Specific Modules
    https://github.com/psi4/psi4/blob/master/codemeta.json
    https://github.com/psi4/psi4/graphs/contributors
    http://psicode.org/psi4manual/master/introduction.html#citing-psifour

    -----------------------------------------------------------------------


    Psi4 started on: Sunday, 31 October 2021 04:30PM

    Process ID: 13620
    Host:       n058
    PSIDATADIR: /opt/psi/4/master/share/psi4
    Memory:     500.0 MiB
    Threads:    1
    
  ==> Input File <==

--------------------------------------------------------------------------
import os
memory 14 GB 
 
molecule {
 C    2.7656932467    0.0169167047   -0.0000407522
 C   -0.0492868223   -0.2947718845    0.0007052847
 O   -1.2654155865   -2.1800132740    0.0044189418
 F   -1.1973524227    1.9934006809   -0.0051726615
 H    3.6635203065   -1.8303617994   -0.0038747383
 H    3.3295263806    1.0924952641   -1.6619253253
 H    3.3291991977    1.0872422382    1.6658892708
units bohr
}

basis {

assign 6-31g_2dfp_

[ 6-31g_2dfp_ ]

spherical

!----------------------------------------------------------------------
! Basis Set Exchange
! Version v0.8.13
! https://www.basissetexchange.org
!----------------------------------------------------------------------
!   Basis set: 6-31G(2df,p)
! Description: 6-31G(2df,p)
!        Role: orbital
!     Version: 0  (Data from the original Basis Set Exchange)
!----------------------------------------------------------------------


****
H     0
S    3   1.00
     18.7311370              0.03349460
      2.8253937              0.23472695
      0.6401217              0.81375733
S    1   1.00
      0.1612778              1.00000000
P    1   1.00
      1.5000000              1.0000000
P    1   1.00
      0.3750000              1.0000000
****
B     0
S    6   1.00
   2068.8823000              0.0018663
    310.6495700              0.0142515
     70.6830330              0.0695516
     19.8610800              0.2325729
      6.2993048              0.4670787
      2.1270270              0.3634314
SP   3   1.00
      4.7279710             -0.1303938              0.0745976
      1.1903377             -0.1307889              0.3078467
      0.3594117              1.1309444              0.7434568
SP   1   1.00
      0.1267512              1.0000000              1.0000000
D    1   1.00
      0.8020000              1.0000000
D    1   1.00
      0.2005000              1.0000000
F    1   1.00
      0.5000000              1.0000000
****
C     0
S    6   1.00
   3047.5249000              0.0018347
    457.3695100              0.0140373
    103.9486900              0.0688426
     29.2101550              0.2321844
      9.2866630              0.4679413
      3.1639270              0.3623120
SP   3   1.00
      7.8682724             -0.1193324              0.0689991
      1.8812885             -0.1608542              0.3164240
      0.5442493              1.1434564              0.7443083
SP   1   1.00
      0.1687144              1.0000000              1.0000000
D    1   1.00
      1.2520000              1.0000000
D    1   1.00
      0.3130000              1.0000000
F    1   1.00
      0.8000000              1.0000000
****
N     0
S    6   1.00
   4173.5110000              0.0018348
    627.4579000              0.0139950
    142.9021000              0.0685870
     40.2343300              0.2322410
     12.8202100              0.4690700
      4.3904370              0.3604550
SP   3   1.00
     11.6263580             -0.1149610              0.0675800
      2.7162800             -0.1691180              0.3239070
      0.7722180              1.1458520              0.7408950
SP   1   1.00
      0.2120313              1.0000000              1.0000000
D    1   1.00
      1.8260000              1.0000000
D    1   1.00
      0.4565000              1.0000000
F    1   1.00
      1.0000000              1.0000000
****
O     0
S    6   1.00
   5484.6717000              0.0018311
    825.2349500              0.0139501
    188.0469600              0.0684451
     52.9645000              0.2327143
     16.8975700              0.4701930
      5.7996353              0.3585209
SP   3   1.00
     15.5396160             -0.1107775              0.0708743
      3.5999336             -0.1480263              0.3397528
      1.0137618              1.1307670              0.7271586
SP   1   1.00
      0.2700058              1.0000000              1.0000000
D    1   1.00
      2.5840000              1.0000000
D    1   1.00
      0.6460000              1.0000000
F    1   1.00
      1.4000000              1.0000000
****
F     0
S    6   1.00
   7001.7130900              0.0018196169
   1051.3660900              0.0139160796
    239.2856900              0.0684053245
     67.3974453              0.233185760
     21.5199573              0.471267439
      7.40310130             0.356618546
SP   3   1.00
     20.8479528             -0.108506975            0.0716287243
      4.80830834            -0.146451658            0.3459121030
      1.34406986             1.128688580            0.7224699570
SP   1   1.00
      0.358151393            1.0000000              1.0000000
D    1   1.00
      3.5000000              1.0000000
D    1   1.00
      0.8750000              1.0000000
F    1   1.00
      1.8500000              1.0000000
****
Al     0
S    6   1.00
  13983.1000000              0.00194267
   2098.7500000              0.0148599
    477.7050000              0.0728494
    134.3600000              0.2468300
     42.8709000              0.4872580
     14.5189000              0.3234960
SP   6   1.00
    239.6680000             -0.00292619             0.00460285
     57.4419000             -0.0374080              0.0331990
     18.2859000             -0.1144870              0.1362820
      6.5991400              0.1156350              0.3304760
      2.4904900              0.6125950              0.4491460
      0.9445400              0.3937990              0.2657040
SP   3   1.00
      1.2779000             -0.2276060             -0.0175130
      0.3975900              0.00144583             0.2445330
      0.1600950              1.0927900              0.8049340
SP   1   1.00
      0.0556577              1.0000000              1.0000000
D    1   1.00
      0.6500000              1.0000000
D    1   1.00
      0.1625000              1.0000000
F    1   1.00
      0.2500000              1.0000000
****
Si     0
S    6   1.00
  16115.9000000              0.00195948
   2425.5800000              0.01492880
    553.8670000              0.07284780
    156.3400000              0.24613000
     50.0683000              0.48591400
     17.0178000              0.32500200
SP   6   1.00
    292.7180000             -0.00278094             0.00443826
     69.8731000             -0.03571460             0.03266790
     22.3363000             -0.11498500             0.13472100
      8.1503900              0.09356340             0.32867800
      3.1345800              0.60301700             0.44964000
      1.2254300              0.41895900             0.26137200
SP   3   1.00
      1.7273800             -0.24463000            -0.01779510
      0.5729220              0.00431572             0.25353900
      0.2221920              1.09818000             0.80066900
SP   1   1.00
      0.0778369              1.00000000             1.00000000
D    1   1.00
      0.9000000              1.0000000
D    1   1.00
      0.2250000              1.0000000
F    1   1.00
      0.3200000              1.0000000
****
P     0
S    6   1.00
  19413.3000000              0.0018516
   2909.4200000              0.0142062
    661.3640000              0.0699995
    185.7590000              0.2400790
     59.1943000              0.4847620
     20.0310000              0.3352000
SP   6   1.00
    339.4780000             -0.00278217             0.00456462
     81.0101000             -0.0360499              0.03369360
     25.8780000             -0.1166310              0.13975500
      9.4522100              0.0968328              0.33936200
      3.6656600              0.6144180              0.45092100
      1.4674600              0.4037980              0.23858600
SP   3   1.00
      2.1562300             -0.2529230             -0.01776530
      0.7489970              0.0328517              0.27405800
      0.2831450              1.0812500              0.78542100
SP   1   1.00
      0.0998317              1.0000000              1.00000000
D    1   1.00
      1.1000000              1.0000000
D    1   1.00
      0.2750000              1.0000000
F    1   1.00
      0.4500000              1.0000000
****
S     0
S    6   1.00
  21917.1000000              0.0018690
   3301.4900000              0.0142300
    754.1460000              0.0696960
    212.7110000              0.2384870
     67.9896000              0.4833070
     23.0515000              0.3380740
SP   6   1.00
    423.7350000             -0.0023767              0.0040610
    100.7100000             -0.0316930              0.0306810
     32.1599000             -0.1133170              0.1304520
     11.8079000              0.0560900              0.3272050
      4.6311000              0.5922550              0.4528510
      1.8702500              0.4550060              0.2560420
SP   3   1.00
      2.6158400             -0.2503740             -0.0145110
      0.9221670              0.0669570              0.3102630
      0.3412870              1.0545100              0.7544830
SP   1   1.00
      0.1171670              1.0000000              1.0000000
D    1   1.00
      1.3000000              1.0000000
D    1   1.00
      0.3250000              1.0000000
F    1   1.00
      0.5500000              1.0000000
****
Cl     0
S    6   1.00
  25180.1000000              0.0018330
   3780.3500000              0.0140340
    860.4740000              0.0690970
    242.1450000              0.2374520
     77.3349000              0.4830340
     26.2470000              0.3398560
SP   6   1.00
    491.7650000             -0.0022974              0.0039894
    116.9840000             -0.0307140              0.0303180
     37.4153000             -0.1125280              0.1298800
     13.7834000              0.0450160              0.3279510
      5.4521500              0.5893530              0.4535270
      2.2258800              0.4652060              0.2521540
SP   3   1.00
      3.1864900             -0.2518300             -0.0142990
      1.1442700              0.0615890              0.3235720
      0.4203770              1.0601800              0.7435070
SP   1   1.00
      0.1426570              1.0000000              1.0000000
D    1   1.00
      1.5000000              1.0000000
D    1   1.00
      0.3750000              1.0000000
F    1   1.00
      0.7000000              1.0000000
****
}


set {
reference rhf                          
freeze_core true
e_convergence 10                       
d_convergence 10                      
dft_spherical_points 1202
dft_radial_points 99
}

e = energy('b3lyp')

print_out('Grab this energy {0}'.format(e))
--------------------------------------------------------------------------

  Memory set to  13.039 GiB by Python driver.

Scratch directory: /tmp/

*** tstart() called on n058
*** at Sun Oct 31 16:30:32 2021

   => Loading Basis Set <=

    Name: ANONYMOUS0AFACB3F
    Role: ORBITAL
    Keyword: BASIS
    atoms 1-2 entry C          line    48 inputblock 6-31g_2dfp_ 
    atoms 3   entry O          line    90 inputblock 6-31g_2dfp_ 
    atoms 4   entry F          line   111 inputblock 6-31g_2dfp_ 
    atoms 5-7 entry H          line    15 inputblock 6-31g_2dfp_ 


         ---------------------------------------------------------
                                   SCF
               by Justin Turney, Rob Parrish, Andy Simmonett
                          and Daniel G. A. Smith
                              RKS Reference
                        1 Threads,  13351 MiB Core
         ---------------------------------------------------------

  ==> Geometry <==

    Molecular point group: c1
    Full point group: C1

    Geometry (in Bohr), charge = 0, multiplicity = 1:

       Center              X                  Y                   Z               Mass       
    ------------   -----------------  -----------------  -----------------  -----------------
         C            2.765501418566     0.016591776016     0.000274120847    12.000000000000
         C           -0.049478650434    -0.295096813184     0.001020157747    12.000000000000
         O           -1.265607414634    -2.180338202684     0.004733814847    15.994914619570
         F           -1.197544250834     1.993075752216    -0.004857788453    18.998403162730
         H            3.663328478366    -1.830686728084    -0.003559865253     1.007825032230
         H            3.329334552466     1.092170335416    -1.661610452253     1.007825032230
         H            3.329007369566     1.086917309516     1.666204143847     1.007825032230

  Running in c1 symmetry.

  Rotational constants: A =      0.36728  B =      0.32345  C =      0.17765 [cm^-1]
  Rotational constants: A =  11010.83073  B =   9696.79892  C =   5325.88642 [MHz]
  Nuclear repulsion =  118.689688068766856

  Charge       = 0
  Multiplicity = 1
  Electrons    = 32
  Nalpha       = 16
  Nbeta        = 16

  ==> Algorithm <==

  SCF Algorithm Type is DF.
  DIIS enabled.
  MOM disabled.
  Fractional occupation disabled.
  Guess Type is SAD.
  Energy threshold   = 1.00e-10
  Density threshold  = 1.00e-10
  Integral threshold = 0.00e+00

  ==> Primary Basis <==

  Basis Set: ANONYMOUS0AFACB3F
    Blend: 6-31G_2DFP_
    Number of shells: 44
    Number of basis function: 128
    Number of Cartesian functions: 148
    Spherical Harmonics?: true
    Max angular momentum: 3

  ==> DFT Potential <==

   => Composite Functional: B3LYP <= 

    B3LYP Hyb-GGA Exchange-Correlation Functional

    P. J. Stephens, F. J. Devlin, C. F. Chabalowski, and M. J. Frisch, J. Phys. Chem. 98, 11623 (1994)

    Deriv               =              1
    GGA                 =           TRUE
    Meta                =          FALSE

    Exchange Hybrid     =           TRUE
    MP2 Hybrid          =          FALSE

   => Exchange Functionals <=

    0.0800   Slater exchange
    0.7200         Becke 88

   => Exact (HF) Exchange <=

    0.2000               HF 

   => Correlation Functionals <=

    0.1900   Vosko, Wilk & Nusair (VWN5_RPA)
    0.8100   Lee, Yang & Parr

   => Molecular Quadrature <=

    Radial Scheme          =       TREUTLER
    Pruning Scheme         =           NONE
    Nuclear Scheme         =       TREUTLER

    BS radius alpha        =              1
    Pruning alpha          =              1
    Radial Points          =             99
    Spherical Points       =           1202
    Total Points           =         783770
    Total Blocks           =           5385
    Max Points             =            256
    Max Functions          =            127
    Weights Tolerance      =       1.00E-15

   => Loading Basis Set <=

    Name: (ANONYMOUS0AFACB3F AUX)
    Role: JKFIT
    Keyword: DF_BASIS_SCF
    atoms 1-2 entry C          line   198 file /opt/psi/4/master/share/psi4/basis/def2-universal-jkfit.gbs 
    atoms 3   entry O          line   318 file /opt/psi/4/master/share/psi4/basis/def2-universal-jkfit.gbs 
    atoms 4   entry F          line   378 file /opt/psi/4/master/share/psi4/basis/def2-universal-jkfit.gbs 
    atoms 5-7 entry H          line    18 file /opt/psi/4/master/share/psi4/basis/def2-universal-jkfit.gbs 

  ==> Integral Setup <==

  DFHelper Memory: AOs need 0.048 GiB; user supplied 7.506 GiB. Using in-core AOs.

  ==> MemDFJK: Density-Fitted J/K Matrices <==

    J tasked:                   Yes
    K tasked:                   Yes
    wK tasked:                   No
    OpenMP threads:               1
    Memory [MiB]:              7686
    Algorithm:                 Core
    Schwarz Cutoff:           1E-12
    Mask sparsity (%):       0.9888
    Fitting Condition:        1E-10

   => Auxiliary Basis Set <=

  Basis Set: (ANONYMOUS0AFACB3F AUX)
    Blend: DEF2-UNIVERSAL-JKFIT
    Number of shells: 118
    Number of basis function: 358
    Number of Cartesian functions: 424
    Spherical Harmonics?: true
    Max angular momentum: 4

  Cached 100.0% of DFT collocation blocks in 2.273 [GiB].

  Minimum eigenvalue in the overlap matrix is 1.5135490367E-03.
  Reciprocal condition number of the overlap matrix is 2.8339681465E-04.
    Using symmetric orthogonalization.

  ==> Pre-Iterations <==

  SCF Guess: Superposition of Atomic Densities via on-the-fly atomic UHF (no occupation information).

   -------------------------
    Irrep   Nso     Nmo    
   -------------------------
     A        128     128 
   -------------------------
    Total     128     128
   -------------------------

  ==> Iterations <==

                           Total Energy        Delta E     RMS |[F,P]|

   @DF-RKS iter SAD:  -252.60172168455188   -2.52602e+02   0.00000e+00 
   @DF-RKS iter   1:  -252.88376749309555   -2.82046e-01   5.65807e-03 DIIS
   @DF-RKS iter   2:  -252.57497107078672    3.08796e-01   8.91363e-03 DIIS
   @DF-RKS iter   3:  -253.06800976705841   -4.93039e-01   2.33050e-03 DIIS
   @DF-RKS iter   4:  -253.10442810162374   -3.64183e-02   2.76560e-04 DIIS
   @DF-RKS iter   5:  -253.10477963683559   -3.51535e-04   1.42542e-04 DIIS
   @DF-RKS iter   6:  -253.10490360061058   -1.23964e-04   4.06730e-05 DIIS
   @DF-RKS iter   7:  -253.10491263988393   -9.03927e-06   1.03812e-05 DIIS
   @DF-RKS iter   8:  -253.10491335087522   -7.10991e-07   1.44983e-06 DIIS
   @DF-RKS iter   9:  -253.10491336569359   -1.48184e-08   2.18363e-07 DIIS
   @DF-RKS iter  10:  -253.10491336608720   -3.93612e-10   4.19744e-08 DIIS
   @DF-RKS iter  11:  -253.10491336610002   -1.28182e-11   9.98000e-09 DIIS
   @DF-RKS iter  12:  -253.10491336610079   -7.67386e-13   1.82360e-09 DIIS
   @DF-RKS iter  13:  -253.10491336610087   -8.52651e-14   1.66787e-10 DIIS
   @DF-RKS iter  14:  -253.10491336610087    0.00000e+00   4.11975e-11 DIIS
  Energy and wave function converged.


  ==> Post-Iterations <==

    Orbital Energies [Eh]
    ---------------------

    Doubly Occupied:                                                      

       1A    -24.713025     2A    -19.161991     3A    -10.349114  
       4A    -10.211529     5A     -1.236702     6A     -1.067574  
       7A     -0.775232     8A     -0.606848     9A     -0.514112  
      10A     -0.503800    11A     -0.490409    12A     -0.433162  
      13A     -0.427545    14A     -0.390975    15A     -0.367891  
      16A     -0.305007  

    Virtual:                                                              

      17A     -0.011810    18A      0.082216    19A      0.129853  
      20A      0.144701    21A      0.170409    22A      0.239353  
      23A      0.291482    24A      0.408730    25A      0.424516  
      26A      0.444602    27A      0.473899    28A      0.502924  
      29A      0.547367    30A      0.560098    31A      0.575144  
      32A      0.596419    33A      0.634856    34A      0.668501  
      35A      0.737339    36A      0.774584    37A      0.815037  
      38A      0.827676    39A      0.903266    40A      0.945255  
      41A      0.949421    42A      1.015442    43A      1.024921  
      44A      1.102781    45A      1.139349    46A      1.179800  
      47A      1.227981    48A      1.298465    49A      1.312396  
      50A      1.317502    51A      1.320704    52A      1.369209  
      53A      1.411198    54A      1.476765    55A      1.575886  
      56A      1.602747    57A      1.641391    58A      1.692983  
      59A      1.768060    60A      1.785040    61A      1.852848  
      62A      1.926088    63A      1.931286    64A      2.096365  
      65A      2.177695    66A      2.217313    67A      2.293482  
      68A      2.366318    69A      2.491895    70A      2.557678  
      71A      2.722333    72A      2.740172    73A      2.778259  
      74A      2.885696    75A      2.951940    76A      2.971158  
      77A      3.057263    78A      3.104211    79A      3.181480  
      80A      3.275686    81A      3.292300    82A      3.367365  
      83A      3.377144    84A      3.396754    85A      3.425344  
      86A      3.462037    87A      3.524919    88A      3.584046  
      89A      3.675337    90A      3.762538    91A      3.812890  
      92A      3.966041    93A      3.996692    94A      4.102706  
      95A      4.122129    96A      4.144886    97A      4.257193  
      98A      4.395081    99A      4.449820   100A      4.467041  
     101A      4.550681   102A      4.930008   103A      5.062928  
     104A      5.069339   105A      5.197866   106A      5.223990  
     107A      5.498557   108A      5.534250   109A      5.876865  
     110A      5.914474   111A      6.076632   112A      6.627442  
     113A      6.629156   114A      6.727494   115A      6.756503  
     116A      6.831694   117A      6.843066   118A      7.023271  
     119A      7.101289   120A      7.110716   121A      7.237795  
     122A      7.368140   123A      7.563767   124A      9.097862  
     125A      9.113128   126A      9.442678   127A      9.550028  
     128A      9.615925  

    Final Occupation by Irrep:
              A 
    DOCC [    16 ]

  @DF-RKS Final Energy:  -253.10491336610087

   => Energetics <=

    Nuclear Repulsion Energy =            118.6896880687668556
    One-Electron Energy =                -582.4596087804798117
    Two-Electron Energy =                 235.7609202125915147
    DFT Exchange-Correlation Energy =     -25.0959128669793969
    Empirical Dispersion Energy =           0.0000000000000000
    VV10 Nonlocal Energy =                  0.0000000000000000
    Total Energy =                       -253.1049133661008739

Computation Completed


Properties will be evaluated at   0.000000,   0.000000,   0.000000 [a0]

Properties computed using the SCF density matrix

  Nuclear Dipole Moment: [e a0]
     X:     5.7150      Y:    -0.8277      Z:     0.0029

  Electronic Dipole Moment: [e a0]
     X:    -4.6931      Y:     1.1910      Z:    -0.0033

  Dipole Moment: [e a0]
     X:     1.0219      Y:     0.3633      Z:    -0.0003     Total:     1.0846

  Dipole Moment: [D]
     X:     2.5975      Y:     0.9235      Z:    -0.0009     Total:     2.7568


*** tstop() called on n058 at Sun Oct 31 16:31:14 2021
Module time:
	user time   =      41.28 seconds =       0.69 minutes
	system time =       0.69 seconds =       0.01 minutes
	total time  =         42 seconds =       0.70 minutes
Total time:
	user time   =      41.28 seconds =       0.69 minutes
	system time =       0.69 seconds =       0.01 minutes
	total time  =         42 seconds =       0.70 minutes
Grab this energy -253.10491336610087
    Psi4 stopped on: Sunday, 31 October 2021 04:31PM
    Psi4 wall time for execution: 0:00:42.01

*** Psi4 exiting successfully. Buy a developer a beer!
