
 Primary working directories    : /tmp/985636.1371.gen6.q
 Secondary working directories  : /tmp/985636.1371.gen6.q
 Wavefunction directory         : /home/vulcan/jj04645/wfu/
 Main file repository           : /tmp/985636.1371.gen6.q/

 ARCHNAME  : Linux/x86_64
 FC        : /opt/intel/compilers_and_libraries_2016.1.150/linux/bin/intel64/ifort
 FCVERSION : 16.0.1
 BLASLIB   : -mkl
 id        : ccgc

 Nodes     nprocs
 n082         1
 ga_uses_ma=false, calling ma_init with nominal heap.
 GA-space will be limited to   8.0 MW (determined by -G option)

 Using customized tuning parameters: mindgm=10; mindgv=16; mindgc=4; mindgr=1; noblas=0; mincuda=1000; minvec=7
 default implementation of scratch files=df  

 ***,Optimization of tetrahydrothiopyran
 memory,1000,m
 gthresh,energy=1.0d-12,orbital=1.0d-10,oneint=1.0d-16,twoint=1.0d-16,optgrad=1.0d-6,compress=1.0d-13
 geomtyp=xyz
 
 bohr
 geometry = {
  S    0.3543758687    2.6980613261   -0.0001100572
  C   -0.3339503919   -3.3663836093    0.0023795255
  C   -0.6632335125    0.6672653763   -2.5803908099
  C   -0.6625008990    0.6693015545    2.5820605858
  C    0.4689864023   -1.9843756555   -2.4121823739
  C    0.4696715239   -1.9824714638    2.4156224956
  H   -2.7295746469    0.5710659835   -2.5838856168
  H   -2.7288409478    0.5731051893    2.5862177756
  H   -0.0733953031    1.6211651519   -4.3112293323
  H   -0.0721715323    1.6245662942    4.3119786190
  H    2.5309422983   -1.8329449361   -2.4664995242
  H    2.5316427359   -1.8309981634    2.4692349205
  H   -0.1175144705   -3.0788955179   -4.0676059596
  H   -0.1163593180   -3.0756850809    4.0720753593
  H    0.4597673181   -5.2738509513   -0.0086592871
  H   -2.3965801417   -3.5787469145   -0.0090063204
 }
 
 basis=VDZ
 {rhf;maxit,200}
 {ccsd(t);maxit,200}

 Variables initialized (661), CPU time= 0.00 sec
 Commands  initialized (458), CPU time= 0.00 sec, 486 directives.
 Default parameters read. Elapsed time= 0.03 sec

 Checking input...
 Passed
1


                                         ***  PROGRAM SYSTEM MOLPRO  ***
                         Copyright, University College Cardiff Consultants Limited, 2008

                                    Version 2010.1 linked May 16 2016 07:17:05


 **********************************************************************************************************************************
 LABEL *   Optimization of tetrahydrothiopyran                                           
 Linux-4.4.3/n082(x86_64) 64 bit mpp version                                             DATE: 26-Jan-24          TIME: 17:32:14  
 **********************************************************************************************************************************

 SHA1:             9e8077add272b0f3cad6f7df79ec5211205f459d
 **********************************************************************************************************************************

 THRESHOLDS:

 ZERO    =  1.00D-12  ONEINT  =  1.00D-16  TWOINT  =  1.00D-16  PREFAC  =  1.00D-14  LOCALI  =  1.00D-09  EORDER  =  1.00D-04
 ENERGY  =  1.00D-12  ETEST   =  0.00D+00  EDENS   =  0.00D+00  THRDEDEF=  1.00D-06  GRADIENT=  1.00D-02  STEP    =  1.00D-03
 ORBITAL =  1.00D-10  CIVEC   =  1.00D-05  COEFF   =  1.00D-04  PRINTCI =  5.00D-02  PUNCHCI =  9.90D+01  OPTGRAD =  1.00D-06
 OPTENERG=  1.00D-06  OPTSTEP =  3.00D-04  THRGRAD =  1.00D-10  COMPRESS=  1.00D-13  VARMIN  =  1.00D-07  VARMAX  =  1.00D-03
 THRDOUB =  0.00D+00  THRDIV  =  1.00D-05  THRRED  =  1.00D-07  THRPSP  =  1.00D+00  THRDC   =  1.00D-10  THRCS   =  1.00D-10
 THRNRM  =  1.00D-08  THREQ   =  0.00D+00  THRDE   =  1.00D+00  THRREF  =  1.00D-05  SPARFAC =  1.00D+00  THRDLP  =  1.00D-07
 THRDIA  =  1.00D-10  THRDLS  =  1.00D-07  THRGPS  =  0.00D+00  THRKEX  =  0.00D+00  THRDIS  =  2.00D-01  THRVAR  =  1.00D-10
 THRLOC  =  1.00D-06  THRGAP  =  1.00D-06  THRLOCT = -1.00D+00  THRGAPT = -1.00D+00  THRORB  =  1.00D-06  THRMLTP =  0.00D+00
 THRCPQCI=  1.00D-10  KEXTA   =  0.00D+00  THRCOARS=  0.00D+00  SYMTOL  =  1.00D-06  GRADTOL =  1.00D-06  THROVL  =  1.00D-08
 THRORTH =  1.00D-08  GRID    =  1.00D-06  GRIDMAX =  1.00D-03  DTMAX   =  0.00D+00

 SETTING GEOMTYP        =    XYZ
 ZUNIT=BOHR
 

 Variable memory set to 1000000000 words,  buffer space   230000 words

 SETTING BASIS          =    VDZ


 Recomputing integrals since basis changed


 Using spherical harmonics

 Library entry S      S cc-pVDZ              selected for orbital group  1
 Library entry S      P cc-pVDZ              selected for orbital group  1
 Library entry S      D cc-pVDZ              selected for orbital group  1
 Library entry C      S cc-pVDZ              selected for orbital group  2
 Library entry C      P cc-pVDZ              selected for orbital group  2
 Library entry C      D cc-pVDZ              selected for orbital group  2
 Library entry H      S cc-pVDZ              selected for orbital group  3
 Library entry H      P cc-pVDZ              selected for orbital group  3

1PROGRAM * SEWARD (Integral evaluation for generally contracted gaussian basis sets)     Author: Roland Lindh, 1990

 Geometry written to block  1 of record 700


 Point group  C1  



 ATOMIC COORDINATES

 NR  ATOM    CHARGE       X              Y              Z

   1  S      16.00    0.354375869    2.698061326   -0.000110057
   2  C       6.00   -0.333950392   -3.366383609    0.002379526
   3  C       6.00   -0.663233512    0.667265376   -2.580390810
   4  C       6.00   -0.662500899    0.669301554    2.582060586
   5  C       6.00    0.468986402   -1.984375656   -2.412182374
   6  C       6.00    0.469671524   -1.982471464    2.415622496
   7  H       1.00   -2.729574647    0.571065984   -2.583885617
   8  H       1.00   -2.728840948    0.573105189    2.586217776
   9  H       1.00   -0.073395303    1.621165152   -4.311229332
  10  H       1.00   -0.072171532    1.624566294    4.311978619
  11  H       1.00    2.530942298   -1.832944936   -2.466499524
  12  H       1.00    2.531642736   -1.830998163    2.469234920
  13  H       1.00   -0.117514470   -3.078895518   -4.067605960
  14  H       1.00   -0.116359318   -3.075685081    4.072075359
  15  H       1.00    0.459767318   -5.273850951   -0.008659287
  16  H       1.00   -2.396580142   -3.578746914   -0.009006320

 Bond lengths in Bohr (Angstrom)

  1- 3  3.437660513   1- 4  3.437660513   2- 5  2.895645463   2- 6  2.895645462   2-15  2.066044849
       ( 1.819131596)       ( 1.819131596)       ( 1.532309584)       ( 1.532309584)       ( 1.093303847)

  2-16  2.073564394   3- 5  2.888150996   3- 7  2.068582176   3- 9  2.062434456   4- 6  2.888150996
       ( 1.097283019)       ( 1.528343683)       ( 1.094646543)       ( 1.091393309)       ( 1.528343683)

  4- 8  2.068582176   4-10  2.062434456   5-11  2.068222361   5-13  2.069392242   6-12  2.068222360
       ( 1.094646543)       ( 1.091393309)       ( 1.094456136)       ( 1.095075211)       ( 1.094456136)

  6-14  2.069392242
       ( 1.095075211)

 Bond angles

  1-3-5  112.49558678   1-3-7  108.93154189   1-3-9  105.78484474   1-4-6  112.49558534

  1- 4- 8  108.93154220   1- 4-10  105.78484506   2- 5- 3  112.21281648   2- 5-11  109.46889965

  2- 5-13  109.63514980   2- 6- 4  112.21281811   2- 6-12  109.46889932   2- 6-14  109.63514947

  3- 1- 4   97.33107648   3- 5-11  108.78894522   3- 5-13  109.14140415   4- 6-12  108.78894488

  4- 6-14  109.14140382   5- 2- 6  112.94731538   5- 2-15  109.24787673   5- 2-16  108.67077040

  5- 3- 7  110.42612574   5- 3- 9  111.18611330   6- 2-15  109.82083454   6- 2-16  109.24372821

  6- 4- 8  110.42612602   6- 4-10  111.18611359   7- 3- 9  107.80465577   8- 4-10  107.80465610

 11- 5-13  107.47410681  12- 6-14  107.47410645  15- 2-16  106.71213989

 NUCLEAR CHARGE:                   56
 NUMBER OF PRIMITIVE AOS:         247
 NUMBER OF SYMMETRY AOS:          241
 NUMBER OF CONTRACTIONS:          138   ( 138A   )
 NUMBER OF CORE ORBITALS:          10   (  10A   )
 NUMBER OF VALENCE ORBITALS:       34   (  34A   )


 NUCLEAR REPULSION ENERGY  312.14496981


 Eigenvalues of metric

         1 0.285E-02 0.306E-02 0.427E-02 0.634E-02 0.704E-02 0.151E-01 0.157E-01 0.195E-01


 Contracted 2-electron integrals neglected if value below      1.0D-16
 AO integral compression algorithm  1   Integral accuracy      1.0D-16

     374.079 MB (compressed) written to integral file ( 94.2%)

     Node minimum: 374.079 MB, node maximum: 374.079 MB


 NUMBER OF SORTED TWO-ELECTRON INTEGRALS:   45998436.     BUFFER LENGTH:  32768
 NUMBER OF SEGMENTS:   3  SEGMENT LENGTH:   15998004      RECORD LENGTH: 524288

 Memory used in sort:      16.56 MW

 SORT1 READ    49669917. AND WROTE    45795405. INTEGRALS IN    132 RECORDS. CPU TIME:     0.47 SEC, REAL TIME:     0.70 SEC
 SORT2 READ    45795405. AND WROTE    45998436. INTEGRALS IN   1427 RECORDS. CPU TIME:     0.32 SEC, REAL TIME:     0.49 SEC

 FILE SIZES:   FILE 1:   349.6 MBYTE,  FILE 4:   553.7 MBYTE,   TOTAL:    903.3 MBYTE

 OPERATOR DM      FOR CENTER  0  COORDINATES:    0.000000    0.000000    0.000000


 **********************************************************************************************************************************
 DATASETS  * FILE   NREC   LENGTH (MB)   RECORD NAMES
              1      19      349.83       500      610      700      900      950      970     1000      129      960     1100   
                                          VAR    BASINP    GEOM    SYMINP    ZMAT    AOBASIS   BASIS     P2S    ABASIS      S 
                                         1400     1410     1200     1210     1080     1600     1650     1300     1700   
                                           T        V       H0       H01     AOSYM     SMH    MOLCAS    ERIS     OPER   

 PROGRAMS   *        TOTAL       INT
 CPU TIMES  *         4.29      4.25
 REAL TIME  *         5.04 SEC
 DISK USED  *         1.28 GB      
 GA USED    *         0.01 MB       (max)       0.00 MB       (current)
 **********************************************************************************************************************************

1PROGRAM * RHF-SCF (CLOSED SHELL)       Authors: W. Meyer, H.-J. Werner


 NUMBER OF ELECTRONS:      28+   28-    SPACE SYMMETRY=1    SPIN SYMMETRY: Singlet 
 CONVERGENCE THRESHOLDS:    1.00E-10 (Density)    1.00E-13 (Energy)
 MAX. NUMBER OF ITERATIONS:      200
 INTERPOLATION TYPE:            DIIS
 INTERPOLATION STEPS:              2 (START)      1 (STEP)
 LEVEL SHIFTS:                  0.00 (CLOSED)  0.00 (OPEN) 



 Orbital guess generated from atomic densities. Full valence occupancy:   44

 Molecular orbital dump at record        2100.2

 ITERATION    DDIFF          GRAD             ENERGY        2-EL.EN.            DIPOLE MOMENTS         DIIS
    1      0.000D+00      0.000D+00      -592.64386283   1056.850298   -0.40523   -0.80158   -0.00052    0
    2      0.000D+00      0.396D-02      -592.70488086   1054.271458   -0.20832   -0.73828    0.00010    1
    3      0.777D-02      0.132D-02      -592.71081606   1055.704008   -0.27937   -0.67523    0.00026    2
    4      0.269D-02      0.539D-03      -592.71182467   1055.086458   -0.25273   -0.70855    0.00031    3
    5      0.931D-03      0.774D-04      -592.71185041   1055.149552   -0.24878   -0.70010    0.00033    4
    6      0.181D-03      0.267D-04      -592.71185294   1055.118638   -0.25050   -0.70037    0.00033    5
    7      0.504D-04      0.620D-05      -592.71185315   1055.121792   -0.24983   -0.70026    0.00033    6
    8      0.165D-04      0.174D-05      -592.71185317   1055.120930   -0.24982   -0.70012    0.00033    7
    9      0.541D-05      0.455D-06      -592.71185317   1055.120812   -0.24980   -0.70008    0.00033    7
   10      0.127D-05      0.162D-06      -592.71185317   1055.120851   -0.24979   -0.70008    0.00033    7
   11      0.482D-06      0.344D-07      -592.71185317   1055.120836   -0.24979   -0.70007    0.00033    7
   12      0.114D-06      0.690D-08      -592.71185317   1055.120842   -0.24979   -0.70007    0.00033    7
   13      0.183D-07      0.289D-08      -592.71185317   1055.120839   -0.24979   -0.70007    0.00033    7
   14      0.634D-08      0.850D-09      -592.71185317   1055.120840   -0.24979   -0.70007    0.00033    7
   15      0.227D-08      0.276D-09      -592.71185317   1055.120840   -0.24979   -0.70007    0.00033    7
   16      0.665D-09      0.862D-10      -592.71185317   1055.120840   -0.24979   -0.70007    0.00033    8
   17      0.208D-09      0.194D-10      -592.71185317   1055.120840   -0.24979   -0.70007    0.00033    7
   18      0.512D-10      0.622D-11      -592.71185317   1055.120840   -0.24979   -0.70007    0.00033    7
   19      0.193D-10      0.223D-11      -592.71185317   1055.120840   -0.24979   -0.70007    0.00033    8
   20      0.631D-11      0.743D-12      -592.71185317   1055.120840   -0.24979   -0.70007    0.00033    8
   21      0.229D-11      0.269D-12      -592.71185317   1055.120840   -0.24979   -0.70007    0.00033    8
   22      0.912D-12      0.836D-13      -592.71185317   1055.120840   -0.24979   -0.70007    0.00033    0

 Final occupancy:  28

 !RHF STATE 1.1 Energy               -592.711853170448
 Nuclear energy                       312.14496981
 One-electron energy                -1432.41724282
 Two-electron energy                  527.56041984
 Virial quotient                       -1.00019603
 !RHF STATE 1.1 Dipole moment          -0.24979140    -0.70007267     0.00033087
 Dipole moment /Debye                  -0.63486482    -1.77929071     0.00084094

 Orbital energies:

         1.1          2.1          3.1          4.1          5.1          6.1          7.1          8.1          9.1         10.1
    -91.929881   -11.255045   -11.254922   -11.231160   -11.230876   -11.229097    -8.933766    -6.615661    -6.614227    -6.612026

        11.1         12.1         13.1         14.1         15.1         16.1         17.1         18.1         19.1         20.1
     -1.119611    -1.019934    -1.006511    -0.842383    -0.835821    -0.755852    -0.646755    -0.614272    -0.609729    -0.578481

        21.1         22.1         23.1         24.1         25.1         26.1         27.1         28.1         29.1         30.1
     -0.547400    -0.523639    -0.497357    -0.495564    -0.472578    -0.435002    -0.411864    -0.328786     0.177031     0.190215


 **********************************************************************************************************************************
 DATASETS  * FILE   NREC   LENGTH (MB)   RECORD NAMES
              1      19      349.83       500      610      700      900      950      970     1000      129      960     1100   
                                          VAR    BASINP    GEOM    SYMINP    ZMAT    AOBASIS   BASIS     P2S    ABASIS      S 
                                         1400     1410     1200     1210     1080     1600     1650     1300     1700   
                                           T        V       H0       H01     AOSYM     SMH    MOLCAS    ERIS     OPER   

              2       3        0.92       700     1000     2100   
                                         GEOM     BASIS     RHF  

 PROGRAMS   *        TOTAL       RHF       INT
 CPU TIMES  *        10.37      6.08      4.25
 REAL TIME  *        11.89 SEC
 DISK USED  *         1.28 GB      
 GA USED    *         0.01 MB       (max)       0.00 MB       (current)
 **********************************************************************************************************************************


1PROGRAM * CCSD (Closed-shell coupled cluster)     Authors: C. Hampel, H.-J. Werner, 1991, M. Deegan, P.J. Knowles, 1992


 Convergence thresholds:  THRVAR = 1.00D-08  THRDEN = 1.00D-12

 CCSD(T)     terms to be evaluated (factor= 1.000)


 Number of core orbitals:          10 (  10 )
 Number of closed-shell orbitals:  18 (  18 )
 Number of external orbitals:     110 ( 110 )

 Molecular orbitals read from record     2100.2  Type=RHF/CANONICAL (state 1.1)

 Number of N-1 electron functions:              18
 Number of N-2 electron functions:             171
 Number of singly external CSFs:              1980
 Number of doubly external CSFs:           1961190
 Total number of CSFs:                     1963171

 Length of J-op  integral file:               0.00 MB
 Length of K-op  integral file:               1.35 MB
 Length of 3-ext integral record:             0.00 MB

 Memory could be reduced to 32.58 Mwords without degradation in triples

 Integral transformation finished. Total CPU:   2.01 sec, npass=  1  Memory used:  30.89 MW

 Reference energy:                   -592.71185317

 MP2 singlet pair energy:              -0.53946827
 MP2 triplet pair energy:              -0.30438024
 MP2 correlation energy:               -0.84384851
 MP2 total energy:                   -593.55570168

 SCS-MP2 correlation energy:           -0.83675408   (PS=  1.200000  PT=  0.333333)
 SCS-MP2 total energy:               -593.54860725

 ITER.      SQ.NORM     CORR.ENERGY   TOTAL ENERGY   ENERGY CHANGE        DEN1      VAR(S)    VAR(P)  DIIS     TIME
   1      1.33971548    -0.91082215  -593.62267532    -0.06697364    -0.04301472  0.26D-02  0.55D-02  1  1     8.96
   2      1.36671150    -0.91616952  -593.62802269    -0.00534736    -0.02577678  0.69D-04  0.46D-03  2  2    15.95
   3      1.37204537    -0.91629729  -593.62815046    -0.00012778    -0.00303815  0.16D-04  0.28D-04  3  3    22.96
   4      1.37353847    -0.91635535  -593.62820852    -0.00005805    -0.00059394  0.76D-06  0.20D-05  4  4    30.00
   5      1.37377907    -0.91636196  -593.62821513    -0.00000661    -0.00007084  0.17D-06  0.16D-06  5  5    37.01
   6      1.37382466    -0.91635751  -593.62821068     0.00000445    -0.00001392  0.30D-07  0.14D-07  6  6    44.04
   7      1.37383222    -0.91635740  -593.62821057     0.00000011     0.00000064  0.53D-08  0.23D-08  6  2    51.06
   8      1.37383829    -0.91635708  -593.62821026     0.00000031    -0.00000124  0.73D-09  0.26D-09  6  1    58.08
   9      1.37383911    -0.91635702  -593.62821019     0.00000006     0.00000051  0.65D-10  0.44D-10  6  4    65.10
  10      1.37383999    -0.91635699  -593.62821016     0.00000003    -0.00000011  0.47D-11  0.35D-11  6  3    72.12
  11      1.37384001    -0.91635699  -593.62821016    -0.00000000     0.00000004  0.12D-11  0.54D-12  6  5    79.15
  12      1.37383997    -0.91635699  -593.62821016    -0.00000000     0.00000002  0.17D-12  0.77D-13  6  6    86.18
  13      1.37383992    -0.91635699  -593.62821016    -0.00000000     0.00000002  0.24D-13  0.11D-13  6  1    93.20
  14      1.37383991    -0.91635699  -593.62821016    -0.00000000     0.00000000  0.31D-14  0.12D-14  6  2   100.22
  15      1.37383991    -0.91635699  -593.62821016     0.00000000    -0.00000000  0.67D-15  0.31D-15  6  4   107.24
  16      1.37383991    -0.91635699  -593.62821016     0.00000000    -0.00000000  0.32D-16  0.23D-16  6  5   114.27
  17      1.37383991    -0.91635699  -593.62821016     0.00000000    -0.00000000  0.58D-17  0.24D-17  6  3   121.28
  18      1.37383991    -0.91635699  -593.62821016     0.00000000    -0.00000000  0.14D-17  0.42D-18  6  5   128.30
  19      1.37383991    -0.91635699  -593.62821016     0.00000000    -0.00000000  0.18D-18  0.64D-19  6  6   135.34
  20      1.37383991    -0.91635699  -593.62821016    -0.00000000     0.00000000  0.15D-19  0.66D-20  6  1   142.37
  21      1.37383991    -0.91635699  -593.62821016    -0.00000000     0.00000000  0.24D-20  0.99D-21  6  2   149.39

 Norm of t1 vector:      0.07014479      S-energy:    -0.00000000      T1 diagnostic:  0.00826664
                                                                       D1 diagnostic:  0.02107766


 Total CPU time for triples:    100.23 sec


 RESULTS
 =======

  Reference energy                   -592.711853170448
  CCSD singlet pair energy             -0.634222448008
  CCSD triplet pair energy             -0.282134545597
  CCSD correlation energy              -0.916356993605

  Triples (T) contribution             -0.029870791486
  Total correlation energy             -0.946227785091

  CCSD total energy                  -593.628210164053
  CCSD[T] energy                     -593.658700401697
  CCSD-T energy                      -593.657769688519
 !CCSD(T) total energy               -593.658080955539

 Timing summary (sec):

 STEP                 CPU(USER)    SYS     CPU(TOT)    WALL
 Transformation          2.11      0.20      2.31      2.32
 CCSD iterations       147.29      2.76    150.05    150.11
 Triples               100.23      2.04    102.27    102.30

 Program statistics:

 Available memory in ccsd:               999998604
 Min. memory needed in ccsd:               5123362
 Max. memory used in ccsd:                 6867976
 Max. memory used in cckext:               6836871 (21 integral passes)



 **********************************************************************************************************************************
 DATASETS  * FILE   NREC   LENGTH (MB)   RECORD NAMES
              1      20      486.21       500      610      700      900      950      970     1000      129      960     1100   
                                          VAR    BASINP    GEOM    SYMINP    ZMAT    AOBASIS   BASIS     P2S    ABASIS      S 
                                         1400     1410     1200     1210     1080     1600     1650     1300     1700     1380   
                                           T        V       H0       H01     AOSYM     SMH    MOLCAS    ERIS     OPER     JKOP   

              2       3        0.92       700     1000     2100   
                                         GEOM     BASIS     RHF  

 PROGRAMS   *        TOTAL   CCSD(T)       RHF       INT
 CPU TIMES  *       260.01    249.64      6.08      4.25
 REAL TIME  *       266.67 SEC
 DISK USED  *         1.28 GB      
 GA USED    *         0.01 MB       (max)       0.00 MB       (current)
 **********************************************************************************************************************************

        CCSD(T)         RHF-SCF 
   -593.65808096   -592.71185317
 **********************************************************************************************************************************
 Variable memory released
