
 Primary working directories    : /tmp/1049102.363.gen4.q
 Secondary working directories  : /tmp/1049102.363.gen4.q
 Wavefunction directory         : /home/vulcan/mel64643/wfu/
 Main file repository           : /tmp/1049102.363.gen4.q/

 ARCHNAME  : Linux/x86_64
 FC        : /opt/intel/compilers_and_libraries_2016.1.150/linux/bin/intel64/ifort
 FCVERSION : 16.0.1
 BLASLIB   : -mkl
 id        : ccgc

 Nodes     nprocs
 n027         1
 ga_uses_ma=false, calling ma_init with nominal heap.
 GA-space will be limited to   8.0 MW (determined by -G option)

 Using customized tuning parameters: mindgm=10; mindgv=16; mindgc=4; mindgr=1; noblas=0; mincuda=1000; minvec=7
 default implementation of scratch files=df  

 ***,Optimization of h2o_3
 memory,1000,m
 gthresh,energy=1.0d-12,orbital=1.0d-10,oneint=1.0d-16,twoint=1.0d-16,optgrad=1.0d-6,compress=1.0d-13
 geomtyp=xyz
 
 
 
 bohr
 geometry = {
  C    0.9145085095    1.4101251294   -2.2732858518
  C    0.7389873798    2.7109555556    0.0132530159
  C    0.9981386079    1.4060919516    2.2997085088
  C    1.4317879284   -1.2039267385    2.2921157218
  C    1.6080355165   -2.5042661338    0.0056192570
  C    1.3489436243   -1.1991783449   -2.2806319087
  H    0.7047688757    2.4193832673   -4.0430399411
  H    0.3878939027    4.7284391893    0.0264144197
  H    0.8576543095    2.4098214151    4.0796604405
  H    1.6297955979   -2.2142479839    4.0630296976
  H    1.9418838710   -4.5251967918    0.0069457239
  H    1.4845268236   -2.2158959062   -4.0538653648
  N   -5.4429125555   -0.3570891638   -0.0711983508
  H   -5.5916239739   -1.5695095025   -1.5507982300
  H   -6.0692307802   -1.3142236996    1.4691780599
  H   -3.5622257701   -0.0730718413    0.1969724791
 }
 
 basis=aug-cc-pvdz, H=cc-pvdz
 {rhf;maxit,200}
 {ccsd(t)}

 Variables initialized (661), CPU time= 0.00 sec
 Commands  initialized (458), CPU time= 0.01 sec, 486 directives.
 Default parameters read. Elapsed time= 0.06 sec

 Checking input...
 Passed
1


                                         ***  PROGRAM SYSTEM MOLPRO  ***
                         Copyright, University College Cardiff Consultants Limited, 2008

                                    Version 2010.1 linked May 16 2016 07:17:05


 **********************************************************************************************************************************
 LABEL *   Optimization of h2o_3                                                         
 Linux-4.4.3/n027(x86_64) 64 bit mpp version                                             DATE: 19-Mar-24          TIME: 02:43:22  
 **********************************************************************************************************************************

 SHA1:             9e8077add272b0f3cad6f7df79ec5211205f459d
 **********************************************************************************************************************************

 THRESHOLDS:

 ZERO    =  1.00D-12  ONEINT  =  1.00D-16  TWOINT  =  1.00D-16  PREFAC  =  1.00D-14  LOCALI  =  1.00D-09  EORDER  =  1.00D-04
 ENERGY  =  1.00D-12  ETEST   =  0.00D+00  EDENS   =  0.00D+00  THRDEDEF=  1.00D-06  GRADIENT=  1.00D-02  STEP    =  1.00D-03
 ORBITAL =  1.00D-10  CIVEC   =  1.00D-05  COEFF   =  1.00D-04  PRINTCI =  5.00D-02  PUNCHCI =  9.90D+01  OPTGRAD =  1.00D-06
 OPTENERG=  1.00D-06  OPTSTEP =  3.00D-04  THRGRAD =  1.00D-10  COMPRESS=  1.00D-13  VARMIN  =  1.00D-07  VARMAX  =  1.00D-03
 THRDOUB =  0.00D+00  THRDIV  =  1.00D-05  THRRED  =  1.00D-07  THRPSP  =  1.00D+00  THRDC   =  1.00D-10  THRCS   =  1.00D-10
 THRNRM  =  1.00D-08  THREQ   =  0.00D+00  THRDE   =  1.00D+00  THRREF  =  1.00D-05  SPARFAC =  1.00D+00  THRDLP  =  1.00D-07
 THRDIA  =  1.00D-10  THRDLS  =  1.00D-07  THRGPS  =  0.00D+00  THRKEX  =  0.00D+00  THRDIS  =  2.00D-01  THRVAR  =  1.00D-10
 THRLOC  =  1.00D-06  THRGAP  =  1.00D-06  THRLOCT = -1.00D+00  THRGAPT = -1.00D+00  THRORB  =  1.00D-06  THRMLTP =  0.00D+00
 THRCPQCI=  1.00D-10  KEXTA   =  0.00D+00  THRCOARS=  0.00D+00  SYMTOL  =  1.00D-06  GRADTOL =  1.00D-06  THROVL  =  1.00D-08
 THRORTH =  1.00D-08  GRID    =  1.00D-06  GRIDMAX =  1.00D-03  DTMAX   =  0.00D+00

 SETTING GEOMTYP        =    XYZ
 ZUNIT=BOHR
 

 Variable memory set to 1000000000 words,  buffer space   230000 words

 SETTING BASIS          =    AUG-CC-PVDZ,H=CC-PVDZ


 Recomputing integrals since basis changed


 Using spherical harmonics

 Library entry C      S aug-cc-pVDZ          selected for orbital group  1
 Library entry C      P aug-cc-pVDZ          selected for orbital group  1
 Library entry C      D aug-cc-pVDZ          selected for orbital group  1
 Library entry H      S cc-pVDZ              selected for orbital group  2
 Library entry H      P cc-pVDZ              selected for orbital group  2
 Library entry N      S aug-cc-pVDZ          selected for orbital group  3
 Library entry N      P aug-cc-pVDZ          selected for orbital group  3
 Library entry N      D aug-cc-pVDZ          selected for orbital group  3

1PROGRAM * SEWARD (Integral evaluation for generally contracted gaussian basis sets)     Author: Roland Lindh, 1990

 Geometry written to block  1 of record 700


 Point group  C1  



 ATOMIC COORDINATES

 NR  ATOM    CHARGE       X              Y              Z

   1  C       6.00    0.914508509    1.410125129   -2.273285852
   2  C       6.00    0.738987380    2.710955556    0.013253016
   3  C       6.00    0.998138608    1.406091952    2.299708509
   4  C       6.00    1.431787928   -1.203926739    2.292115722
   5  C       6.00    1.608035516   -2.504266134    0.005619257
   6  C       6.00    1.348943624   -1.199178345   -2.280631909
   7  H       1.00    0.704768876    2.419383267   -4.043039941
   8  H       1.00    0.387893903    4.728439189    0.026414420
   9  H       1.00    0.857654309    2.409821415    4.079660440
  10  H       1.00    1.629795598   -2.214247984    4.063029698
  11  H       1.00    1.941883871   -4.525196792    0.006945724
  12  H       1.00    1.484526824   -2.215895906   -4.053865365
  13  N       7.00   -5.442912556   -0.357089164   -0.071198351
  14  H       1.00   -5.591623974   -1.569509503   -1.550798230
  15  H       1.00   -6.069230780   -1.314223700    1.469178060
  16  H       1.00   -3.562225770   -0.073071841    0.196972479

 Bond lengths in Bohr (Angstrom)

 1-2  2.636518056  1-6  2.645232023  1-7  2.048077694  2-3  2.645317959  2-8  2.047847666
     ( 1.395185266)     ( 1.399796499)     ( 1.083796038)     ( 1.399841975)     ( 1.083674313)

  3- 4  2.645809318   3- 9  2.048276728   4- 5  2.636287511   4-10  2.048436566   5- 6  2.645246139
       ( 1.400101990)       ( 1.083901362)       ( 1.395063267)       ( 1.083985945)       ( 1.399803969)

  5-11  2.048320582   6-12  2.048524907  13-14  1.918669843  13-15  1.918629856  13-16  1.920823838
       ( 1.083924569)       ( 1.084032693)       ( 1.015316352)       ( 1.015295192)       ( 1.016456198)

 Bond angles

  1- 2- 3  119.98067204   1- 2- 8  120.20274486   1- 6- 5  120.02353527   1- 6-12  120.18870436

  2-1-6  120.00199160   2-1-7  119.96358292   2-3-4  120.01167596   2-3-9  120.17687162

  3- 2- 8  119.81490606   3- 4- 5  120.00136228   3- 4-10  119.99378406   4- 3- 9  119.81112069

  4- 5- 6  119.98073492   4- 5-11  119.80076135   5- 4-10  120.00484895   5- 6-12  119.78774584

  6- 1- 7  120.03368558   6- 5-11  120.21838973  14-13-15  106.17607583  14-13-16  106.08043233

 15-13-16  106.33745542

 NUCLEAR CHARGE:                   52
 NUMBER OF PRIMITIVE AOS:         322
 NUMBER OF SYMMETRY AOS:          308
 NUMBER OF CONTRACTIONS:          206   ( 206A   )
 NUMBER OF CORE ORBITALS:           7   (   7A   )
 NUMBER OF VALENCE ORBITALS:       37   (  37A   )


 NUCLEAR REPULSION ENERGY  273.71040820


 Eigenvalues of metric

         1 0.861E-05 0.184E-04 0.227E-04 0.532E-04 0.639E-04 0.647E-04 0.107E-03 0.107E-03


 Contracted 2-electron integrals neglected if value below      1.0D-16
 AO integral compression algorithm  1   Integral accuracy      1.0D-16

     1892.942 MB (compressed) written to integral file ( 94.6%)

     Node minimum: 1892.942 MB, node maximum: 1892.942 MB


 NUMBER OF SORTED TWO-ELECTRON INTEGRALS:  227303181.     BUFFER LENGTH:  32768
 NUMBER OF SEGMENTS:  15  SEGMENT LENGTH:   15999503      RECORD LENGTH: 524288

 Memory used in sort:      16.56 MW

 SORT1 READ   250230157. AND WROTE   226407738. INTEGRALS IN    654 RECORDS. CPU TIME:     2.63 SEC, REAL TIME:     4.62 SEC
 SORT2 READ   226407738. AND WROTE   227303181. INTEGRALS IN   7221 RECORDS. CPU TIME:     1.58 SEC, REAL TIME:     2.50 SEC

 FILE SIZES:   FILE 1:  1743.5 MBYTE,  FILE 4:  2743.1 MBYTE,   TOTAL:   4486.6 MBYTE

 OPERATOR DM      FOR CENTER  0  COORDINATES:    0.000000    0.000000    0.000000


 **********************************************************************************************************************************
 DATASETS  * FILE   NREC   LENGTH (MB)   RECORD NAMES
              1      19     1744.00       500      610      700      900      950      970     1000      129      960     1100   
                                          VAR    BASINP    GEOM    SYMINP    ZMAT    AOBASIS   BASIS     P2S    ABASIS      S 
                                         1400     1410     1200     1210     1080     1600     1650     1300     1700   
                                           T        V       H0       H01     AOSYM     SMH    MOLCAS    ERIS     OPER   

 PROGRAMS   *        TOTAL       INT
 CPU TIMES  *        15.76     15.70
 REAL TIME  *        20.48 SEC
 DISK USED  *         6.38 GB      
 GA USED    *         0.01 MB       (max)       0.00 MB       (current)
 **********************************************************************************************************************************

1PROGRAM * RHF-SCF (CLOSED SHELL)       Authors: W. Meyer, H.-J. Werner


 NUMBER OF ELECTRONS:      26+   26-    SPACE SYMMETRY=1    SPIN SYMMETRY: Singlet 
 CONVERGENCE THRESHOLDS:    1.00E-10 (Density)    1.00E-13 (Energy)
 MAX. NUMBER OF ITERATIONS:      200
 INTERPOLATION TYPE:            DIIS
 INTERPOLATION STEPS:              2 (START)      1 (STEP)
 LEVEL SHIFTS:                  0.00 (CLOSED)  0.00 (OPEN) 



 Orbital guess generated from atomic densities. Full valence occupancy:   44

 Molecular orbital dump at record        2100.2

 ITERATION    DDIFF          GRAD             ENERGY        2-EL.EN.            DIPOLE MOMENTS         DIIS
    1      0.000D+00      0.000D+00      -286.85321404    740.883128    0.51968   -0.76833    0.13768    0
    2      0.000D+00      0.322D-02      -286.92077463    735.092579    0.43545   -0.38555    0.06483    1
    3      0.826D-02      0.133D-02      -286.93010243    737.724464    0.45188   -0.52334    0.09381    2
    4      0.218D-02      0.381D-03      -286.93132027    737.204606    0.45054   -0.49691    0.08654    3
    5      0.783D-03      0.525D-04      -286.93134403    737.193479    0.45634   -0.50687    0.09025    4
    6      0.135D-03      0.175D-04      -286.93134643    737.208365    0.45520   -0.50142    0.08829    5
    7      0.510D-04      0.551D-05      -286.93134670    737.205243    0.45586   -0.50364    0.08901    6
    8      0.149D-04      0.129D-05      -286.93134672    737.204252    0.45601   -0.50328    0.08888    7
    9      0.416D-05      0.540D-06      -286.93134672    737.204709    0.45604   -0.50337    0.08891    7
   10      0.148D-05      0.143D-06      -286.93134673    737.204658    0.45604   -0.50338    0.08891    7
   11      0.514D-06      0.407D-07      -286.93134673    737.204644    0.45605   -0.50337    0.08891    7
   12      0.141D-06      0.173D-07      -286.93134673    737.204657    0.45605   -0.50338    0.08891    8
   13      0.605D-07      0.752D-08      -286.93134673    737.204652    0.45605   -0.50338    0.08891    8
   14      0.334D-07      0.360D-08      -286.93134673    737.204654    0.45605   -0.50338    0.08891    8
   15      0.200D-07      0.137D-08      -286.93134673    737.204654    0.45605   -0.50338    0.08891    8
   16      0.719D-08      0.453D-09      -286.93134673    737.204654    0.45605   -0.50338    0.08891    9
   17      0.212D-08      0.123D-09      -286.93134673    737.204654    0.45605   -0.50338    0.08891    9
   18      0.399D-09      0.370D-10      -286.93134673    737.204654    0.45605   -0.50338    0.08891    8
   19      0.260D-09      0.137D-10      -286.93134673    737.204654    0.45605   -0.50338    0.08891    8
   20      0.205D-09      0.670D-11      -286.93134673    737.204654    0.45605   -0.50338    0.08891    9
   21      0.162D-09      0.368D-11      -286.93134673    737.204654    0.45605   -0.50338    0.08891    9
   22      0.136D-09      0.124D-11      -286.93134673    737.204654    0.45605   -0.50338    0.08891    9
   23      0.203D-09      0.644D-12      -286.93134673    737.204654    0.45605   -0.50338    0.08891    9
   24      0.801D-10      0.631D-12      -286.93134673    737.204654    0.45605   -0.50338    0.08891    9
   25      0.627D-10      0.553D-12      -286.93134673    737.204654    0.45605   -0.50338    0.08891    9
   26      0.546D-10      0.636D-12      -286.93134673    737.204654    0.45605   -0.50338    0.08891    9
   27      0.419D-10      0.440D-12      -286.93134673    737.204654    0.45605   -0.50338    0.08891    9
   28      0.230D-10      0.535D-12      -286.93134673    737.204654    0.45605   -0.50338    0.08891    9
   29      0.171D-10      0.516D-12      -286.93134673    737.204654    0.45605   -0.50338    0.08891    9
   30      0.145D-10      0.548D-12      -286.93134673    737.204654    0.45605   -0.50338    0.08891    9
   31      0.147D-10      0.422D-12      -286.93134673    737.204654    0.45605   -0.50338    0.08891    9
   32      0.108D-10      0.438D-12      -286.93134673    737.204654    0.45605   -0.50338    0.08891    9
   33      0.127D-10      0.535D-12      -286.93134673    737.204654    0.45605   -0.50338    0.08891    9
   34      0.160D-10      0.530D-12      -286.93134673    737.204654    0.45605   -0.50338    0.08891    9
   35      0.251D-10      0.481D-12      -286.93134673    737.204654    0.45605   -0.50338    0.08891    9
   36      0.974D-11      0.499D-12      -286.93134673    737.204654    0.45605   -0.50338    0.08891    9
   37      0.137D-10      0.472D-12      -286.93134673    737.204654    0.45605   -0.50338    0.08891    9
   38      0.173D-10      0.443D-12      -286.93134673    737.204654    0.45605   -0.50338    0.08891    9
   39      0.121D-10      0.476D-12      -286.93134673    737.204654    0.45605   -0.50338    0.08891    9
   40      0.112D-10      0.438D-12      -286.93134673    737.204654    0.45605   -0.50338    0.08891    9
   41      0.167D-10      0.546D-12      -286.93134673    737.204654    0.45605   -0.50338    0.08891    9
   42      0.171D-10      0.474D-12      -286.93134673    737.204654    0.45605   -0.50338    0.08891    9
   43      0.128D-10      0.442D-12      -286.93134673    737.204654    0.45605   -0.50338    0.08891    9
   44      0.144D-10      0.502D-12      -286.93134673    737.204654    0.45605   -0.50338    0.08891    9
   45      0.199D-10      0.536D-12      -286.93134673    737.204654    0.45605   -0.50338    0.08891    9
   46      0.186D-10      0.535D-12      -286.93134673    737.204654    0.45605   -0.50338    0.08891    9
   47      0.183D-10      0.563D-12      -286.93134673    737.204654    0.45605   -0.50338    0.08891    0

 Final occupancy:  26

 !RHF STATE 1.1 Energy               -286.931346725153
 Nuclear energy                       273.71040820
 One-electron energy                 -929.24408177
 Two-electron energy                  368.60232684
 Virial quotient                       -1.00146482
 !RHF STATE 1.1 Dipole moment           0.45605086    -0.50337665     0.08890973
 Dipole moment /Debye                   1.15908975    -1.27937202     0.22597119

 Orbital energies:

         1.1          2.1          3.1          4.1          5.1          6.1          7.1          8.1          9.1         10.1
    -15.535005   -11.250603   -11.250138   -11.249649   -11.248781   -11.248630   -11.247824    -1.157506    -1.125559    -1.022831

        11.1         12.1         13.1         14.1         15.1         16.1         17.1         18.1         19.1         20.1
     -1.021181    -0.831260    -0.829916    -0.714503    -0.650456    -0.623922    -0.611679    -0.609817    -0.594142    -0.592887

        21.1         22.1         23.1         24.1         25.1         26.1         27.1         28.1
     -0.504903    -0.500632    -0.499490    -0.413438    -0.342942    -0.342023     0.063873     0.066434


 **********************************************************************************************************************************
 DATASETS  * FILE   NREC   LENGTH (MB)   RECORD NAMES
              1      19     1744.00       500      610      700      900      950      970     1000      129      960     1100   
                                          VAR    BASINP    GEOM    SYMINP    ZMAT    AOBASIS   BASIS     P2S    ABASIS      S 
                                         1400     1410     1200     1210     1080     1600     1650     1300     1700   
                                           T        V       H0       H01     AOSYM     SMH    MOLCAS    ERIS     OPER   

              2       3        1.40       700     1000     2100   
                                         GEOM     BASIS     RHF  

 PROGRAMS   *        TOTAL       RHF       INT
 CPU TIMES  *        99.56     83.80     15.70
 REAL TIME  *       113.08 SEC
 DISK USED  *         6.38 GB      
 GA USED    *         0.01 MB       (max)       0.00 MB       (current)
 **********************************************************************************************************************************


1PROGRAM * CCSD (Closed-shell coupled cluster)     Authors: C. Hampel, H.-J. Werner, 1991, M. Deegan, P.J. Knowles, 1992


 Convergence thresholds:  THRVAR = 1.00D-08  THRDEN = 1.00D-12

 CCSD(T)     terms to be evaluated (factor= 1.000)


 Number of core orbitals:           7 (   7 )
 Number of closed-shell orbitals:  19 (  19 )
 Number of external orbitals:     180 ( 180 )

 Molecular orbitals read from record     2100.2  Type=RHF/CANONICAL (state 1.1)

 Number of N-1 electron functions:              19
 Number of N-2 electron functions:             190
 Number of singly external CSFs:              3420
 Number of doubly external CSFs:           5849910
 Total number of CSFs:                     5853331

 Length of J-op  integral file:               0.00 MB
 Length of K-op  integral file:               2.96 MB
 Length of 3-ext integral record:             0.00 MB

 Memory could be reduced to 140.12 Mwords without degradation in triples

 Integral transformation finished. Total CPU:  16.89 sec, npass=  1  Memory used: 101.90 MW

 Reference energy:                   -286.93134673

 MP2 singlet pair energy:              -0.62063207
 MP2 triplet pair energy:              -0.38983434
 MP2 correlation energy:               -1.01046640
 MP2 total energy:                   -287.94181313

 SCS-MP2 correlation energy:           -0.98732206   (PS=  1.200000  PT=  0.333333)
 SCS-MP2 total energy:               -287.91866879

 ITER.      SQ.NORM     CORR.ENERGY   TOTAL ENERGY   ENERGY CHANGE        DEN1      VAR(S)    VAR(P)  DIIS     TIME
   1      1.38488291    -1.05475821  -287.98610494    -0.04429181    -0.01721315  0.36D-02  0.80D-02  1  1    69.32
   2      1.41439561    -1.06062080  -287.99196753    -0.00586259    -0.02705281  0.63D-04  0.10D-02  2  2   122.16
   3      1.42352678    -1.06071653  -287.99206326    -0.00009573    -0.00464358  0.27D-04  0.84D-04  3  3   175.01
   4      1.42746416    -1.06088527  -287.99223200    -0.00016874    -0.00121417  0.22D-05  0.11D-04  4  4   227.87
   5      1.42867772    -1.06091622  -287.99226294    -0.00003095    -0.00027318  0.27D-06  0.13D-05  5  5   280.73
   6      1.42898025    -1.06090598  -287.99225271     0.00001023    -0.00004347  0.23D-07  0.79D-07  6  6   333.63
   7      1.42902101    -1.06090761  -287.99225434    -0.00000163    -0.00000103  0.35D-08  0.82D-08  6  2   386.52
   8      1.42903019    -1.06090747  -287.99225420     0.00000014    -0.00000117  0.75D-09  0.76D-09  6  1   439.39
   9      1.42903002    -1.06090761  -287.99225433    -0.00000014     0.00000123  0.21D-09  0.92D-10  6  4   492.30
  10      1.42903122    -1.06090762  -287.99225434    -0.00000001    -0.00000018  0.57D-10  0.15D-10  6  3   545.18
  11      1.42903116    -1.06090763  -287.99225436    -0.00000002     0.00000013  0.14D-10  0.37D-11  6  5   598.06
  12      1.42903112    -1.06090764  -287.99225436    -0.00000000     0.00000003  0.15D-11  0.10D-11  6  6   650.94
  13      1.42903094    -1.06090764  -287.99225437    -0.00000000     0.00000006  0.69D-13  0.20D-12  6  2   703.87
  14      1.42903084    -1.06090764  -287.99225437    -0.00000000     0.00000002  0.80D-14  0.40D-13  6  1   756.76
  15      1.42903078    -1.06090764  -287.99225437    -0.00000000     0.00000001  0.88D-15  0.53D-14  6  3   809.63
  16      1.42903076    -1.06090764  -287.99225437    -0.00000000     0.00000000  0.12D-15  0.37D-15  6  4   862.54
  17      1.42903076    -1.06090764  -287.99225437    -0.00000000     0.00000000  0.30D-16  0.44D-16  6  5   915.42
  18      1.42903076    -1.06090764  -287.99225437    -0.00000000     0.00000000  0.77D-17  0.70D-17  6  6   968.31
  19      1.42903076    -1.06090764  -287.99225437    -0.00000000     0.00000000  0.22D-17  0.73D-18  6  2  1021.19
  20      1.42903076    -1.06090764  -287.99225437    -0.00000000     0.00000000  0.69D-18  0.17D-18  6  1  1074.09
  21      1.42903076    -1.06090764  -287.99225437    -0.00000000     0.00000000  0.29D-18  0.71D-19  6  2  1126.99
  22      1.42903076    -1.06090764  -287.99225437    -0.00000000     0.00000000  0.12D-18  0.34D-19  6  3  1179.91
  23      1.42903076    -1.06090764  -287.99225437    -0.00000000     0.00000000  0.48D-19  0.17D-19  6  4  1232.83

 Norm of t1 vector:      0.08385683      S-energy:     0.00000000      T1 diagnostic:  0.00961904
                                                                       D1 diagnostic:  0.02615295

 Doubles amplitudes (print threshold =  0.500E-01):

         I         J         SYM. A    SYM. B    A         B      T(IJ, AB)

        18        18         1         1         7         7     -0.05379930
        19        19         1         1         6         6     -0.05180632


 Total CPU time for triples:   1024.70 sec


 RESULTS
 =======

  Reference energy                   -286.931346725152
  CCSD singlet pair energy             -0.711156097047
  CCSD triplet pair energy             -0.349751545715
  CCSD correlation energy              -1.060907642762

  Triples (T) contribution             -0.045602862901
  Total correlation energy             -1.106510505663

  CCSD total energy                  -287.992254367914
  CCSD[T] energy                     -288.038727452534
  CCSD-T energy                      -288.037468680397
 !CCSD(T) total energy               -288.037857230815

 Timing summary (sec):

 STEP                 CPU(USER)    SYS     CPU(TOT)    WALL
 Transformation         17.52      0.92     18.44     18.45
 CCSD iterations      1215.33     12.92   1228.25   1228.38
 Triples              1024.70     11.39   1036.09   1036.14

 Program statistics:

 Available memory in ccsd:               999998456
 Min. memory needed in ccsd:              14392275
 Max. memory used in ccsd:                19775697
 Max. memory used in cckext:              16737545 (23 integral passes)



 **********************************************************************************************************************************
 DATASETS  * FILE   NREC   LENGTH (MB)   RECORD NAMES
              1      20     2287.61       500      610      700      900      950      970     1000      129      960     1100   
                                          VAR    BASINP    GEOM    SYMINP    ZMAT    AOBASIS   BASIS     P2S    ABASIS      S 
                                         1400     1410     1200     1210     1080     1600     1650     1300     1700     1380   
                                           T        V       H0       H01     AOSYM     SMH    MOLCAS    ERIS     OPER     JKOP   

              2       3        1.40       700     1000     2100   
                                         GEOM     BASIS     RHF  

 PROGRAMS   *        TOTAL   CCSD(T)       RHF       INT
 CPU TIMES  *      2357.13   2257.57     83.80     15.70
 REAL TIME  *      2396.17 SEC
 DISK USED  *         6.38 GB      
 GA USED    *         0.01 MB       (max)       0.00 MB       (current)
 **********************************************************************************************************************************

        CCSD(T)         RHF-SCF 
   -288.03785723   -286.93134673
 **********************************************************************************************************************************
 Variable memory released
