
 Primary working directories    : /tmp/999602.200.gen6.q
 Secondary working directories  : /tmp/999602.200.gen6.q
 Wavefunction directory         : /home/vulcan/jj04645/wfu/
 Main file repository           : /tmp/999602.200.gen6.q/

 ARCHNAME  : Linux/x86_64
 FC        : /opt/intel/compilers_and_libraries_2016.1.150/linux/bin/intel64/ifort
 FCVERSION : 16.0.1
 BLASLIB   : -mkl
 id        : ccgc

 Nodes     nprocs
 n087         1
 ga_uses_ma=false, calling ma_init with nominal heap.
 GA-space will be limited to   8.0 MW (determined by -G option)

 Using customized tuning parameters: mindgm=10; mindgv=16; mindgc=4; mindgr=1; noblas=0; mincuda=1000; minvec=7
 default implementation of scratch files=df  

 ***,Optimization of 1,3-difluorobenzene
 memory,1000,m
 gthresh,energy=1.0d-12,orbital=1.0d-10,oneint=1.0d-16,twoint=1.0d-16,optgrad=1.0d-6,compress=1.0d-13
 geomtyp=xyz
 
 bohr
 geometry = {
  F    0.0000000000    4.4387527650   -1.7578157170
  C    0.0000000000    2.2427135951   -0.4860310165
  C   -0.0000000000   -2.2972387368    2.1398036353
  C    0.0000000000   -0.0020382646   -1.8511365305
  C   -0.0000000000    2.3019209240    2.1451287290
  C   -0.0000000000   -0.0020369490    3.4430667622
  C   -0.0000000000   -2.2380780907   -0.4813546353
  H    0.0000000000   -0.0053555338   -3.8925298282
  H   -0.0000000000    4.0954647064    3.1221906282
  H   -0.0000000000   -0.0054992538    5.4880817204
  F   -0.0000000000   -4.4361378804   -1.7496438457
  H   -0.0000000000   -4.0924672813    3.1137665336
 }
 
 basis=VDZ
 {rhf;maxit,200}
 {ccsd(t);maxit,200}

 Variables initialized (661), CPU time= 0.01 sec
 Commands  initialized (458), CPU time= 0.00 sec, 486 directives.
 Default parameters read. Elapsed time= 0.03 sec

 Checking input...
 Passed
1


                                         ***  PROGRAM SYSTEM MOLPRO  ***
                         Copyright, University College Cardiff Consultants Limited, 2008

                                    Version 2010.1 linked May 16 2016 07:17:05


 **********************************************************************************************************************************
 LABEL *   Optimization of 1,3-difluorobenzene                                           
 Linux-4.4.3/n087(x86_64) 64 bit mpp version                                             DATE: 07-Feb-24          TIME: 12:47:21  
 **********************************************************************************************************************************

 SHA1:             9e8077add272b0f3cad6f7df79ec5211205f459d
 **********************************************************************************************************************************

 THRESHOLDS:

 ZERO    =  1.00D-12  ONEINT  =  1.00D-16  TWOINT  =  1.00D-16  PREFAC  =  1.00D-14  LOCALI  =  1.00D-09  EORDER  =  1.00D-04
 ENERGY  =  1.00D-12  ETEST   =  0.00D+00  EDENS   =  0.00D+00  THRDEDEF=  1.00D-06  GRADIENT=  1.00D-02  STEP    =  1.00D-03
 ORBITAL =  1.00D-10  CIVEC   =  1.00D-05  COEFF   =  1.00D-04  PRINTCI =  5.00D-02  PUNCHCI =  9.90D+01  OPTGRAD =  1.00D-06
 OPTENERG=  1.00D-06  OPTSTEP =  3.00D-04  THRGRAD =  1.00D-10  COMPRESS=  1.00D-13  VARMIN  =  1.00D-07  VARMAX  =  1.00D-03
 THRDOUB =  0.00D+00  THRDIV  =  1.00D-05  THRRED  =  1.00D-07  THRPSP  =  1.00D+00  THRDC   =  1.00D-10  THRCS   =  1.00D-10
 THRNRM  =  1.00D-08  THREQ   =  0.00D+00  THRDE   =  1.00D+00  THRREF  =  1.00D-05  SPARFAC =  1.00D+00  THRDLP  =  1.00D-07
 THRDIA  =  1.00D-10  THRDLS  =  1.00D-07  THRGPS  =  0.00D+00  THRKEX  =  0.00D+00  THRDIS  =  2.00D-01  THRVAR  =  1.00D-10
 THRLOC  =  1.00D-06  THRGAP  =  1.00D-06  THRLOCT = -1.00D+00  THRGAPT = -1.00D+00  THRORB  =  1.00D-06  THRMLTP =  0.00D+00
 THRCPQCI=  1.00D-10  KEXTA   =  0.00D+00  THRCOARS=  0.00D+00  SYMTOL  =  1.00D-06  GRADTOL =  1.00D-06  THROVL  =  1.00D-08
 THRORTH =  1.00D-08  GRID    =  1.00D-06  GRIDMAX =  1.00D-03  DTMAX   =  0.00D+00

 SETTING GEOMTYP        =    XYZ
 ZUNIT=BOHR
 

 Variable memory set to 1000000000 words,  buffer space   230000 words

 SETTING BASIS          =    VDZ


 Recomputing integrals since basis changed


 Using spherical harmonics

 Library entry F      S cc-pVDZ              selected for orbital group  1
 Library entry F      P cc-pVDZ              selected for orbital group  1
 Library entry F      D cc-pVDZ              selected for orbital group  1
 Library entry C      S cc-pVDZ              selected for orbital group  2
 Library entry C      P cc-pVDZ              selected for orbital group  2
 Library entry C      D cc-pVDZ              selected for orbital group  2
 Library entry H      S cc-pVDZ              selected for orbital group  3
 Library entry H      P cc-pVDZ              selected for orbital group  3

1PROGRAM * SEWARD (Integral evaluation for generally contracted gaussian basis sets)     Author: Roland Lindh, 1990

 Geometry written to block  1 of record 700


 Point group  Cs  



 ATOMIC COORDINATES

 NR  ATOM    CHARGE       X              Y              Z

   1  F       9.00    0.000000000    4.438752765   -1.757815717
   2  C       6.00    0.000000000    2.242713595   -0.486031017
   3  C       6.00    0.000000000   -2.297238737    2.139803635
   4  C       6.00    0.000000000   -0.002038265   -1.851136531
   5  C       6.00    0.000000000    2.301920924    2.145128729
   6  C       6.00    0.000000000   -0.002036949    3.443066762
   7  C       6.00    0.000000000   -2.238078091   -0.481354635
   8  H       1.00    0.000000000   -0.005355534   -3.892529828
   9  H       1.00    0.000000000    4.095464706    3.122190628
  10  H       1.00    0.000000000   -0.005499254    5.488081720
  11  F       9.00    0.000000000   -4.436137880   -1.749643846
  12  H       1.00    0.000000000   -4.092467281    3.113766534

 Bond lengths in Bohr (Angstrom)

 1-2  2.537720308  2-4  2.627246463  2-5  2.631825814  3-6  2.639402589  3-7  2.621825826
     ( 1.342903750)     ( 1.390278951)     ( 1.392702239)     ( 1.396711695)     ( 1.387410473)

  3-12  2.042412606   4- 7  2.622246469   4- 8  2.041395993   5- 6  2.644402583   5- 9  2.042412606
       ( 1.080798203)       ( 1.387633068)       ( 1.080260234)       ( 1.399357578)       ( 1.080798203)

  6-10  2.045017889   7-11  2.537720308
       ( 1.082176859)       ( 1.342903750)

 Bond angles

  1-2-4  118.61860222   1-2-5  118.78720028   2-4-7  117.20354009   2-4-8  121.39822995

  2- 5- 6  118.10572611   2- 5- 9  119.86912500   3- 6- 5  121.01639265   3- 6-10  119.49180367

  3- 7- 4  122.78430601   3- 7-11  118.69214602   4- 2- 5  122.59419751   4- 7-11  118.52354797

  5- 6-10  119.49180368   6- 3- 7  118.29583763   6- 3-12  121.93009313   6- 5- 9  122.02514889

  7- 3-12  119.77406924   7- 4- 8  121.39822995

 NUCLEAR CHARGE:                   58
 NUMBER OF PRIMITIVE AOS:         244
 NUMBER OF SYMMETRY AOS:          236
 NUMBER OF CONTRACTIONS:          132   (  96A'  +  36A"  )
 NUMBER OF CORE ORBITALS:           8   (   8A'  +   0A"  )
 NUMBER OF VALENCE ORBITALS:       36   (  28A'  +   8A"  )


 NUCLEAR REPULSION ENERGY  342.38233988


 Eigenvalues of metric

         1 0.394E-03 0.120E-02 0.169E-02 0.264E-02 0.306E-02 0.316E-02 0.125E-01 0.130E-01
         2 0.413E-01 0.908E-01 0.100E+00 0.162E+00 0.166E+00 0.185E+00 0.190E+00 0.214E+00


 Contracted 2-electron integrals neglected if value below      1.0D-16
 AO integral compression algorithm  1   Integral accuracy      1.0D-16

     155.714 MB (compressed) written to integral file ( 89.6%)

     Node minimum: 155.714 MB, node maximum: 155.714 MB


 NUMBER OF SORTED TWO-ELECTRON INTEGRALS:   20366295.     BUFFER LENGTH:  32768
 NUMBER OF SEGMENTS:   2  SEGMENT LENGTH:   15994311      RECORD LENGTH: 524288

 Memory used in sort:      16.55 MW

 SORT1 READ    21748863. AND WROTE    19839522. INTEGRALS IN     57 RECORDS. CPU TIME:     0.27 SEC, REAL TIME:     0.49 SEC
 SORT2 READ    19839522. AND WROTE    20366295. INTEGRALS IN    594 RECORDS. CPU TIME:     0.19 SEC, REAL TIME:     0.26 SEC

 FILE SIZES:   FILE 1:   148.1 MBYTE,  FILE 4:   239.1 MBYTE,   TOTAL:    387.2 MBYTE

 OPERATOR DM      FOR CENTER  0  COORDINATES:    0.000000    0.000000    0.000000


 **********************************************************************************************************************************
 DATASETS  * FILE   NREC   LENGTH (MB)   RECORD NAMES
              1      19      148.25       500      610      700      900      950      970     1000      129      960     1100   
                                          VAR    BASINP    GEOM    SYMINP    ZMAT    AOBASIS   BASIS     P2S    ABASIS      S 
                                         1400     1410     1200     1210     1080     1600     1650     1300     1700   
                                           T        V       H0       H01     AOSYM     SMH    MOLCAS    ERIS     OPER   

 PROGRAMS   *        TOTAL       INT
 CPU TIMES  *         3.57      3.53
 REAL TIME  *         4.13 SEC
 DISK USED  *       543.83 MB      
 GA USED    *         0.00 MB       (max)       0.00 MB       (current)
 **********************************************************************************************************************************

1PROGRAM * RHF-SCF (CLOSED SHELL)       Authors: W. Meyer, H.-J. Werner


 NUMBER OF ELECTRONS:      29+   29-
 CONVERGENCE THRESHOLDS:    1.00E-10 (Density)    1.00E-13 (Energy)
 MAX. NUMBER OF ITERATIONS:      200
 INTERPOLATION TYPE:            DIIS
 INTERPOLATION STEPS:              2 (START)      1 (STEP)
 LEVEL SHIFTS:                  0.00 (CLOSED)  0.00 (OPEN) 



 Orbital guess generated from atomic densities. Full valence occupancy:   36   8

 Molecular orbital dump at record        2100.2

 Initial alpha occupancy:  24   5
 Initial beta  occupancy:  24   5
 Wave function symmetry:    1

 ITERATION    DDIFF          GRAD             ENERGY        2-EL.EN.            DIPOLE MOMENTS         DIIS
    1      0.000D+00      0.000D+00      -428.34400466    993.098162    0.00000    0.01103    0.46719    0
    2      0.000D+00      0.778D-02      -428.41806587    992.636278    0.00000   -0.00585    0.91983    1
    3      0.159D-01      0.353D-02      -428.43188122    992.969230    0.00000    0.00290    0.61577    2
    4      0.506D-02      0.936D-03      -428.43343715    993.026322    0.00000    0.00021    0.72949    3
    5      0.189D-02      0.284D-03      -428.43357250    992.990930    0.00000    0.00093    0.69636    4
    6      0.479D-03      0.591D-04      -428.43358020    993.000235    0.00000    0.00086    0.70069    5
    7      0.126D-03      0.178D-04      -428.43358125    993.003534    0.00000    0.00089    0.69906    6
    8      0.427D-04      0.635D-05      -428.43358138    993.002883    0.00000    0.00088    0.69948    7
    9      0.142D-04      0.290D-05      -428.43358141    993.003275    0.00000    0.00089    0.69921    8
   10      0.768D-05      0.111D-05      -428.43358142    993.003837    0.00000    0.00088    0.69927    8
   11      0.348D-05      0.624D-06      -428.43358142    993.003748    0.00000    0.00089    0.69925    8
   12      0.213D-05      0.247D-06      -428.43358142    993.003845    0.00000    0.00089    0.69925    8
   13      0.121D-05      0.417D-07      -428.43358142    993.003871    0.00000    0.00089    0.69925    8
   14      0.135D-06      0.160D-07      -428.43358142    993.003866    0.00000    0.00089    0.69925    9
   15      0.538D-07      0.387D-08      -428.43358142    993.003866    0.00000    0.00089    0.69925    9
   16      0.113D-07      0.158D-08      -428.43358142    993.003866    0.00000    0.00089    0.69925    9
   17      0.452D-08      0.564D-09      -428.43358142    993.003866    0.00000    0.00089    0.69925    8
   18      0.151D-08      0.163D-09      -428.43358142    993.003866    0.00000    0.00089    0.69925    8
   19      0.355D-09      0.630D-10      -428.43358142    993.003866    0.00000    0.00089    0.69925    8
   20      0.130D-09      0.135D-10      -428.43358142    993.003866    0.00000    0.00089    0.69925    8
   21      0.347D-10      0.424D-11      -428.43358142    993.003866    0.00000    0.00089    0.69925    8
   22      0.103D-10      0.178D-11      -428.43358142    993.003866    0.00000    0.00089    0.69925    8
   23      0.554D-11      0.900D-12      -428.43358142    993.003866    0.00000    0.00089    0.69925    8
   24      0.364D-11      0.334D-12      -428.43358142    993.003866    0.00000    0.00089    0.69925    8
   25      0.241D-11      0.157D-12      -428.43358142    993.003866    0.00000    0.00089    0.69925    8
   26      0.996D-12      0.103D-12      -428.43358142    993.003866    0.00000    0.00089    0.69925    9
   27      0.871D-12      0.712D-13      -428.43358142    993.003866    0.00000    0.00089    0.69925    0

 Final occupancy:  24   5

 !RHF STATE 1.1 Energy               -428.433581422373
 Nuclear energy                       342.38233988
 One-electron energy                -1267.31785438
 Two-electron energy                  496.50193308
 Virial quotient                       -1.00059988
 !RHF STATE 1.1 Dipole moment           0.00000000     0.00088574     0.69925201
 Dipole moment /Debye                   0.00000000     0.00225117     1.77720493

 Orbital energies:

         1.1          2.1          3.1          4.1          5.1          6.1          7.1          8.1          9.1         10.1
    -26.321130   -26.320640   -11.349960   -11.348892   -11.273075   -11.258816   -11.256365   -11.255338    -1.639556    -1.638898

        11.1         12.1         13.1         14.1         15.1         16.1         17.1         18.1         19.1         20.1
     -1.178991    -1.046917    -1.036864    -0.875147    -0.865004    -0.774608    -0.741044    -0.702928    -0.684976    -0.668295

        21.1         22.1         23.1         24.1         25.1         26.1
     -0.623022    -0.586078    -0.555411    -0.532723     0.180025     0.221110

         1.2          2.2          3.2          4.2          5.2          6.2          7.2
     -0.703938    -0.695901    -0.513726    -0.360471    -0.348279     0.113866     0.131773


 **********************************************************************************************************************************
 DATASETS  * FILE   NREC   LENGTH (MB)   RECORD NAMES
              1      19      148.25       500      610      700      900      950      970     1000      129      960     1100   
                                          VAR    BASINP    GEOM    SYMINP    ZMAT    AOBASIS   BASIS     P2S    ABASIS      S 
                                         1400     1410     1200     1210     1080     1600     1650     1300     1700   
                                           T        V       H0       H01     AOSYM     SMH    MOLCAS    ERIS     OPER   

              2       3        0.68       700     1000     2100   
                                         GEOM     BASIS     RHF  

 PROGRAMS   *        TOTAL       RHF       INT
 CPU TIMES  *         6.31      2.73      3.53
 REAL TIME  *         7.28 SEC
 DISK USED  *       543.83 MB      
 GA USED    *         0.00 MB       (max)       0.00 MB       (current)
 **********************************************************************************************************************************


1PROGRAM * CCSD (Closed-shell coupled cluster)     Authors: C. Hampel, H.-J. Werner, 1991, M. Deegan, P.J. Knowles, 1992


 Convergence thresholds:  THRVAR = 1.00D-08  THRDEN = 1.00D-12

 CCSD(T)     terms to be evaluated (factor= 1.000)


 Number of core orbitals:           8 (   8   0 )
 Number of closed-shell orbitals:  21 (  16   5 )
 Number of external orbitals:     103 (  72  31 )

 Molecular orbitals read from record     2100.2  Type=RHF/CANONICAL (state 1.1)

 Number of N-1 electron functions:              21
 Number of N-2 electron functions:             231
 Number of singly external CSFs:              1307
 Number of doubly external CSFs:           1221574
 Total number of CSFs:                     1222882

 Length of J-op  integral file:               0.00 MB
 Length of K-op  integral file:               0.76 MB
 Length of 3-ext integral record:             0.00 MB

 Memory could be reduced to 16.61 Mwords without degradation in triples

 Integral transformation finished. Total CPU:   0.77 sec, npass=  1  Memory used:   9.88 MW

 Reference energy:                   -428.43358142

 MP2 singlet pair energy:              -0.67263208
 MP2 triplet pair energy:              -0.46572521
 MP2 correlation energy:               -1.13835729
 MP2 total energy:                   -429.57193872

 SCS-MP2 correlation energy:           -1.09694308   (PS=  1.200000  PT=  0.333333)
 SCS-MP2 total energy:               -429.53052450

 ITER.      SQ.NORM     CORR.ENERGY   TOTAL ENERGY   ENERGY CHANGE        DEN1      VAR(S)    VAR(P)  DIIS     TIME
   1      1.36210234    -1.16810478  -429.60168620    -0.02974748     0.00048577  0.67D-02  0.73D-02  1  1     3.34
   2      1.38856999    -1.17163804  -429.60521946    -0.00353326    -0.02699836  0.13D-03  0.11D-02  2  2     5.96
   3      1.39936130    -1.17223954  -429.60582096    -0.00060150    -0.00537789  0.86D-04  0.10D-03  3  3     8.58
   4      1.40339339    -1.17216523  -429.60574665     0.00007431    -0.00142460  0.48D-05  0.20D-04  4  4    11.20
   5      1.40523592    -1.17219567  -429.60577709    -0.00003044    -0.00045182  0.91D-06  0.22D-05  5  5    13.84
   6      1.40571255    -1.17220141  -429.60578283    -0.00000574    -0.00006814  0.12D-06  0.24D-06  6  6    16.47
   7      1.40579973    -1.17219640  -429.60577782     0.00000502     0.00000032  0.28D-07  0.22D-07  6  1    19.09
   8      1.40582476    -1.17219751  -429.60577893    -0.00000111    -0.00000758  0.61D-08  0.30D-08  6  2    21.73
   9      1.40582608    -1.17219817  -429.60577960    -0.00000066     0.00000229  0.17D-08  0.34D-09  6  3    24.36
  10      1.40582845    -1.17219794  -429.60577936     0.00000023    -0.00000121  0.38D-09  0.76D-10  6  4    26.99
  11      1.40582850    -1.17219818  -429.60577960    -0.00000024     0.00000032  0.46D-10  0.20D-10  6  5    29.63
  12      1.40582870    -1.17219816  -429.60577958     0.00000002    -0.00000007  0.11D-10  0.24D-11  6  6    32.25
  13      1.40582870    -1.17219818  -429.60577960    -0.00000002     0.00000005  0.58D-12  0.56D-12  6  1    34.87
  14      1.40582869    -1.17219819  -429.60577961    -0.00000001     0.00000002  0.15D-12  0.87D-13  6  2    37.50
  15      1.40582869    -1.17219819  -429.60577961     0.00000000     0.00000000  0.40D-13  0.14D-13  6  3    40.14
  16      1.40582869    -1.17219819  -429.60577961    -0.00000000     0.00000000  0.63D-14  0.43D-14  6  4    42.77
  17      1.40582869    -1.17219819  -429.60577961    -0.00000000    -0.00000000  0.16D-14  0.73D-15  6  5    45.40
  18      1.40582869    -1.17219819  -429.60577961    -0.00000000    -0.00000000  0.21D-15  0.11D-15  6  6    48.03
  19      1.40582869    -1.17219819  -429.60577961    -0.00000000    -0.00000000  0.32D-16  0.23D-16  6  1    50.67
  20      1.40582870    -1.17219819  -429.60577961     0.00000000    -0.00000000  0.13D-16  0.30D-17  6  2    53.31
  21      1.40582870    -1.17219819  -429.60577961    -0.00000000    -0.00000000  0.15D-17  0.69D-18  6  3    55.93
  22      1.40582870    -1.17219819  -429.60577961    -0.00000000    -0.00000000  0.47D-18  0.15D-18  6  4    58.55
  23      1.40582870    -1.17219819  -429.60577961     0.00000000    -0.00000000  0.99D-19  0.26D-19  6  5    61.18
  24      1.40582870    -1.17219819  -429.60577961    -0.00000000    -0.00000000  0.12D-19  0.60D-20  6  6    63.82
  25      1.40582870    -1.17219819  -429.60577961    -0.00000000     0.00000000  0.36D-20  0.16D-20  6  1    66.45

 Norm of t1 vector:      0.10828987      S-energy:     0.00000000      T1 diagnostic:  0.01181539
                                                                       D1 diagnostic:  0.03162039

 Doubles amplitudes (print threshold =  0.500E-01):

         I         J         SYM. A    SYM. B    A         B      T(IJ, AB)

        20        20         2         2         1         1     -0.08678120
        21        20         2         2         1         2      0.05132702
        21        21         2         2         2         2     -0.08407176


 Total CPU time for triples:     41.61 sec


 RESULTS
 =======

  Reference energy                   -428.433581422371
  CCSD singlet pair energy             -0.756713730377
  CCSD triplet pair energy             -0.415484456744
  CCSD correlation energy              -1.172198187121

  Triples (T) contribution             -0.043064385566
  Total correlation energy             -1.215262572686

  CCSD total energy                  -429.605779609492
  CCSD[T] energy                     -429.650843693778
  CCSD-T energy                      -429.648119735047
 !CCSD(T) total energy               -429.648843995058

 Timing summary (sec):

 STEP                 CPU(USER)    SYS     CPU(TOT)    WALL
 Transformation          0.81      0.12      0.93      0.93
 CCSD iterations        65.65      1.77     67.42     67.51
 Triples                41.61      1.26     42.87     42.89

 Program statistics:

 Available memory in ccsd:               999998136
 Min. memory needed in ccsd:               3240252
 Max. memory used in ccsd:                 4334402
 Max. memory used in cckext:               4782293 (25 integral passes)



 **********************************************************************************************************************************
 DATASETS  * FILE   NREC   LENGTH (MB)   RECORD NAMES
              1      20      222.50       500      610      700      900      950      970     1000      129      960     1100   
                                          VAR    BASINP    GEOM    SYMINP    ZMAT    AOBASIS   BASIS     P2S    ABASIS      S 
                                         1400     1410     1200     1210     1080     1600     1650     1300     1700     1380   
                                           T        V       H0       H01     AOSYM     SMH    MOLCAS    ERIS     OPER     JKOP   

              2       3        0.68       700     1000     2100   
                                         GEOM     BASIS     RHF  

 PROGRAMS   *        TOTAL   CCSD(T)       RHF       INT
 CPU TIMES  *       114.39    108.08      2.73      3.53
 REAL TIME  *       118.65 SEC
 DISK USED  *       591.22 MB      
 GA USED    *         0.00 MB       (max)       0.00 MB       (current)
 **********************************************************************************************************************************

        CCSD(T)         RHF-SCF 
   -429.64884400   -428.43358142
 **********************************************************************************************************************************
 Variable memory released
