
 Primary working directories    : /tmp/943448.410.gen6.q
 Secondary working directories  : /tmp/943448.410.gen6.q
 Wavefunction directory         : /home/vulcan/mel64643/wfu/
 Main file repository           : /tmp/943448.410.gen6.q/

 ARCHNAME  : Linux/x86_64
 FC        : /opt/intel/compilers_and_libraries_2016.1.150/linux/bin/intel64/ifort
 FCVERSION : 16.0.1
 BLASLIB   : -mkl
 id        : ccgc

 Nodes     nprocs
 n088         1
 ga_uses_ma=false, calling ma_init with nominal heap.
 GA-space will be limited to   8.0 MW (determined by -G option)

 Using customized tuning parameters: mindgm=10; mindgv=16; mindgc=4; mindgr=1; noblas=0; mincuda=1000; minvec=7
 default implementation of scratch files=df  

 ***,Optimization of nh3_nitrosmethane
 memory,1000,m
 gthresh,energy=1.0d-12,orbital=1.0d-10,oneint=1.0d-16,twoint=1.0d-16,optgrad=1.0d-6,compress=1.0d-13
 geomtyp=xyz
 
 bohr
 geometry = {
  N   -5.2233805431   -0.1848650289   -0.0034592695
  H   -6.3055293648    0.2267350045   -1.5331898071
  H   -3.7594204338    1.0586535376    0.0028483562
  H   -6.2901216666    0.2331779622    1.5353193402
  H   -0.9251768681   -2.3992472962   -0.0073754288
  H    1.8866181584   -3.4361481012   -1.6645033916
  H    1.8768811989   -3.4317849364    1.6688597118
  C    1.1353240570   -2.4696617602   -0.0012644102
  N    2.2661917513    0.0979835799   -0.0013219637
  O    0.7027322008    1.7822140477    0.0040868627
 }
 
 basis=aug-cc-pvdz
 {rhf;maxit,200}
 {ccsd(t);maxit,200}

 Variables initialized (661), CPU time= 0.00 sec
 Commands  initialized (458), CPU time= 0.01 sec, 486 directives.
 Default parameters read. Elapsed time= 0.04 sec

 Checking input...
 Passed
1


                                         ***  PROGRAM SYSTEM MOLPRO  ***
                         Copyright, University College Cardiff Consultants Limited, 2008

                                    Version 2010.1 linked May 16 2016 07:17:05


 **********************************************************************************************************************************
 LABEL *   Optimization of nh3_nitrosmethane                                             
 Linux-4.4.3/n088(x86_64) 64 bit mpp version                                             DATE: 26-Oct-23          TIME: 14:22:49  
 **********************************************************************************************************************************

 SHA1:             9e8077add272b0f3cad6f7df79ec5211205f459d
 **********************************************************************************************************************************

 THRESHOLDS:

 ZERO    =  1.00D-12  ONEINT  =  1.00D-16  TWOINT  =  1.00D-16  PREFAC  =  1.00D-14  LOCALI  =  1.00D-09  EORDER  =  1.00D-04
 ENERGY  =  1.00D-12  ETEST   =  0.00D+00  EDENS   =  0.00D+00  THRDEDEF=  1.00D-06  GRADIENT=  1.00D-02  STEP    =  1.00D-03
 ORBITAL =  1.00D-10  CIVEC   =  1.00D-05  COEFF   =  1.00D-04  PRINTCI =  5.00D-02  PUNCHCI =  9.90D+01  OPTGRAD =  1.00D-06
 OPTENERG=  1.00D-06  OPTSTEP =  3.00D-04  THRGRAD =  1.00D-10  COMPRESS=  1.00D-13  VARMIN  =  1.00D-07  VARMAX  =  1.00D-03
 THRDOUB =  0.00D+00  THRDIV  =  1.00D-05  THRRED  =  1.00D-07  THRPSP  =  1.00D+00  THRDC   =  1.00D-10  THRCS   =  1.00D-10
 THRNRM  =  1.00D-08  THREQ   =  0.00D+00  THRDE   =  1.00D+00  THRREF  =  1.00D-05  SPARFAC =  1.00D+00  THRDLP  =  1.00D-07
 THRDIA  =  1.00D-10  THRDLS  =  1.00D-07  THRGPS  =  0.00D+00  THRKEX  =  0.00D+00  THRDIS  =  2.00D-01  THRVAR  =  1.00D-10
 THRLOC  =  1.00D-06  THRGAP  =  1.00D-06  THRLOCT = -1.00D+00  THRGAPT = -1.00D+00  THRORB  =  1.00D-06  THRMLTP =  0.00D+00
 THRCPQCI=  1.00D-10  KEXTA   =  0.00D+00  THRCOARS=  0.00D+00  SYMTOL  =  1.00D-06  GRADTOL =  1.00D-06  THROVL  =  1.00D-08
 THRORTH =  1.00D-08  GRID    =  1.00D-06  GRIDMAX =  1.00D-03  DTMAX   =  0.00D+00

 SETTING GEOMTYP        =    XYZ
 ZUNIT=BOHR
 

 Variable memory set to 1000000000 words,  buffer space   230000 words

 SETTING BASIS          =    AUG-CC-PVDZ


 Recomputing integrals since basis changed


 Using spherical harmonics

 Library entry N      S aug-cc-pVDZ          selected for orbital group  1
 Library entry N      P aug-cc-pVDZ          selected for orbital group  1
 Library entry N      D aug-cc-pVDZ          selected for orbital group  1
 Library entry H      S aug-cc-pVDZ          selected for orbital group  2
 Library entry H      P aug-cc-pVDZ          selected for orbital group  2
 Library entry C      S aug-cc-pVDZ          selected for orbital group  3
 Library entry C      P aug-cc-pVDZ          selected for orbital group  3
 Library entry C      D aug-cc-pVDZ          selected for orbital group  3
 Library entry O      S aug-cc-pVDZ          selected for orbital group  5
 Library entry O      P aug-cc-pVDZ          selected for orbital group  5
 Library entry O      D aug-cc-pVDZ          selected for orbital group  5

1PROGRAM * SEWARD (Integral evaluation for generally contracted gaussian basis sets)     Author: Roland Lindh, 1990

 Geometry written to block  1 of record 700


 Point group  C1  



 ATOMIC COORDINATES

 NR  ATOM    CHARGE       X              Y              Z

   1  N       7.00   -5.223380543   -0.184865029   -0.003459269
   2  H       1.00   -6.305529365    0.226735005   -1.533189807
   3  H       1.00   -3.759420434    1.058653538    0.002848356
   4  H       1.00   -6.290121667    0.233177962    1.535319340
   5  H       1.00   -0.925176868   -2.399247296   -0.007375429
   6  H       1.00    1.886618158   -3.436148101   -1.664503392
   7  H       1.00    1.876881199   -3.431784936    1.668859712
   8  C       6.00    1.135324057   -2.469661760   -0.001264410
   9  N       7.00    2.266191751    0.097983580   -0.001321964
  10  O       8.00    0.702732201    1.782214048    0.004086863

 Bond lengths in Bohr (Angstrom)

 1-2  1.918472355  1-3  1.920822067  1-4  1.918472355  5-8  2.061712784  6-8  2.065164057
     ( 1.015211846)     ( 1.016455260)     ( 1.015211846)     ( 1.091011417)     ( 1.092837752)

  7- 8  2.065164057   8- 9  2.805648648   9-10  2.298057286
       ( 1.092837752)       ( 1.484685321)       ( 1.216079541)

 Bond angles

  2-1-3  107.07540291   2-1-4  106.21038518   3-1-4  106.26512612   5-8-6  112.15889786

  5-8-7  112.15889786   5-8-9  111.81278753   6-8-7  107.61735053   6-8-9  106.35838670

  7- 8- 9  106.35838670   8- 9-10  113.35946297

 NUCLEAR CHARGE:                   34
 NUMBER OF PRIMITIVE AOS:         214
 NUMBER OF SYMMETRY AOS:          206
 NUMBER OF CONTRACTIONS:          146   ( 146A   )
 NUMBER OF CORE ORBITALS:           4   (   4A   )
 NUMBER OF VALENCE ORBITALS:       22   (  22A   )


 NUCLEAR REPULSION ENERGY  117.39094918


 Eigenvalues of metric

         1 0.324E-03 0.518E-03 0.620E-03 0.674E-03 0.106E-02 0.117E-02 0.126E-02 0.186E-02


 Contracted 2-electron integrals neglected if value below      1.0D-16
 AO integral compression algorithm  1   Integral accuracy      1.0D-16

     491.520 MB (compressed) written to integral file ( 91.7%)

     Node minimum: 491.520 MB, node maximum: 491.520 MB


 NUMBER OF SORTED TWO-ELECTRON INTEGRALS:   57582546.     BUFFER LENGTH:  32768
 NUMBER OF SEGMENTS:   4  SEGMENT LENGTH:   15999503      RECORD LENGTH: 524288

 Memory used in sort:      16.56 MW

 SORT1 READ    67015859. AND WROTE    57257517. INTEGRALS IN    166 RECORDS. CPU TIME:     0.58 SEC, REAL TIME:     0.93 SEC
 SORT2 READ    57257517. AND WROTE    57582546. INTEGRALS IN   1875 RECORDS. CPU TIME:     0.49 SEC, REAL TIME:     0.70 SEC

 FILE SIZES:   FILE 1:   431.9 MBYTE,  FILE 4:   696.3 MBYTE,   TOTAL:   1128.2 MBYTE

 OPERATOR DM      FOR CENTER  0  COORDINATES:    0.000000    0.000000    0.000000


 **********************************************************************************************************************************
 DATASETS  * FILE   NREC   LENGTH (MB)   RECORD NAMES
              1      19      432.20       500      610      700      900      950      970     1000      129      960     1100   
                                          VAR    BASINP    GEOM    SYMINP    ZMAT    AOBASIS   BASIS     P2S    ABASIS      S 
                                         1400     1410     1200     1210     1080     1600     1650     1300     1700   
                                           T        V       H0       H01     AOSYM     SMH    MOLCAS    ERIS     OPER   

 PROGRAMS   *        TOTAL       INT
 CPU TIMES  *         3.08      3.04
 REAL TIME  *         4.04 SEC
 DISK USED  *         1.62 GB      
 GA USED    *         0.00 MB       (max)       0.00 MB       (current)
 **********************************************************************************************************************************

1PROGRAM * RHF-SCF (CLOSED SHELL)       Authors: W. Meyer, H.-J. Werner


 NUMBER OF ELECTRONS:      17+   17-    SPACE SYMMETRY=1    SPIN SYMMETRY: Singlet 
 CONVERGENCE THRESHOLDS:    1.00E-10 (Density)    1.00E-13 (Energy)
 MAX. NUMBER OF ITERATIONS:      200
 INTERPOLATION TYPE:            DIIS
 INTERPOLATION STEPS:              2 (START)      1 (STEP)
 LEVEL SHIFTS:                  0.00 (CLOSED)  0.00 (OPEN) 



 Orbital guess generated from atomic densities. Full valence occupancy:   26

 Molecular orbital dump at record        2100.2

 ITERATION    DDIFF          GRAD             ENERGY        2-EL.EN.            DIPOLE MOMENTS         DIIS
    1      0.000D+00      0.000D+00      -224.96618570    393.092469    0.07206   -0.57934    0.00289    0
    2      0.000D+00      0.594D-02      -225.02699496    392.712610   -0.57740   -0.38553    0.00176    1
    3      0.111D-01      0.415D-02      -225.06088824    393.263329   -0.23307   -0.56310    0.00124    2
    4      0.480D-02      0.830D-03      -225.06314884    393.098302   -0.31108   -0.46563    0.00160    3
    5      0.121D-02      0.329D-03      -225.06357322    393.109946   -0.30870   -0.49541    0.00144    4
    6      0.540D-03      0.799D-04      -225.06361610    393.137412   -0.31415   -0.49247    0.00146    5
    7      0.180D-03      0.305D-04      -225.06362220    393.121205   -0.31578   -0.49252    0.00146    6
    8      0.748D-04      0.124D-04      -225.06362320    393.127658   -0.31680   -0.49243    0.00146    7
    9      0.285D-04      0.531D-05      -225.06362341    393.126527   -0.31707   -0.49212    0.00147    8
   10      0.160D-04      0.163D-05      -225.06362344    393.126234   -0.31716   -0.49195    0.00147    8
   11      0.483D-05      0.547D-06      -225.06362344    393.126341   -0.31718   -0.49186    0.00147    8
   12      0.162D-05      0.167D-06      -225.06362344    393.126304   -0.31718   -0.49183    0.00147    8
   13      0.581D-06      0.530D-07      -225.06362344    393.126298   -0.31718   -0.49183    0.00147    8
   14      0.146D-06      0.275D-07      -225.06362344    393.126300   -0.31718   -0.49183    0.00147    9
   15      0.681D-07      0.621D-08      -225.06362344    393.126300   -0.31718   -0.49183    0.00147    8
   16      0.163D-07      0.456D-08      -225.06362344    393.126301   -0.31718   -0.49183    0.00147    7
   17      0.260D-07      0.258D-08      -225.06362344    393.126301   -0.31718   -0.49183    0.00147    8
   18      0.244D-07      0.827D-09      -225.06362344    393.126300   -0.31718   -0.49183    0.00147    8
   19      0.621D-08      0.221D-09      -225.06362344    393.126301   -0.31718   -0.49183    0.00147    9
   20      0.101D-08      0.737D-10      -225.06362344    393.126301   -0.31718   -0.49183    0.00147    9
   21      0.240D-09      0.253D-10      -225.06362344    393.126301   -0.31718   -0.49183    0.00147    9
   22      0.568D-10      0.645D-11      -225.06362344    393.126301   -0.31718   -0.49183    0.00147    9
   23      0.198D-10      0.243D-11      -225.06362344    393.126301   -0.31718   -0.49183    0.00147    0

 Final occupancy:  17

 !RHF STATE 1.1 Energy               -225.063623438958
 Nuclear energy                       117.39094918
 One-electron energy                 -539.01772288
 Two-electron energy                  196.56315026
 Virial quotient                       -1.00217627
 !RHF STATE 1.1 Dipole moment          -0.31717996    -0.49182795     0.00146845
 Dipole moment /Debye                  -0.80613823    -1.25002008     0.00373219

 Orbital energies:

         1.1          2.1          3.1          4.1          5.1          6.1          7.1          8.1          9.1         10.1
    -20.640519   -15.714911   -15.548591   -11.270864    -1.515097    -1.140407    -1.076163    -0.862455    -0.691442    -0.676049

        11.1         12.1         13.1         14.1         15.1         16.1         17.1         18.1         19.1
     -0.636318    -0.625009    -0.622950    -0.555719    -0.534525    -0.428482    -0.406209     0.034988     0.046241


 **********************************************************************************************************************************
 DATASETS  * FILE   NREC   LENGTH (MB)   RECORD NAMES
              1      19      432.20       500      610      700      900      950      970     1000      129      960     1100   
                                          VAR    BASINP    GEOM    SYMINP    ZMAT    AOBASIS   BASIS     P2S    ABASIS      S 
                                         1400     1410     1200     1210     1080     1600     1650     1300     1700   
                                           T        V       H0       H01     AOSYM     SMH    MOLCAS    ERIS     OPER   

              2       3        0.86       700     1000     2100   
                                         GEOM     BASIS     RHF  

 PROGRAMS   *        TOTAL       RHF       INT
 CPU TIMES  *        12.16      9.08      3.04
 REAL TIME  *        14.14 SEC
 DISK USED  *         1.62 GB      
 GA USED    *         0.00 MB       (max)       0.00 MB       (current)
 **********************************************************************************************************************************


1PROGRAM * CCSD (Closed-shell coupled cluster)     Authors: C. Hampel, H.-J. Werner, 1991, M. Deegan, P.J. Knowles, 1992


 Convergence thresholds:  THRVAR = 1.00D-08  THRDEN = 1.00D-12

 CCSD(T)     terms to be evaluated (factor= 1.000)


 Number of core orbitals:           4 (   4 )
 Number of closed-shell orbitals:  13 (  13 )
 Number of external orbitals:     129 ( 129 )

 Molecular orbitals read from record     2100.2  Type=RHF/CANONICAL (state 1.1)

 Number of N-1 electron functions:              13
 Number of N-2 electron functions:              91
 Number of singly external CSFs:              1677
 Number of doubly external CSFs:           1407003
 Total number of CSFs:                     1408681

 Length of J-op  integral file:               0.00 MB
 Length of K-op  integral file:               1.50 MB
 Length of 3-ext integral record:             0.00 MB

 Memory could be reduced to 37.23 Mwords without degradation in triples

 Integral transformation finished. Total CPU:   1.98 sec, npass=  1  Memory used:  25.63 MW

 Reference energy:                   -225.06362344

 MP2 singlet pair energy:              -0.45131204
 MP2 triplet pair energy:              -0.26573769
 MP2 correlation energy:               -0.71704973
 MP2 total energy:                   -225.78067317

 SCS-MP2 correlation energy:           -0.70692234   (PS=  1.200000  PT=  0.333333)
 SCS-MP2 total energy:               -225.77054578

 ITER.      SQ.NORM     CORR.ENERGY   TOTAL ENERGY   ENERGY CHANGE        DEN1      VAR(S)    VAR(P)  DIIS     TIME
   1      1.24222798    -0.75079596  -225.81441939    -0.03374622    -0.00984016  0.53D-02  0.49D-02  1  1     6.16
   2      1.26409485    -0.75385387  -225.81747731    -0.00305791    -0.02116457  0.17D-03  0.87D-03  2  2    10.39
   3      1.27420060    -0.75456217  -225.81818561    -0.00070830    -0.00465134  0.12D-03  0.62D-04  3  3    14.63
   4      1.27838740    -0.75452661  -225.81815005     0.00003556    -0.00138447  0.11D-04  0.11D-04  4  4    18.85
   5      1.28006577    -0.75454467  -225.81816810    -0.00001806    -0.00036574  0.20D-05  0.17D-05  5  5    23.08
   6      1.28053353    -0.75451430  -225.81813774     0.00003036    -0.00005602  0.17D-06  0.34D-06  6  6    27.33
   7      1.28063910    -0.75451087  -225.81813431     0.00000343    -0.00000444  0.37D-07  0.92D-07  6  2    31.57
   8      1.28066623    -0.75451168  -225.81813512    -0.00000081    -0.00000067  0.53D-08  0.22D-07  6  1    35.82
   9      1.28067246    -0.75451103  -225.81813447     0.00000065     0.00000234  0.21D-08  0.33D-08  6  3    40.07
  10      1.28066709    -0.75451199  -225.81813543    -0.00000096     0.00000153  0.47D-09  0.64D-09  6  5    44.31
  11      1.28066648    -0.75451218  -225.81813561    -0.00000018     0.00000058  0.14D-09  0.68D-10  6  4    48.54
  12      1.28066552    -0.75451222  -225.81813566    -0.00000004     0.00000018  0.40D-10  0.13D-10  6  6    52.77
  13      1.28066486    -0.75451227  -225.81813571    -0.00000005     0.00000007  0.92D-11  0.35D-11  6  2    57.02
  14      1.28066435    -0.75451228  -225.81813572    -0.00000001     0.00000007  0.25D-11  0.80D-12  6  1    61.27
  15      1.28066405    -0.75451229  -225.81813573    -0.00000001     0.00000005  0.47D-12  0.21D-12  6  5    65.52
  16      1.28066389    -0.75451230  -225.81813574    -0.00000001     0.00000003  0.16D-12  0.41D-13  6  3    69.76
  17      1.28066385    -0.75451230  -225.81813574    -0.00000000     0.00000001  0.10D-12  0.15D-13  6  4    74.00
  18      1.28066383    -0.75451230  -225.81813574    -0.00000000     0.00000000  0.66D-13  0.84D-14  6  6    78.23
  19      1.28066382    -0.75451230  -225.81813574     0.00000000    -0.00000000  0.32D-13  0.45D-14  6  2    82.48
  20      1.28066382    -0.75451230  -225.81813574     0.00000000     0.00000000  0.96D-14  0.23D-14  6  1    86.72
  21      1.28066383    -0.75451230  -225.81813574     0.00000000    -0.00000000  0.22D-14  0.11D-14  6  3    90.97
  22      1.28066383    -0.75451230  -225.81813574    -0.00000000     0.00000000  0.32D-15  0.34D-15  6  5    95.21
  23      1.28066383    -0.75451230  -225.81813574     0.00000000    -0.00000000  0.54D-16  0.97D-16  6  6    99.45
  24      1.28066383    -0.75451230  -225.81813574    -0.00000000    -0.00000000  0.43D-17  0.20D-16  6  4   103.69
  25      1.28066383    -0.75451230  -225.81813574     0.00000000    -0.00000000  0.11D-17  0.27D-17  6  2   107.92
  26      1.28066383    -0.75451230  -225.81813574     0.00000000    -0.00000000  0.52D-18  0.89D-18  6  1   112.17
  27      1.28066383    -0.75451230  -225.81813574     0.00000000    -0.00000000  0.28D-18  0.25D-18  6  3   116.41
  28      1.28066383    -0.75451230  -225.81813574     0.00000000    -0.00000000  0.20D-18  0.64D-19  6  5   120.66
  29      1.28066383    -0.75451230  -225.81813574     0.00000000    -0.00000000  0.14D-18  0.24D-19  6  6   124.90
  30      1.28066383    -0.75451230  -225.81813574     0.00000000    -0.00000000  0.89D-19  0.11D-19  6  4   129.16

 Norm of t1 vector:      0.11184039      S-energy:    -0.00000000      T1 diagnostic:  0.01550947
                                                                       D1 diagnostic:  0.04952895

 Doubles amplitudes (print threshold =  0.500E-01):

         I         J         SYM. A    SYM. B    A         B      T(IJ, AB)

         7         7         1         1         7         7     -0.05236761
        11         7         1         1         7         7     -0.05297413
        11        11         1         1         7         7     -0.07522141


 Total CPU time for triples:     68.47 sec


 RESULTS
 =======

  Reference energy                   -225.063623438960
  CCSD singlet pair energy             -0.519382983790
  CCSD triplet pair energy             -0.235129313745
  CCSD correlation energy              -0.754512297535

  Triples (T) contribution             -0.026868522895
  Total correlation energy             -0.781380820430

  CCSD total energy                  -225.818135736495
  CCSD[T] energy                     -225.846633767225
  CCSD-T energy                      -225.844493568918
 !CCSD(T) total energy               -225.845004259390

 Timing summary (sec):

 STEP                 CPU(USER)    SYS     CPU(TOT)    WALL
 Transformation          2.04      0.21      2.25      2.25
 CCSD iterations       127.12      3.42    130.54    130.61
 Triples                68.47      1.24     69.71     69.72

 Program statistics:

 Available memory in ccsd:               999999224
 Min. memory needed in ccsd:               3720021
 Max. memory used in ccsd:                 4957023
 Max. memory used in cckext:               4136268 (30 integral passes)



 **********************************************************************************************************************************
 DATASETS  * FILE   NREC   LENGTH (MB)   RECORD NAMES
              1      20      568.48       500      610      700      900      950      970     1000      129      960     1100   
                                          VAR    BASINP    GEOM    SYMINP    ZMAT    AOBASIS   BASIS     P2S    ABASIS      S 
                                         1400     1410     1200     1210     1080     1600     1650     1300     1700     1380   
                                           T        V       H0       H01     AOSYM     SMH    MOLCAS    ERIS     OPER     JKOP   

              2       3        0.86       700     1000     2100   
                                         GEOM     BASIS     RHF  

 PROGRAMS   *        TOTAL   CCSD(T)       RHF       INT
 CPU TIMES  *       209.79    197.63      9.08      3.04
 REAL TIME  *       216.76 SEC
 DISK USED  *         1.62 GB      
 GA USED    *         0.00 MB       (max)       0.00 MB       (current)
 **********************************************************************************************************************************

        CCSD(T)         RHF-SCF 
   -225.84500426   -225.06362344
 **********************************************************************************************************************************
 Variable memory released
