
 Primary working directories    : /tmp/943210.194.gen4.q
 Secondary working directories  : /tmp/943210.194.gen4.q
 Wavefunction directory         : /home/vulcan/mel64643/wfu/
 Main file repository           : /tmp/943210.194.gen4.q/

 ARCHNAME  : Linux/x86_64
 FC        : /opt/intel/compilers_and_libraries_2016.1.150/linux/bin/intel64/ifort
 FCVERSION : 16.0.1
 BLASLIB   : -mkl
 id        : ccgc

 Nodes     nprocs
 n056         1
 ga_uses_ma=false, calling ma_init with nominal heap.
 GA-space will be limited to   8.0 MW (determined by -G option)

 Using customized tuning parameters: mindgm=10; mindgv=16; mindgc=4; mindgr=1; noblas=0; mincuda=1000; minvec=7
 default implementation of scratch files=df  

 ***,Optimization of formic acid
 memory,1000,m
 gthresh,energy=1.0d-12,orbital=1.0d-10,oneint=1.0d-16,twoint=1.0d-16,optgrad=1.0d-6,compress=1.0d-13
 geomtyp=xyz
 
 bohr
 geometry = {
  C   -3.4976731222   -0.8298005371    0.0000000000
  O   -3.1025355566    1.6254704060   -0.0000000000
  O   -1.8817135421   -2.4894130204    0.0000000000
  H   -5.5164711871   -1.2744240104    0.0000000000
  H   -1.2518908363    1.9652148028   -0.0000000000
  C    3.5080102500    0.8279053704    0.0000000000
  O    3.0932296162   -1.6241236109   -0.0000000000
  O    1.8818970399    2.4775704235    0.0000000000
  H    5.5272229706    1.2706419162    0.0000000000
  H    1.2399243675   -1.9490417400   -0.0000000000
 }
 
 basis=AVDZ, H=VDZ
 {rhf;maxit,200}
 {ccsd(t);maxit,200}

 Variables initialized (661), CPU time= 0.00 sec
 Commands  initialized (458), CPU time= 0.00 sec, 486 directives.
 Default parameters read. Elapsed time= 0.05 sec

 Checking input...
 Passed
1


                                         ***  PROGRAM SYSTEM MOLPRO  ***
                         Copyright, University College Cardiff Consultants Limited, 2008

                                    Version 2010.1 linked May 16 2016 07:17:05


 **********************************************************************************************************************************
 LABEL *   Optimization of formic acid                                                   
 Linux-4.4.3/n056(x86_64) 64 bit mpp version                                             DATE: 23-Oct-23          TIME: 23:50:19  
 **********************************************************************************************************************************

 SHA1:             9e8077add272b0f3cad6f7df79ec5211205f459d
 **********************************************************************************************************************************

 THRESHOLDS:

 ZERO    =  1.00D-12  ONEINT  =  1.00D-16  TWOINT  =  1.00D-16  PREFAC  =  1.00D-14  LOCALI  =  1.00D-09  EORDER  =  1.00D-04
 ENERGY  =  1.00D-12  ETEST   =  0.00D+00  EDENS   =  0.00D+00  THRDEDEF=  1.00D-06  GRADIENT=  1.00D-02  STEP    =  1.00D-03
 ORBITAL =  1.00D-10  CIVEC   =  1.00D-05  COEFF   =  1.00D-04  PRINTCI =  5.00D-02  PUNCHCI =  9.90D+01  OPTGRAD =  1.00D-06
 OPTENERG=  1.00D-06  OPTSTEP =  3.00D-04  THRGRAD =  1.00D-10  COMPRESS=  1.00D-13  VARMIN  =  1.00D-07  VARMAX  =  1.00D-03
 THRDOUB =  0.00D+00  THRDIV  =  1.00D-05  THRRED  =  1.00D-07  THRPSP  =  1.00D+00  THRDC   =  1.00D-10  THRCS   =  1.00D-10
 THRNRM  =  1.00D-08  THREQ   =  0.00D+00  THRDE   =  1.00D+00  THRREF  =  1.00D-05  SPARFAC =  1.00D+00  THRDLP  =  1.00D-07
 THRDIA  =  1.00D-10  THRDLS  =  1.00D-07  THRGPS  =  0.00D+00  THRKEX  =  0.00D+00  THRDIS  =  2.00D-01  THRVAR  =  1.00D-10
 THRLOC  =  1.00D-06  THRGAP  =  1.00D-06  THRLOCT = -1.00D+00  THRGAPT = -1.00D+00  THRORB  =  1.00D-06  THRMLTP =  0.00D+00
 THRCPQCI=  1.00D-10  KEXTA   =  0.00D+00  THRCOARS=  0.00D+00  SYMTOL  =  1.00D-06  GRADTOL =  1.00D-06  THROVL  =  1.00D-08
 THRORTH =  1.00D-08  GRID    =  1.00D-06  GRIDMAX =  1.00D-03  DTMAX   =  0.00D+00

 SETTING GEOMTYP        =    XYZ
 ZUNIT=BOHR
 

 Variable memory set to 1000000000 words,  buffer space   230000 words

 SETTING BASIS          =    AVDZ,H=VDZ


 Recomputing integrals since basis changed


 Using spherical harmonics

 Library entry C      S aug-cc-pVDZ          selected for orbital group  1
 Library entry C      P aug-cc-pVDZ          selected for orbital group  1
 Library entry C      D aug-cc-pVDZ          selected for orbital group  1
 Library entry O      S aug-cc-pVDZ          selected for orbital group  2
 Library entry O      P aug-cc-pVDZ          selected for orbital group  2
 Library entry O      D aug-cc-pVDZ          selected for orbital group  2
 Library entry H      S cc-pVDZ              selected for orbital group  3
 Library entry H      P cc-pVDZ              selected for orbital group  3

1PROGRAM * SEWARD (Integral evaluation for generally contracted gaussian basis sets)     Author: Roland Lindh, 1990

 Geometry written to block  1 of record 700


 Point group  Cs  



 ATOMIC COORDINATES

 NR  ATOM    CHARGE       X              Y              Z

   1  C       6.00   -3.497673122   -0.829800537    0.000000000
   2  O       8.00   -3.102535557    1.625470406    0.000000000
   3  O       8.00   -1.881713542   -2.489413020    0.000000000
   4  H       1.00   -5.516471187   -1.274424010    0.000000000
   5  H       1.00   -1.251890836    1.965214803    0.000000000
   6  C       6.00    3.508010250    0.827905370    0.000000000
   7  O       8.00    3.093229616   -1.624123611    0.000000000
   8  O       8.00    1.881897040    2.477570424    0.000000000
   9  H       1.00    5.527222971    1.270641916    0.000000000
  10  H       1.00    1.239924368   -1.949041740    0.000000000

 Bond lengths in Bohr (Angstrom)

 1-2  2.486863305  1-3  2.316384890  1-4  2.067180606  2-5  1.881571720  6-7  2.486863305
     ( 1.315991383)     ( 1.225778091)     ( 1.093904864)     ( 0.995684871)     ( 1.315991383)

  6- 8  2.316384890   6- 9  2.067180607   7-10  1.881571719
       ( 1.225778091)       ( 1.093904864)       ( 0.995684871)

 Bond angles

  1-2-5  109.54509197   2-1-3  126.62105401   2-1-4  111.56309607   3-1-4  121.81584992

  6- 7-10  109.54509197   7- 6- 8  125.81077404   7- 6- 9  111.96823607   8- 6- 9  122.22098990

 NUCLEAR CHARGE:                   48
 NUMBER OF PRIMITIVE AOS:         250
 NUMBER OF SYMMETRY AOS:          238
 NUMBER OF CONTRACTIONS:          158   ( 112A'  +  46A"  )
 NUMBER OF CORE ORBITALS:           6   (   6A'  +   0A"  )
 NUMBER OF VALENCE ORBITALS:       28   (  22A'  +   6A"  )


 NUCLEAR REPULSION ENERGY  235.31684864


 Eigenvalues of metric

         1 0.782E-03 0.127E-02 0.144E-02 0.199E-02 0.276E-02 0.420E-02 0.476E-02 0.696E-02
         2 0.271E-01 0.382E-01 0.473E-01 0.522E-01 0.618E-01 0.744E-01 0.106E+00 0.138E+00


 Contracted 2-electron integrals neglected if value below      1.0D-16
 AO integral compression algorithm  1   Integral accuracy      1.0D-16

     353.370 MB (compressed) written to integral file ( 94.6%)

     Node minimum: 353.370 MB, node maximum: 353.370 MB


 NUMBER OF SORTED TWO-ELECTRON INTEGRALS:   41131481.     BUFFER LENGTH:  32768
 NUMBER OF SEGMENTS:   3  SEGMENT LENGTH:   15997996      RECORD LENGTH: 524288

 Memory used in sort:      16.56 MW

 SORT1 READ    46708508. AND WROTE    40801946. INTEGRALS IN    118 RECORDS. CPU TIME:     0.54 SEC, REAL TIME:     0.78 SEC
 SORT2 READ    40801946. AND WROTE    41131481. INTEGRALS IN   1348 RECORDS. CPU TIME:     0.37 SEC, REAL TIME:     0.55 SEC

 FILE SIZES:   FILE 1:   319.7 MBYTE,  FILE 4:   495.0 MBYTE,   TOTAL:    814.7 MBYTE

 OPERATOR DM      FOR CENTER  0  COORDINATES:    0.000000    0.000000    0.000000


 **********************************************************************************************************************************
 DATASETS  * FILE   NREC   LENGTH (MB)   RECORD NAMES
              1      19      319.88       500      610      700      900      950      970     1000      129      960     1100   
                                          VAR    BASINP    GEOM    SYMINP    ZMAT    AOBASIS   BASIS     P2S    ABASIS      S 
                                         1400     1410     1200     1210     1080     1600     1650     1300     1700   
                                           T        V       H0       H01     AOSYM     SMH    MOLCAS    ERIS     OPER   

 PROGRAMS   *        TOTAL       INT
 CPU TIMES  *         4.64      4.60
 REAL TIME  *         5.44 SEC
 DISK USED  *         1.17 GB      
 GA USED    *         0.00 MB       (max)       0.00 MB       (current)
 **********************************************************************************************************************************

1PROGRAM * RHF-SCF (CLOSED SHELL)       Authors: W. Meyer, H.-J. Werner


 NUMBER OF ELECTRONS:      24+   24-
 CONVERGENCE THRESHOLDS:    1.00E-10 (Density)    1.00E-13 (Energy)
 MAX. NUMBER OF ITERATIONS:      200
 INTERPOLATION TYPE:            DIIS
 INTERPOLATION STEPS:              2 (START)      1 (STEP)
 LEVEL SHIFTS:                  0.00 (CLOSED)  0.00 (OPEN) 



 Orbital guess generated from atomic densities. Full valence occupancy:   28   6

 Molecular orbital dump at record        2100.2

 Initial alpha occupancy:  20   4
 Initial beta  occupancy:  20   4
 Wave function symmetry:    1

 ITERATION    DDIFF          GRAD             ENERGY        2-EL.EN.            DIPOLE MOMENTS         DIIS
    1      0.000D+00      0.000D+00      -377.47291240    745.892528    0.01504    0.01806    0.00000    0
    2      0.000D+00      0.945D-02      -377.56122060    743.091993    0.00502    0.00780    0.00000    1
    3      0.179D-01      0.598D-02      -377.60935572    745.378821    0.00848    0.01143    0.00000    2
    4      0.673D-02      0.853D-03      -377.61097947    744.979612    0.00873    0.01084    0.00000    3
    5      0.130D-02      0.362D-03      -377.61126643    745.016097    0.00861    0.01105    0.00000    4
    6      0.545D-03      0.101D-03      -377.61131040    745.068428    0.00867    0.01099    0.00000    5
    7      0.182D-03      0.449D-04      -377.61132090    745.050291    0.00868    0.01102    0.00000    6
    8      0.104D-03      0.142D-04      -377.61132215    745.055789    0.00869    0.01102    0.00000    7
    9      0.385D-04      0.471D-05      -377.61132227    745.054465    0.00868    0.01103    0.00000    8
   10      0.127D-04      0.131D-05      -377.61132228    745.054696    0.00869    0.01102    0.00000    7
   11      0.359D-05      0.389D-06      -377.61132228    745.054619    0.00868    0.01104    0.00000    8
   12      0.104D-05      0.139D-06      -377.61132228    745.054647    0.00869    0.01103    0.00000    8
   13      0.290D-06      0.514D-07      -377.61132228    745.054633    0.00869    0.01103    0.00000    8
   14      0.880D-07      0.150D-07      -377.61132228    745.054635    0.00869    0.01103    0.00000    8
   15      0.298D-07      0.628D-08      -377.61132228    745.054636    0.00869    0.01103    0.00000    8
   16      0.115D-07      0.169D-08      -377.61132228    745.054635    0.00869    0.01103    0.00000    8
   17      0.280D-08      0.499D-09      -377.61132228    745.054635    0.00869    0.01103    0.00000    8
   18      0.939D-09      0.193D-09      -377.61132228    745.054635    0.00869    0.01103    0.00000    8
   19      0.345D-09      0.849D-10      -377.61132228    745.054635    0.00869    0.01103    0.00000    8
   20      0.163D-09      0.437D-10      -377.61132228    745.054635    0.00869    0.01103    0.00000    8
   21      0.874D-10      0.118D-10      -377.61132228    745.054635    0.00869    0.01103    0.00000    8
   22      0.329D-10      0.336D-11      -377.61132228    745.054635    0.00869    0.01103    0.00000    0

 Final occupancy:  20   4

 !RHF STATE 1.1 Energy               -377.611322279852
 Nuclear energy                       235.31684864
 One-electron energy                 -985.45548863
 Two-electron energy                  372.52731771
 Virial quotient                       -1.00172508
 !RHF STATE 1.1 Dipole moment           0.00868817     0.01102918     0.00000000
 Dipole moment /Debye                   0.02208167     0.02803155     0.00000000

 Orbital energies:

         1.1          2.1          3.1          4.1          5.1          6.1          7.1          8.1          9.1         10.1
    -20.627383   -20.626220   -20.587820   -20.587222   -11.420663   -11.420573    -1.489397    -1.476824    -1.390779    -1.376834

        11.1         12.1         13.1         14.1         15.1         16.1         17.1         18.1         19.1         20.1
     -0.922183    -0.886676    -0.770919    -0.734958    -0.726291    -0.697649    -0.622341    -0.581642    -0.497958    -0.475591

        21.1         22.1
      0.069432     0.070555

         1.2          2.2          3.2          4.2          5.2          6.2
     -0.644994    -0.634687    -0.506267    -0.494556     0.080676     0.092853


 **********************************************************************************************************************************
 DATASETS  * FILE   NREC   LENGTH (MB)   RECORD NAMES
              1      19      319.88       500      610      700      900      950      970     1000      129      960     1100   
                                          VAR    BASINP    GEOM    SYMINP    ZMAT    AOBASIS   BASIS     P2S    ABASIS      S 
                                         1400     1410     1200     1210     1080     1600     1650     1300     1700   
                                           T        V       H0       H01     AOSYM     SMH    MOLCAS    ERIS     OPER   

              2       3        0.73       700     1000     2100   
                                         GEOM     BASIS     RHF  

 PROGRAMS   *        TOTAL       RHF       INT
 CPU TIMES  *         9.82      5.18      4.60
 REAL TIME  *        11.49 SEC
 DISK USED  *         1.17 GB      
 GA USED    *         0.00 MB       (max)       0.00 MB       (current)
 **********************************************************************************************************************************


1PROGRAM * CCSD (Closed-shell coupled cluster)     Authors: C. Hampel, H.-J. Werner, 1991, M. Deegan, P.J. Knowles, 1992


 Convergence thresholds:  THRVAR = 1.00D-08  THRDEN = 1.00D-12

 CCSD(T)     terms to be evaluated (factor= 1.000)


 Number of core orbitals:           6 (   6   0 )
 Number of closed-shell orbitals:  18 (  14   4 )
 Number of external orbitals:     134 (  92  42 )

 Molecular orbitals read from record     2100.2  Type=RHF/CANONICAL (state 1.1)

 Number of N-1 electron functions:              18
 Number of N-2 electron functions:             171
 Number of singly external CSFs:              1456
 Number of doubly external CSFs:           1518142
 Total number of CSFs:                     1519599

 Length of J-op  integral file:               0.00 MB
 Length of K-op  integral file:               1.05 MB
 Length of 3-ext integral record:             0.00 MB

 Memory could be reduced to 29.62 Mwords without degradation in triples

 Integral transformation finished. Total CPU:   1.64 sec, npass=  1  Memory used:  13.10 MW

 Reference energy:                   -377.61132228

 MP2 singlet pair energy:              -0.63246281
 MP2 triplet pair energy:              -0.43089599
 MP2 correlation energy:               -1.06335880
 MP2 total energy:                   -378.67468108

 SCS-MP2 correlation energy:           -1.02706843   (PS=  1.200000  PT=  0.333333)
 SCS-MP2 total energy:               -378.63839071

 ITER.      SQ.NORM     CORR.ENERGY   TOTAL ENERGY   ENERGY CHANGE        DEN1      VAR(S)    VAR(P)  DIIS     TIME
   1      1.30330967    -1.08059386  -378.69191614    -0.01723505     0.01577938  0.11D-01  0.61D-02  1  1     5.53
   2      1.32801519    -1.08166732  -378.69298960    -0.00107347    -0.02630281  0.25D-03  0.10D-02  2  2     9.50
   3      1.34131997    -1.08253354  -378.69385582    -0.00086622    -0.00597799  0.21D-03  0.46D-04  3  3    13.48
   4      1.34671274    -1.08226200  -378.69358428     0.00027154    -0.00178144  0.19D-04  0.82D-05  4  4    17.45
   5      1.34884090    -1.08217163  -378.69349391     0.00009037    -0.00047546  0.17D-05  0.75D-06  5  5    21.45
   6      1.34923127    -1.08215082  -378.69347310     0.00002080    -0.00002224  0.14D-06  0.86D-07  6  6    25.46
   7      1.34931533    -1.08214120  -378.69346348     0.00000962    -0.00000609  0.12D-07  0.12D-07  6  2    29.45
   8      1.34932113    -1.08214203  -378.69346431    -0.00000083     0.00000240  0.18D-08  0.11D-08  6  1    33.45
   9      1.34932181    -1.08214185  -378.69346413     0.00000018     0.00000129  0.27D-09  0.16D-09  6  4    37.46
  10      1.34932353    -1.08214168  -378.69346396     0.00000017    -0.00000048  0.56D-10  0.20D-10  6  3    41.46
  11      1.34932301    -1.08214179  -378.69346407    -0.00000011     0.00000023  0.11D-10  0.32D-11  6  5    45.44
  12      1.34932275    -1.08214181  -378.69346409    -0.00000002     0.00000005  0.22D-11  0.72D-12  6  6    49.45
  13      1.34932249    -1.08214184  -378.69346412    -0.00000003     0.00000009  0.36D-12  0.14D-12  6  1    53.45
  14      1.34932240    -1.08214185  -378.69346413    -0.00000001     0.00000002  0.54D-13  0.24D-13  6  2    57.47
  15      1.34932238    -1.08214185  -378.69346413    -0.00000000     0.00000000  0.10D-13  0.42D-14  6  4    61.47
  16      1.34932237    -1.08214185  -378.69346413    -0.00000000    -0.00000000  0.22D-14  0.92D-15  6  3    65.49
  17      1.34932237    -1.08214185  -378.69346413     0.00000000    -0.00000000  0.26D-15  0.17D-15  6  6    69.49
  18      1.34932237    -1.08214185  -378.69346413    -0.00000000     0.00000000  0.38D-16  0.17D-16  6  5    73.49
  19      1.34932237    -1.08214185  -378.69346413    -0.00000000    -0.00000000  0.86D-17  0.34D-17  6  2    77.50
  20      1.34932237    -1.08214185  -378.69346413    -0.00000000     0.00000000  0.13D-17  0.56D-18  6  1    81.51
  21      1.34932237    -1.08214185  -378.69346413     0.00000000     0.00000000  0.26D-18  0.93D-19  6  4    85.51
  22      1.34932237    -1.08214185  -378.69346413     0.00000000    -0.00000000  0.52D-19  0.23D-19  6  3    89.53
  23      1.34932237    -1.08214185  -378.69346413     0.00000000    -0.00000000  0.71D-20  0.31D-20  6  6    93.55
  24      1.34932237    -1.08214185  -378.69346413     0.00000000    -0.00000000  0.13D-20  0.64D-21  6  5    97.56
  25      1.34932237    -1.08214185  -378.69346413     0.00000000    -0.00000000  0.38D-21  0.16D-21  6  2   101.56
  26      1.34932237    -1.08214185  -378.69346413     0.00000000    -0.00000000  0.54D-22  0.33D-22  6  1   105.57

 Norm of t1 vector:      0.15485823      S-energy:     0.00000000      T1 diagnostic:  0.01825022
                                                                       D1 diagnostic:  0.06287846

 Singles amplitudes (print threshold =  0.500E-01):

         I         SYM. A    A   T(IA)

        16         2         4     -0.05282285


 Total CPU time for triples:     89.73 sec


 RESULTS
 =======

  Reference energy                   -377.611322279852
  CCSD singlet pair energy             -0.703444521817
  CCSD triplet pair energy             -0.378697329799
  CCSD correlation energy              -1.082141851613

  Triples (T) contribution             -0.039598653640
  Total correlation energy             -1.121740505254

  CCSD total energy                  -378.693464131465
  CCSD[T] energy                     -378.736747731407
  CCSD-T energy                      -378.731798359424
 !CCSD(T) total energy               -378.733062785105

 Timing summary (sec):

 STEP                 CPU(USER)    SYS     CPU(TOT)    WALL
 Transformation          1.69      0.19      1.88      1.90
 CCSD iterations       103.88      2.99    106.87    107.23
 Triples                89.73      2.22     91.95     91.97

 Program statistics:

 Available memory in ccsd:               999998604
 Min. memory needed in ccsd:               3931458
 Max. memory used in ccsd:                 5315516
 Max. memory used in cckext:               5296012 (26 integral passes)



 **********************************************************************************************************************************
 DATASETS  * FILE   NREC   LENGTH (MB)   RECORD NAMES
              1      20      438.27       500      610      700      900      950      970     1000      129      960     1100   
                                          VAR    BASINP    GEOM    SYMINP    ZMAT    AOBASIS   BASIS     P2S    ABASIS      S 
                                         1400     1410     1200     1210     1080     1600     1650     1300     1700     1380   
                                           T        V       H0       H01     AOSYM     SMH    MOLCAS    ERIS     OPER     JKOP   

              2       3        0.73       700     1000     2100   
                                         GEOM     BASIS     RHF  

 PROGRAMS   *        TOTAL   CCSD(T)       RHF       INT
 CPU TIMES  *       205.13    195.31      5.18      4.60
 REAL TIME  *       212.64 SEC
 DISK USED  *         1.17 GB      
 GA USED    *         0.00 MB       (max)       0.00 MB       (current)
 **********************************************************************************************************************************

        CCSD(T)         RHF-SCF 
   -378.73306279   -377.61132228
 **********************************************************************************************************************************
 Variable memory released
