
 Primary working directories    : /tmp/862637.194.gen6.q
 Secondary working directories  : /tmp/862637.194.gen6.q
 Wavefunction directory         : /home/vulcan/lo21740/wfu/
 Main file repository           : /tmp/862637.194.gen6.q/

 ARCHNAME  : Linux/x86_64
 FC        : /opt/intel/compilers_and_libraries_2016.1.150/linux/bin/intel64/ifort
 FCVERSION : 16.0.1
 BLASLIB   : -mkl
 id        : ccgc

 Nodes     nprocs
 n081         1
 ga_uses_ma=false, calling ma_init with nominal heap.
 GA-space will be limited to   8.0 MW (determined by -G option)

 Using customized tuning parameters: mindgm=10; mindgv=16; mindgc=4; mindgr=1; noblas=0; mincuda=1000; minvec=7
 default implementation of scratch files=df  

 ***,Optimization of formic acid
 memory,1000,m
 gthresh,energy=1.0d-12,orbital=1.0d-10,oneint=1.0d-16,twoint=1.0d-16,optgrad=1.0d-6,compress=1.0d-13
 geomtyp=xyz
 
 bohr
 geometry = {
  C   -3.4976938058   -0.8326549553   -0.0000000000
  O   -3.0953447787    1.6207946367    0.0000000000
  O   -1.8873098055   -2.4783332153   -0.0000000000
  H   -5.5211426073   -1.2729344918   -0.0000000000
  H   -1.2408932688    1.9562904932    0.0000000000
  C    3.5016943479    0.8300829043   -0.0000000000
  O    3.0928245392   -1.6190094128    0.0000000000
  O    1.8844898774    2.4794170337   -0.0000000000
  H    5.5198861577    1.2733783732   -0.0000000000
  H    1.2434893439   -1.9570313658   -0.0000000000
 }
 
 basis=AVDZ, H=VDZ
 {rhf;maxit,200}
 {ccsd(t);maxit,200}

 Variables initialized (661), CPU time= 0.00 sec
 Commands  initialized (458), CPU time= 0.01 sec, 486 directives.
 Default parameters read. Elapsed time= 0.05 sec

 Checking input...
 Passed
1


                                         ***  PROGRAM SYSTEM MOLPRO  ***
                         Copyright, University College Cardiff Consultants Limited, 2008

                                    Version 2010.1 linked May 16 2016 07:17:05


 **********************************************************************************************************************************
 LABEL *   Optimization of formic acid                                                   
 Linux-4.4.3/n081(x86_64) 64 bit mpp version                                             DATE: 27-Apr-23          TIME: 15:33:25  
 **********************************************************************************************************************************

 SHA1:             9e8077add272b0f3cad6f7df79ec5211205f459d
 **********************************************************************************************************************************

 THRESHOLDS:

 ZERO    =  1.00D-12  ONEINT  =  1.00D-16  TWOINT  =  1.00D-16  PREFAC  =  1.00D-14  LOCALI  =  1.00D-09  EORDER  =  1.00D-04
 ENERGY  =  1.00D-12  ETEST   =  0.00D+00  EDENS   =  0.00D+00  THRDEDEF=  1.00D-06  GRADIENT=  1.00D-02  STEP    =  1.00D-03
 ORBITAL =  1.00D-10  CIVEC   =  1.00D-05  COEFF   =  1.00D-04  PRINTCI =  5.00D-02  PUNCHCI =  9.90D+01  OPTGRAD =  1.00D-06
 OPTENERG=  1.00D-06  OPTSTEP =  3.00D-04  THRGRAD =  1.00D-10  COMPRESS=  1.00D-13  VARMIN  =  1.00D-07  VARMAX  =  1.00D-03
 THRDOUB =  0.00D+00  THRDIV  =  1.00D-05  THRRED  =  1.00D-07  THRPSP  =  1.00D+00  THRDC   =  1.00D-10  THRCS   =  1.00D-10
 THRNRM  =  1.00D-08  THREQ   =  0.00D+00  THRDE   =  1.00D+00  THRREF  =  1.00D-05  SPARFAC =  1.00D+00  THRDLP  =  1.00D-07
 THRDIA  =  1.00D-10  THRDLS  =  1.00D-07  THRGPS  =  0.00D+00  THRKEX  =  0.00D+00  THRDIS  =  2.00D-01  THRVAR  =  1.00D-10
 THRLOC  =  1.00D-06  THRGAP  =  1.00D-06  THRLOCT = -1.00D+00  THRGAPT = -1.00D+00  THRORB  =  1.00D-06  THRMLTP =  0.00D+00
 THRCPQCI=  1.00D-10  KEXTA   =  0.00D+00  THRCOARS=  0.00D+00  SYMTOL  =  1.00D-06  GRADTOL =  1.00D-06  THROVL  =  1.00D-08
 THRORTH =  1.00D-08  GRID    =  1.00D-06  GRIDMAX =  1.00D-03  DTMAX   =  0.00D+00

 SETTING GEOMTYP        =    XYZ
 ZUNIT=BOHR
 

 Variable memory set to 1000000000 words,  buffer space   230000 words

 SETTING BASIS          =    AVDZ,H=VDZ


 Recomputing integrals since basis changed


 Using spherical harmonics

 Library entry C      S aug-cc-pVDZ          selected for orbital group  1
 Library entry C      P aug-cc-pVDZ          selected for orbital group  1
 Library entry C      D aug-cc-pVDZ          selected for orbital group  1
 Library entry O      S aug-cc-pVDZ          selected for orbital group  2
 Library entry O      P aug-cc-pVDZ          selected for orbital group  2
 Library entry O      D aug-cc-pVDZ          selected for orbital group  2
 Library entry H      S cc-pVDZ              selected for orbital group  3
 Library entry H      P cc-pVDZ              selected for orbital group  3

1PROGRAM * SEWARD (Integral evaluation for generally contracted gaussian basis sets)     Author: Roland Lindh, 1990

 Geometry written to block  1 of record 700


 Point group  Cs  



 ATOMIC COORDINATES

 NR  ATOM    CHARGE       X              Y              Z

   1  C       6.00   -3.497693806   -0.832654955    0.000000000
   2  O       8.00   -3.095344779    1.620794637    0.000000000
   3  O       8.00   -1.887309805   -2.478333215    0.000000000
   4  H       1.00   -5.521142607   -1.272934492    0.000000000
   5  H       1.00   -1.240893269    1.956290493    0.000000000
   6  C       6.00    3.501694348    0.830082904    0.000000000
   7  O       8.00    3.092824539   -1.619009413    0.000000000
   8  O       8.00    1.884489877    2.479417034    0.000000000
   9  H       1.00    5.519886158    1.273378373    0.000000000
  10  H       1.00    1.243489344   -1.957031366    0.000000000

 Bond lengths in Bohr (Angstrom)

 1-2  2.486221961  1-3  2.302518961  1-4  2.070794805  2-5  1.884555086  6-7  2.482987656
     ( 1.315651998)     ( 1.218440557)     ( 1.095817415)     ( 0.997263601)     ( 1.313940478)

  6- 8  2.309903325   6- 9  2.066303234   7-10  1.879973272
       ( 1.222348194)       ( 1.093440578)       ( 0.994839009)

 Bond angles

  1-2-5  109.56789799   2-1-3  126.30781733   2-1-4  111.58879028   3-1-4  122.10339239

  6- 7-10  109.83617253   7- 6- 8  126.08556638   7- 6- 9  111.86625605   8- 6- 9  122.04817757

 NUCLEAR CHARGE:                   48
 NUMBER OF PRIMITIVE AOS:         250
 NUMBER OF SYMMETRY AOS:          238
 NUMBER OF CONTRACTIONS:          158   ( 112A'  +  46A"  )
 NUMBER OF CORE ORBITALS:           6   (   6A'  +   0A"  )
 NUMBER OF VALENCE ORBITALS:       28   (  22A'  +   6A"  )


 NUCLEAR REPULSION ENERGY  235.66666232


 Eigenvalues of metric

         1 0.778E-03 0.127E-02 0.142E-02 0.198E-02 0.277E-02 0.421E-02 0.473E-02 0.693E-02
         2 0.269E-01 0.378E-01 0.472E-01 0.518E-01 0.617E-01 0.742E-01 0.105E+00 0.138E+00


 Contracted 2-electron integrals neglected if value below      1.0D-16
 AO integral compression algorithm  1   Integral accuracy      1.0D-16

     353.370 MB (compressed) written to integral file ( 94.6%)

     Node minimum: 353.370 MB, node maximum: 353.370 MB


 NUMBER OF SORTED TWO-ELECTRON INTEGRALS:   41131481.     BUFFER LENGTH:  32768
 NUMBER OF SEGMENTS:   3  SEGMENT LENGTH:   15997996      RECORD LENGTH: 524288

 Memory used in sort:      16.56 MW

 SORT1 READ    46708508. AND WROTE    40803211. INTEGRALS IN    118 RECORDS. CPU TIME:     0.47 SEC, REAL TIME:     0.71 SEC
 SORT2 READ    40803211. AND WROTE    41131481. INTEGRALS IN   1348 RECORDS. CPU TIME:     0.32 SEC, REAL TIME:     0.50 SEC

 FILE SIZES:   FILE 1:   319.8 MBYTE,  FILE 4:   495.0 MBYTE,   TOTAL:    814.8 MBYTE

 OPERATOR DM      FOR CENTER  0  COORDINATES:    0.000000    0.000000    0.000000


 **********************************************************************************************************************************
 DATASETS  * FILE   NREC   LENGTH (MB)   RECORD NAMES
              1      19      319.97       500      610      700      900      950      970     1000      129      960     1100   
                                          VAR    BASINP    GEOM    SYMINP    ZMAT    AOBASIS   BASIS     P2S    ABASIS      S 
                                         1400     1410     1200     1210     1080     1600     1650     1300     1700   
                                           T        V       H0       H01     AOSYM     SMH    MOLCAS    ERIS     OPER   

 PROGRAMS   *        TOTAL       INT
 CPU TIMES  *         3.82      3.78
 REAL TIME  *         4.60 SEC
 DISK USED  *         1.17 GB      
 GA USED    *         0.00 MB       (max)       0.00 MB       (current)
 **********************************************************************************************************************************

1PROGRAM * RHF-SCF (CLOSED SHELL)       Authors: W. Meyer, H.-J. Werner


 NUMBER OF ELECTRONS:      24+   24-
 CONVERGENCE THRESHOLDS:    1.00E-10 (Density)    1.00E-13 (Energy)
 MAX. NUMBER OF ITERATIONS:      200
 INTERPOLATION TYPE:            DIIS
 INTERPOLATION STEPS:              2 (START)      1 (STEP)
 LEVEL SHIFTS:                  0.00 (CLOSED)  0.00 (OPEN) 



 Orbital guess generated from atomic densities. Full valence occupancy:   28   6

 Molecular orbital dump at record        2100.2

 Initial alpha occupancy:  20   4
 Initial beta  occupancy:  20   4
 Wave function symmetry:    1

 ITERATION    DDIFF          GRAD             ENERGY        2-EL.EN.            DIPOLE MOMENTS         DIIS
    1      0.000D+00      0.000D+00      -377.47529425    746.584388    0.02220   -0.01648    0.00000    0
    2      0.000D+00      0.941D-02      -377.56338628    743.774993    0.01174   -0.00507    0.00000    1
    3      0.178D-01      0.591D-02      -377.61030829    746.045305    0.01601   -0.01065    0.00000    2
    4      0.666D-02      0.845D-03      -377.61190919    745.649970    0.01490   -0.00897    0.00000    3
    5      0.130D-02      0.358D-03      -377.61218977    745.686916    0.01521   -0.00967    0.00000    4
    6      0.538D-03      0.100D-03      -377.61223318    745.738317    0.01504   -0.00946    0.00000    5
    7      0.181D-03      0.448D-04      -377.61224359    745.720361    0.01506   -0.00953    0.00000    6
    8      0.104D-03      0.141D-04      -377.61224482    745.725875    0.01504   -0.00949    0.00000    7
    9      0.384D-04      0.463D-05      -377.61224493    745.724543    0.01506   -0.00954    0.00000    8
   10      0.124D-04      0.128D-05      -377.61224494    745.724767    0.01504   -0.00950    0.00000    7
   11      0.345D-05      0.424D-06      -377.61224494    745.724713    0.01506   -0.00953    0.00000    8
   12      0.963D-06      0.224D-06      -377.61224494    745.724706    0.01505   -0.00951    0.00000    9
   13      0.362D-06      0.488D-07      -377.61224494    745.724718    0.01505   -0.00952    0.00000    8
   14      0.119D-06      0.193D-07      -377.61224494    745.724711    0.01505   -0.00952    0.00000    9
   15      0.320D-07      0.660D-08      -377.61224494    745.724714    0.01505   -0.00952    0.00000    8
   16      0.159D-07      0.146D-08      -377.61224494    745.724713    0.01505   -0.00952    0.00000    8
   17      0.261D-08      0.533D-09      -377.61224494    745.724713    0.01505   -0.00952    0.00000    8
   18      0.985D-09      0.194D-09      -377.61224494    745.724713    0.01505   -0.00952    0.00000    8
   19      0.328D-09      0.645D-10      -377.61224494    745.724713    0.01505   -0.00952    0.00000    8
   20      0.144D-09      0.272D-10      -377.61224494    745.724713    0.01505   -0.00952    0.00000    8
   21      0.620D-10      0.763D-11      -377.61224494    745.724713    0.01505   -0.00952    0.00000    8
   22      0.210D-10      0.225D-11      -377.61224494    745.724713    0.01505   -0.00952    0.00000    8
   23      0.609D-11      0.694D-12      -377.61224494    745.724713    0.01505   -0.00952    0.00000    0

 Final occupancy:  20   4

 !RHF STATE 1.1 Energy               -377.612244939476
 Nuclear energy                       235.66666232
 One-electron energy                 -986.14126377
 Two-electron energy                  372.86235651
 Virial quotient                       -1.00159632
 !RHF STATE 1.1 Dipole moment           0.01504971    -0.00951626     0.00000000
 Dipole moment /Debye                   0.03825005    -0.02418633     0.00000000

 Orbital energies:

         1.1          2.1          3.1          4.1          5.1          6.1          7.1          8.1          9.1         10.1
    -20.626489   -20.625464   -20.587498   -20.587273   -11.419868   -11.419105    -1.490933    -1.478269    -1.392660    -1.378688

        11.1         12.1         13.1         14.1         15.1         16.1         17.1         18.1         19.1         20.1
     -0.921852    -0.886042    -0.771580    -0.735767    -0.727060    -0.698356    -0.622076    -0.581727    -0.497974    -0.475529

        21.1         22.1
      0.069536     0.070637

         1.2          2.2          3.2          4.2          5.2          6.2
     -0.646079    -0.635752    -0.506983    -0.495250     0.080753     0.093121


 **********************************************************************************************************************************
 DATASETS  * FILE   NREC   LENGTH (MB)   RECORD NAMES
              1      19      319.97       500      610      700      900      950      970     1000      129      960     1100   
                                          VAR    BASINP    GEOM    SYMINP    ZMAT    AOBASIS   BASIS     P2S    ABASIS      S 
                                         1400     1410     1200     1210     1080     1600     1650     1300     1700   
                                           T        V       H0       H01     AOSYM     SMH    MOLCAS    ERIS     OPER   

              2       3        0.73       700     1000     2100   
                                         GEOM     BASIS     RHF  

 PROGRAMS   *        TOTAL       RHF       INT
 CPU TIMES  *         8.16      4.34      3.78
 REAL TIME  *         9.62 SEC
 DISK USED  *         1.17 GB      
 GA USED    *         0.00 MB       (max)       0.00 MB       (current)
 **********************************************************************************************************************************


1PROGRAM * CCSD (Closed-shell coupled cluster)     Authors: C. Hampel, H.-J. Werner, 1991, M. Deegan, P.J. Knowles, 1992


 Convergence thresholds:  THRVAR = 1.00D-08  THRDEN = 1.00D-12

 CCSD(T)     terms to be evaluated (factor= 1.000)


 Number of core orbitals:           6 (   6   0 )
 Number of closed-shell orbitals:  18 (  14   4 )
 Number of external orbitals:     134 (  92  42 )

 Molecular orbitals read from record     2100.2  Type=RHF/CANONICAL (state 1.1)

 Number of N-1 electron functions:              18
 Number of N-2 electron functions:             171
 Number of singly external CSFs:              1456
 Number of doubly external CSFs:           1518142
 Total number of CSFs:                     1519599

 Length of J-op  integral file:               0.00 MB
 Length of K-op  integral file:               1.05 MB
 Length of 3-ext integral record:             0.00 MB

 Memory could be reduced to 29.62 Mwords without degradation in triples

 Integral transformation finished. Total CPU:   1.28 sec, npass=  1  Memory used:  13.10 MW

 Reference energy:                   -377.61224494

 MP2 singlet pair energy:              -0.63169858
 MP2 triplet pair energy:              -0.43036977
 MP2 correlation energy:               -1.06206836
 MP2 total energy:                   -378.67431329

 SCS-MP2 correlation energy:           -1.02582393   (PS=  1.200000  PT=  0.333333)
 SCS-MP2 total energy:               -378.63806887

 ITER.      SQ.NORM     CORR.ENERGY   TOTAL ENERGY   ENERGY CHANGE        DEN1      VAR(S)    VAR(P)  DIIS     TIME
   1      1.30248278    -1.07948918  -378.69173412    -0.01742083     0.01532008  0.11D-01  0.60D-02  1  1     4.52
   2      1.32701703    -1.08060839  -378.69285333    -0.00111921    -0.02615571  0.24D-03  0.10D-02  2  2     7.82
   3      1.34012583    -1.08145477  -378.69369971    -0.00084638    -0.00592271  0.21D-03  0.45D-04  3  3    11.11
   4      1.34541098    -1.08118815  -378.69343309     0.00026662    -0.00175660  0.18D-04  0.80D-05  4  4    14.42
   5      1.34747446    -1.08109991  -378.69334485     0.00008824    -0.00046370  0.17D-05  0.72D-06  5  5    17.72
   6      1.34785237    -1.08107984  -378.69332478     0.00002008    -0.00002167  0.13D-06  0.83D-07  6  6    21.04
   7      1.34793360    -1.08107049  -378.69331542     0.00000935    -0.00000590  0.12D-07  0.12D-07  6  2    24.35
   8      1.34793941    -1.08107129  -378.69331623    -0.00000080     0.00000227  0.19D-08  0.11D-08  6  1    27.66
   9      1.34794009    -1.08107112  -378.69331606     0.00000017     0.00000127  0.31D-09  0.17D-09  6  4    30.97
  10      1.34794183    -1.08107095  -378.69331589     0.00000017    -0.00000050  0.73D-10  0.23D-10  6  3    34.27
  11      1.34794135    -1.08107107  -378.69331601    -0.00000011     0.00000022  0.17D-10  0.42D-11  6  5    37.59
  12      1.34794109    -1.08107109  -378.69331603    -0.00000002     0.00000004  0.30D-11  0.11D-11  6  6    40.90
  13      1.34794081    -1.08107112  -378.69331606    -0.00000004     0.00000011  0.48D-12  0.21D-12  6  1    44.21
  14      1.34794071    -1.08107113  -378.69331607    -0.00000001     0.00000002  0.66D-13  0.31D-13  6  2    47.52
  15      1.34794068    -1.08107113  -378.69331607    -0.00000000     0.00000000  0.12D-13  0.50D-14  6  4    50.84
  16      1.34794068    -1.08107113  -378.69331607    -0.00000000    -0.00000000  0.24D-14  0.10D-14  6  3    54.14
  17      1.34794067    -1.08107113  -378.69331607     0.00000000    -0.00000000  0.27D-15  0.17D-15  6  6    57.45
  18      1.34794067    -1.08107113  -378.69331607    -0.00000000     0.00000000  0.36D-16  0.17D-16  6  5    60.77
  19      1.34794067    -1.08107113  -378.69331607    -0.00000000     0.00000000  0.90D-17  0.27D-17  6  1    64.08
  20      1.34794067    -1.08107113  -378.69331607     0.00000000    -0.00000000  0.16D-17  0.80D-18  6  5    67.40
  21      1.34794067    -1.08107113  -378.69331607    -0.00000000     0.00000000  0.18D-18  0.91D-19  6  2    70.71
  22      1.34794067    -1.08107113  -378.69331607     0.00000000    -0.00000000  0.14D-19  0.13D-19  6  3    74.02
  23      1.34794067    -1.08107113  -378.69331607     0.00000000     0.00000000  0.26D-20  0.91D-21  6  4    77.34
  24      1.34794067    -1.08107113  -378.69331607     0.00000000     0.00000000  0.87D-21  0.21D-21  6  6    80.65

 Norm of t1 vector:      0.15352109      S-energy:     0.00000000      T1 diagnostic:  0.01809263
                                                                       D1 diagnostic:  0.06212765

 Singles amplitudes (print threshold =  0.500E-01):

         I         SYM. A    A   T(IA)

        16         2         4     -0.05250873


 Total CPU time for triples:     71.27 sec


 RESULTS
 =======

  Reference energy                   -377.612244939477
  CCSD singlet pair energy             -0.702617253222
  CCSD triplet pair energy             -0.378453878860
  CCSD correlation energy              -1.081071132082

  Triples (T) contribution             -0.039378603785
  Total correlation energy             -1.120449735867

  CCSD total energy                  -378.693316071559
  CCSD[T] energy                     -378.736321868812
  CCSD-T energy                      -378.731445109620
 !CCSD(T) total energy               -378.732694675344

 Timing summary (sec):

 STEP                 CPU(USER)    SYS     CPU(TOT)    WALL
 Transformation          1.33      0.17      1.50      1.51
 CCSD iterations        79.33      2.40     81.73     81.83
 Triples                71.27      1.89     73.16     73.18

 Program statistics:

 Available memory in ccsd:               999998604
 Min. memory needed in ccsd:               3931458
 Max. memory used in ccsd:                 5315516
 Max. memory used in cckext:               5296012 (24 integral passes)



 **********************************************************************************************************************************
 DATASETS  * FILE   NREC   LENGTH (MB)   RECORD NAMES
              1      20      438.35       500      610      700      900      950      970     1000      129      960     1100   
                                          VAR    BASINP    GEOM    SYMINP    ZMAT    AOBASIS   BASIS     P2S    ABASIS      S 
                                         1400     1410     1200     1210     1080     1600     1650     1300     1700     1380   
                                           T        V       H0       H01     AOSYM     SMH    MOLCAS    ERIS     OPER     JKOP   

              2       3        0.73       700     1000     2100   
                                         GEOM     BASIS     RHF  

 PROGRAMS   *        TOTAL   CCSD(T)       RHF       INT
 CPU TIMES  *       160.09    151.93      4.34      3.78
 REAL TIME  *       166.18 SEC
 DISK USED  *         1.17 GB      
 GA USED    *         0.00 MB       (max)       0.00 MB       (current)
 **********************************************************************************************************************************

        CCSD(T)         RHF-SCF 
   -378.73269468   -377.61224494
 **********************************************************************************************************************************
 Variable memory released
