
    -----------------------------------------------------------------------
          Psi4: An Open-Source Ab Initio Electronic Structure Package
                               Psi4 1.4a2.dev629 

                         Git: Rev {master} 2938fc2 dirty


    D. G. A. Smith, L. A. Burns, A. C. Simmonett, R. M. Parrish,
    M. C. Schieber, R. Galvelis, P. Kraus, H. Kruse, R. Di Remigio,
    A. Alenaizan, A. M. James, S. Lehtola, J. P. Misiewicz, M. Scheurer,
    R. A. Shaw, J. B. Schriber, Y. Xie, Z. L. Glick, D. A. Sirianni,
    J. S. O'Brien, J. M. Waldrop, A. Kumar, E. G. Hohenstein,
    B. P. Pritchard, B. R. Brooks, H. F. Schaefer III, A. Yu. Sokolov,
    K. Patkowski, A. E. DePrince III, U. Bozkaya, R. A. King,
    F. A. Evangelista, J. M. Turney, T. D. Crawford, C. D. Sherrill,
    J. Chem. Phys. 152(18) 184108 (2020). https://doi.org/10.1063/5.0006002

                            Additional Code Authors
    E. T. Seidl, C. L. Janssen, E. F. Valeev, M. L. Leininger,
    J. F. Gonthier, R. M. Richard, H. R. McAlexander, M. Saitow, X. Wang,
    P. Verma, and M. H. Lechner

             Previous Authors, Complete List of Code Contributors,
                       and Citations for Specific Modules
    https://github.com/psi4/psi4/blob/master/codemeta.json
    https://github.com/psi4/psi4/graphs/contributors
    http://psicode.org/psi4manual/master/introduction.html#citing-psifour

    -----------------------------------------------------------------------


    Psi4 started on: Tuesday, 16 November 2021 02:48PM

    Process ID: 8953
    Host:       n083
    PSIDATADIR: /opt/psi/4/master/share/psi4
    Memory:     500.0 MiB
    Threads:    4
    
  ==> Input File <==

--------------------------------------------------------------------------
import os
memory 14 GB 
 
molecule {
 S    0.0009560877   -0.0066231284    1.1263604284
 C   -0.0019522479   -2.5860395911   -1.1111898010
 C   -0.0019528134    2.5859604632   -1.1128215980
 H    0.0006664415   -4.3370227927   -0.0299129491
 H    1.6869684001   -2.5303339324   -2.2974024394
 H   -1.6861591284   -2.5301087883   -2.2978971667
 H    0.0006680588    4.3409789894   -0.0333103536
 H   -1.6849484173    2.5314832255   -2.2968786681
 H    1.6857536190    2.5317055548   -2.2963837524
units bohr
}

basis {

assign 6-31g_2dfp_

[ 6-31g_2dfp_ ]

spherical

!----------------------------------------------------------------------
! Basis Set Exchange
! Version v0.8.13
! https://www.basissetexchange.org
!----------------------------------------------------------------------
!   Basis set: 6-31G(2df,p)
! Description: 6-31G(2df,p)
!        Role: orbital
!     Version: 0  (Data from the original Basis Set Exchange)
!----------------------------------------------------------------------


****
H     0
S    3   1.00
     18.7311370              0.03349460
      2.8253937              0.23472695
      0.6401217              0.81375733
S    1   1.00
      0.1612778              1.00000000
P    1   1.00
      1.5000000              1.0000000
P    1   1.00
      0.3750000              1.0000000
****
B     0
S    6   1.00
   2068.8823000              0.0018663
    310.6495700              0.0142515
     70.6830330              0.0695516
     19.8610800              0.2325729
      6.2993048              0.4670787
      2.1270270              0.3634314
SP   3   1.00
      4.7279710             -0.1303938              0.0745976
      1.1903377             -0.1307889              0.3078467
      0.3594117              1.1309444              0.7434568
SP   1   1.00
      0.1267512              1.0000000              1.0000000
D    1   1.00
      0.8020000              1.0000000
D    1   1.00
      0.2005000              1.0000000
F    1   1.00
      0.5000000              1.0000000
****
C     0
S    6   1.00
   3047.5249000              0.0018347
    457.3695100              0.0140373
    103.9486900              0.0688426
     29.2101550              0.2321844
      9.2866630              0.4679413
      3.1639270              0.3623120
SP   3   1.00
      7.8682724             -0.1193324              0.0689991
      1.8812885             -0.1608542              0.3164240
      0.5442493              1.1434564              0.7443083
SP   1   1.00
      0.1687144              1.0000000              1.0000000
D    1   1.00
      1.2520000              1.0000000
D    1   1.00
      0.3130000              1.0000000
F    1   1.00
      0.8000000              1.0000000
****
N     0
S    6   1.00
   4173.5110000              0.0018348
    627.4579000              0.0139950
    142.9021000              0.0685870
     40.2343300              0.2322410
     12.8202100              0.4690700
      4.3904370              0.3604550
SP   3   1.00
     11.6263580             -0.1149610              0.0675800
      2.7162800             -0.1691180              0.3239070
      0.7722180              1.1458520              0.7408950
SP   1   1.00
      0.2120313              1.0000000              1.0000000
D    1   1.00
      1.8260000              1.0000000
D    1   1.00
      0.4565000              1.0000000
F    1   1.00
      1.0000000              1.0000000
****
O     0
S    6   1.00
   5484.6717000              0.0018311
    825.2349500              0.0139501
    188.0469600              0.0684451
     52.9645000              0.2327143
     16.8975700              0.4701930
      5.7996353              0.3585209
SP   3   1.00
     15.5396160             -0.1107775              0.0708743
      3.5999336             -0.1480263              0.3397528
      1.0137618              1.1307670              0.7271586
SP   1   1.00
      0.2700058              1.0000000              1.0000000
D    1   1.00
      2.5840000              1.0000000
D    1   1.00
      0.6460000              1.0000000
F    1   1.00
      1.4000000              1.0000000
****
F     0
S    6   1.00
   7001.7130900              0.0018196169
   1051.3660900              0.0139160796
    239.2856900              0.0684053245
     67.3974453              0.233185760
     21.5199573              0.471267439
      7.40310130             0.356618546
SP   3   1.00
     20.8479528             -0.108506975            0.0716287243
      4.80830834            -0.146451658            0.3459121030
      1.34406986             1.128688580            0.7224699570
SP   1   1.00
      0.358151393            1.0000000              1.0000000
D    1   1.00
      3.5000000              1.0000000
D    1   1.00
      0.8750000              1.0000000
F    1   1.00
      1.8500000              1.0000000
****
Al     0
S    6   1.00
  13983.1000000              0.00194267
   2098.7500000              0.0148599
    477.7050000              0.0728494
    134.3600000              0.2468300
     42.8709000              0.4872580
     14.5189000              0.3234960
SP   6   1.00
    239.6680000             -0.00292619             0.00460285
     57.4419000             -0.0374080              0.0331990
     18.2859000             -0.1144870              0.1362820
      6.5991400              0.1156350              0.3304760
      2.4904900              0.6125950              0.4491460
      0.9445400              0.3937990              0.2657040
SP   3   1.00
      1.2779000             -0.2276060             -0.0175130
      0.3975900              0.00144583             0.2445330
      0.1600950              1.0927900              0.8049340
SP   1   1.00
      0.0556577              1.0000000              1.0000000
D    1   1.00
      0.6500000              1.0000000
D    1   1.00
      0.1625000              1.0000000
F    1   1.00
      0.2500000              1.0000000
****
Si     0
S    6   1.00
  16115.9000000              0.00195948
   2425.5800000              0.01492880
    553.8670000              0.07284780
    156.3400000              0.24613000
     50.0683000              0.48591400
     17.0178000              0.32500200
SP   6   1.00
    292.7180000             -0.00278094             0.00443826
     69.8731000             -0.03571460             0.03266790
     22.3363000             -0.11498500             0.13472100
      8.1503900              0.09356340             0.32867800
      3.1345800              0.60301700             0.44964000
      1.2254300              0.41895900             0.26137200
SP   3   1.00
      1.7273800             -0.24463000            -0.01779510
      0.5729220              0.00431572             0.25353900
      0.2221920              1.09818000             0.80066900
SP   1   1.00
      0.0778369              1.00000000             1.00000000
D    1   1.00
      0.9000000              1.0000000
D    1   1.00
      0.2250000              1.0000000
F    1   1.00
      0.3200000              1.0000000
****
P     0
S    6   1.00
  19413.3000000              0.0018516
   2909.4200000              0.0142062
    661.3640000              0.0699995
    185.7590000              0.2400790
     59.1943000              0.4847620
     20.0310000              0.3352000
SP   6   1.00
    339.4780000             -0.00278217             0.00456462
     81.0101000             -0.0360499              0.03369360
     25.8780000             -0.1166310              0.13975500
      9.4522100              0.0968328              0.33936200
      3.6656600              0.6144180              0.45092100
      1.4674600              0.4037980              0.23858600
SP   3   1.00
      2.1562300             -0.2529230             -0.01776530
      0.7489970              0.0328517              0.27405800
      0.2831450              1.0812500              0.78542100
SP   1   1.00
      0.0998317              1.0000000              1.00000000
D    1   1.00
      1.1000000              1.0000000
D    1   1.00
      0.2750000              1.0000000
F    1   1.00
      0.4500000              1.0000000
****
S     0
S    6   1.00
  21917.1000000              0.0018690
   3301.4900000              0.0142300
    754.1460000              0.0696960
    212.7110000              0.2384870
     67.9896000              0.4833070
     23.0515000              0.3380740
SP   6   1.00
    423.7350000             -0.0023767              0.0040610
    100.7100000             -0.0316930              0.0306810
     32.1599000             -0.1133170              0.1304520
     11.8079000              0.0560900              0.3272050
      4.6311000              0.5922550              0.4528510
      1.8702500              0.4550060              0.2560420
SP   3   1.00
      2.6158400             -0.2503740             -0.0145110
      0.9221670              0.0669570              0.3102630
      0.3412870              1.0545100              0.7544830
SP   1   1.00
      0.1171670              1.0000000              1.0000000
D    1   1.00
      1.3000000              1.0000000
D    1   1.00
      0.3250000              1.0000000
F    1   1.00
      0.5500000              1.0000000
****
Cl     0
S    6   1.00
  25180.1000000              0.0018330
   3780.3500000              0.0140340
    860.4740000              0.0690970
    242.1450000              0.2374520
     77.3349000              0.4830340
     26.2470000              0.3398560
SP   6   1.00
    491.7650000             -0.0022974              0.0039894
    116.9840000             -0.0307140              0.0303180
     37.4153000             -0.1125280              0.1298800
     13.7834000              0.0450160              0.3279510
      5.4521500              0.5893530              0.4535270
      2.2258800              0.4652060              0.2521540
SP   3   1.00
      3.1864900             -0.2518300             -0.0142990
      1.1442700              0.0615890              0.3235720
      0.4203770              1.0601800              0.7435070
SP   1   1.00
      0.1426570              1.0000000              1.0000000
D    1   1.00
      1.5000000              1.0000000
D    1   1.00
      0.3750000              1.0000000
F    1   1.00
      0.7000000              1.0000000
****
}


set {
reference rhf                          
freeze_core true
e_convergence 10                       
d_convergence 10                      
dft_spherical_points 1202
dft_radial_points 99
}

e = energy('b3lyp')

print_out('Grab this energy {0}'.format(e))
--------------------------------------------------------------------------

  Memory set to  13.039 GiB by Python driver.

Scratch directory: /tmp/

*** tstart() called on n083
*** at Tue Nov 16 14:48:47 2021

   => Loading Basis Set <=

    Name: ANONYMOUS454D6C29
    Role: ORBITAL
    Keyword: BASIS
    atoms 1   entry S          line   216 inputblock 6-31g_2dfp_ 
    atoms 2-3 entry C          line    48 inputblock 6-31g_2dfp_ 
    atoms 4-9 entry H          line    15 inputblock 6-31g_2dfp_ 


         ---------------------------------------------------------
                                   SCF
               by Justin Turney, Rob Parrish, Andy Simmonett
                          and Daniel G. A. Smith
                              RKS Reference
                        4 Threads,  13351 MiB Core
         ---------------------------------------------------------

  ==> Geometry <==

    Molecular point group: c1
    Full point group: C1

    Geometry (in Bohr), charge = 0, multiplicity = 1:

       Center              X                  Y                   Z               Mass       
    ------------   -----------------  -----------------  -----------------  -----------------
         S            0.001170869904    -0.003302373554     1.126364328024    31.972071174400
         C           -0.001737465696    -2.582718836254    -1.111185901376    12.000000000000
         C           -0.001738031196     2.589281218046    -1.112817698376    12.000000000000
         H            0.000881223704    -4.333702037854    -0.029909049476     1.007825032230
         H            1.687183182304    -2.527013177554    -2.297398539776     1.007825032230
         H           -1.685944346196    -2.526788033454    -2.297893267076     1.007825032230
         H            0.000882841004     4.344299744246    -0.033306453976     1.007825032230
         H           -1.684733635096     2.534803980346    -2.296874768476     1.007825032230
         H            1.685968401204     2.535026309646    -2.296379852776     1.007825032230

  Running in c1 symmetry.

  Rotational constants: A =      0.58462  B =      0.25538  C =      0.19064 [cm^-1]
  Rotational constants: A =  17526.39423  B =   7656.00917  C =   5715.11549 [MHz]
  Nuclear repulsion =  110.895820072658466

  Charge       = 0
  Multiplicity = 1
  Electrons    = 34
  Nalpha       = 17
  Nbeta        = 17

  ==> Algorithm <==

  SCF Algorithm Type is DF.
  DIIS enabled.
  MOM disabled.
  Fractional occupation disabled.
  Guess Type is SAD.
  Energy threshold   = 1.00e-10
  Density threshold  = 1.00e-10
  Integral threshold = 0.00e+00

  ==> Primary Basis <==

  Basis Set: ANONYMOUS454D6C29
    Blend: 6-31G_2DFP_
    Number of shells: 50
    Number of basis function: 130
    Number of Cartesian functions: 145
    Spherical Harmonics?: true
    Max angular momentum: 3

  ==> DFT Potential <==

   => Composite Functional: B3LYP <= 

    B3LYP Hyb-GGA Exchange-Correlation Functional

    P. J. Stephens, F. J. Devlin, C. F. Chabalowski, and M. J. Frisch, J. Phys. Chem. 98, 11623 (1994)

    Deriv               =              1
    GGA                 =           TRUE
    Meta                =          FALSE

    Exchange Hybrid     =           TRUE
    MP2 Hybrid          =          FALSE

   => Exchange Functionals <=

    0.0800   Slater exchange
    0.7200         Becke 88

   => Exact (HF) Exchange <=

    0.2000               HF 

   => Correlation Functionals <=

    0.1900   Vosko, Wilk & Nusair (VWN5_RPA)
    0.8100   Lee, Yang & Parr

   => Molecular Quadrature <=

    Radial Scheme          =       TREUTLER
    Pruning Scheme         =           NONE
    Nuclear Scheme         =       TREUTLER

    BS radius alpha        =              1
    Pruning alpha          =              1
    Radial Points          =             99
    Spherical Points       =           1202
    Total Points           =        1009352
    Total Blocks           =           6677
    Max Points             =            256
    Max Functions          =            130
    Weights Tolerance      =       1.00E-15

   => Loading Basis Set <=

    Name: (ANONYMOUS454D6C29 AUX)
    Role: JKFIT
    Keyword: DF_BASIS_SCF
    atoms 1   entry S          line   903 file /opt/psi/4/master/share/psi4/basis/def2-universal-jkfit.gbs 
    atoms 2-3 entry C          line   198 file /opt/psi/4/master/share/psi4/basis/def2-universal-jkfit.gbs 
    atoms 4-9 entry H          line    18 file /opt/psi/4/master/share/psi4/basis/def2-universal-jkfit.gbs 

  ==> Integral Setup <==

  DFHelper Memory: AOs need 0.053 GiB; user supplied 6.702 GiB. Using in-core AOs.

  ==> MemDFJK: Density-Fitted J/K Matrices <==

    J tasked:                   Yes
    K tasked:                   Yes
    wK tasked:                   No
    OpenMP threads:               4
    Memory [MiB]:              6863
    Algorithm:                 Core
    Schwarz Cutoff:           1E-12
    Mask sparsity (%):       1.3136
    Fitting Condition:        1E-10

   => Auxiliary Basis Set <=

  Basis Set: (ANONYMOUS454D6C29 AUX)
    Blend: DEF2-UNIVERSAL-JKFIT
    Number of shells: 124
    Number of basis function: 386
    Number of Cartesian functions: 453
    Spherical Harmonics?: true
    Max angular momentum: 4

  Cached 100.0% of DFT collocation blocks in 3.077 [GiB].

  Minimum eigenvalue in the overlap matrix is 4.5846998420E-03.
  Reciprocal condition number of the overlap matrix is 8.4271724490E-04.
    Using symmetric orthogonalization.

  ==> Pre-Iterations <==

  SCF Guess: Superposition of Atomic Densities via on-the-fly atomic UHF (no occupation information).

   -------------------------
    Irrep   Nso     Nmo    
   -------------------------
     A        130     130 
   -------------------------
    Total     130     130
   -------------------------

  ==> Iterations <==

                           Total Energy        Delta E     RMS |[F,P]|

   @DF-RKS iter SAD:  -477.50661940874454   -4.77507e+02   0.00000e+00 
   @DF-RKS iter   1:  -477.78737582276568   -2.80756e-01   5.12793e-03 DIIS
   @DF-RKS iter   2:  -477.68097343965206    1.06402e-01   5.99268e-03 DIIS
   @DF-RKS iter   3:  -478.02252571865023   -3.41552e-01   6.11113e-04 DIIS
   @DF-RKS iter   4:  -478.02608278887550   -3.55707e-03   1.29572e-04 DIIS
   @DF-RKS iter   5:  -478.02625946878447   -1.76680e-04   4.09779e-05 DIIS
   @DF-RKS iter   6:  -478.02627582528180   -1.63565e-05   6.62634e-06 DIIS
   @DF-RKS iter   7:  -478.02627620176855   -3.76487e-07   1.38007e-06 DIIS
   @DF-RKS iter   8:  -478.02627621741658   -1.56480e-08   5.91454e-07 DIIS
   @DF-RKS iter   9:  -478.02627622059072   -3.17414e-09   8.62883e-08 DIIS
   @DF-RKS iter  10:  -478.02627622066098   -7.02585e-11   6.83148e-09 DIIS
   @DF-RKS iter  11:  -478.02627622066166   -6.82121e-13   7.55273e-10 DIIS
   @DF-RKS iter  12:  -478.02627622066154    1.13687e-13   2.06616e-10 DIIS
   @DF-RKS iter  13:  -478.02627622066132    2.27374e-13   5.26340e-11 DIIS
  Energy and wave function converged.


  ==> Post-Iterations <==

    Orbital Energies [Eh]
    ---------------------

    Doubly Occupied:                                                      

       1A    -88.855124     2A    -10.201279     3A    -10.201161  
       4A     -7.924797     5A     -5.889473     6A     -5.885975  
       7A     -5.879540     8A     -0.794036     9A     -0.702506  
      10A     -0.594823    11A     -0.440011    12A     -0.438118  
      13A     -0.421701    14A     -0.405874    15A     -0.359927  
      16A     -0.311461    17A     -0.216877  

    Virtual:                                                              

      18A      0.042827    19A      0.079442    20A      0.095956  
      21A      0.124072    22A      0.133412    23A      0.149096  
      24A      0.160226    25A      0.172680    26A      0.315357  
      27A      0.334631    28A      0.337160    29A      0.345175  
      30A      0.364004    31A      0.390189    32A      0.397457  
      33A      0.444790    34A      0.482265    35A      0.488395  
      36A      0.498999    37A      0.500395    38A      0.543234  
      39A      0.582778    40A      0.609802    41A      0.616959  
      42A      0.617068    43A      0.621175    44A      0.659281  
      45A      0.724335    46A      0.748002    47A      0.748981  
      48A      0.786891    49A      0.795096    50A      0.841820  
      51A      0.854876    52A      0.895990    53A      0.993316  
      54A      1.039148    55A      1.055319    56A      1.143843  
      57A      1.149413    58A      1.150888    59A      1.255036  
      60A      1.264813    61A      1.265081    62A      1.292005  
      63A      1.294405    64A      1.306674    65A      1.316225  
      66A      1.328226    67A      1.383460    68A      1.427856  
      69A      1.454367    70A      1.544559    71A      1.683792  
      72A      1.703840    73A      1.762578    74A      1.778224  
      75A      1.815463    76A      1.843805    77A      1.886988  
      78A      1.895890    79A      1.910608    80A      1.938526  
      81A      1.969059    82A      2.020821    83A      2.086147  
      84A      2.375028    85A      2.394592    86A      2.418695  
      87A      2.461505    88A      2.472432    89A      2.910184  
      90A      2.935511    91A      2.951315    92A      2.983949  
      93A      3.004140    94A      3.007643    95A      3.040679  
      96A      3.092854    97A      3.103693    98A      3.205535  
      99A      3.214744   100A      3.279783   101A      3.326241  
     102A      3.386998   103A      3.397263   104A      3.458559  
     105A      3.489864   106A      3.523813   107A      3.581502  
     108A      3.651898   109A      3.654560   110A      3.686675  
     111A      3.753865   112A      3.813384   113A      4.103419  
     114A      4.125787   115A      4.158630   116A      4.181098  
     117A      4.237735   118A      4.261639   119A      4.338377  
     120A      4.344731   121A      4.385704   122A      4.388632  
     123A      4.405200   124A      4.454275   125A      4.919472  
     126A      4.936137   127A      5.198446   128A      5.212807  
     129A      5.220424   130A      5.241481  

    Final Occupation by Irrep:
              A 
    DOCC [    17 ]

  @DF-RKS Final Energy:  -478.02627622066132

   => Energetics <=

    Nuclear Repulsion Energy =            110.8958200726584664
    One-Electron Energy =                -876.4476756617716546
    Two-Electron Energy =                 318.8406084053464156
    DFT Exchange-Correlation Energy =     -31.3150290368945257
    Empirical Dispersion Energy =           0.0000000000000000
    VV10 Nonlocal Energy =                  0.0000000000000000
    Total Energy =                       -478.0262762206613161

Computation Completed


Properties will be evaluated at   0.000000,   0.000000,   0.000000 [a0]

Properties computed using the SCF density matrix

  Nuclear Dipole Moment: [e a0]
     X:     0.0021      Y:     0.0132      Z:    -4.5740

  Electronic Dipole Moment: [e a0]
     X:    -0.0027      Y:    -0.0126      Z:     3.9363

  Dipole Moment: [e a0]
     X:    -0.0005      Y:     0.0006      Z:    -0.6376     Total:     0.6376

  Dipole Moment: [D]
     X:    -0.0014      Y:     0.0015      Z:    -1.6206     Total:     1.6207


*** tstop() called on n083 at Tue Nov 16 14:49:00 2021
Module time:
	user time   =      52.04 seconds =       0.87 minutes
	system time =       0.93 seconds =       0.02 minutes
	total time  =         13 seconds =       0.22 minutes
Total time:
	user time   =      52.04 seconds =       0.87 minutes
	system time =       0.93 seconds =       0.02 minutes
	total time  =         13 seconds =       0.22 minutes
Grab this energy -478.0262762206613
    Psi4 stopped on: Tuesday, 16 November 2021 02:49PM
    Psi4 wall time for execution: 0:00:13.71

*** Psi4 exiting successfully. Buy a developer a beer!
