
    -----------------------------------------------------------------------
          Psi4: An Open-Source Ab Initio Electronic Structure Package
                               Psi4 1.4a2.dev629 

                         Git: Rev {master} 2938fc2 dirty


    D. G. A. Smith, L. A. Burns, A. C. Simmonett, R. M. Parrish,
    M. C. Schieber, R. Galvelis, P. Kraus, H. Kruse, R. Di Remigio,
    A. Alenaizan, A. M. James, S. Lehtola, J. P. Misiewicz, M. Scheurer,
    R. A. Shaw, J. B. Schriber, Y. Xie, Z. L. Glick, D. A. Sirianni,
    J. S. O'Brien, J. M. Waldrop, A. Kumar, E. G. Hohenstein,
    B. P. Pritchard, B. R. Brooks, H. F. Schaefer III, A. Yu. Sokolov,
    K. Patkowski, A. E. DePrince III, U. Bozkaya, R. A. King,
    F. A. Evangelista, J. M. Turney, T. D. Crawford, C. D. Sherrill,
    J. Chem. Phys. 152(18) 184108 (2020). https://doi.org/10.1063/5.0006002

                            Additional Code Authors
    E. T. Seidl, C. L. Janssen, E. F. Valeev, M. L. Leininger,
    J. F. Gonthier, R. M. Richard, H. R. McAlexander, M. Saitow, X. Wang,
    P. Verma, and M. H. Lechner

             Previous Authors, Complete List of Code Contributors,
                       and Citations for Specific Modules
    https://github.com/psi4/psi4/blob/master/codemeta.json
    https://github.com/psi4/psi4/graphs/contributors
    http://psicode.org/psi4manual/master/introduction.html#citing-psifour

    -----------------------------------------------------------------------


    Psi4 started on: Tuesday, 16 November 2021 02:53PM

    Process ID: 3765
    Host:       n040
    PSIDATADIR: /opt/psi/4/master/share/psi4
    Memory:     500.0 MiB
    Threads:    4
    
  ==> Input File <==

--------------------------------------------------------------------------
import os
memory 14 GB 
 
molecule {
 S    0.0000000000    0.0066255909    1.1263698790
 C   -0.0000000000   -2.5852603215   -1.1136621566
 C   -0.0000000000    2.5853407698   -1.1120308965
 H   -0.0000000000   -4.3438152638   -0.0305133780
 H    1.6823301668   -2.5305386781   -2.2976117828
 H   -1.6823301668   -2.5305386781   -2.2976117828
 H   -0.0000000000    4.3398562520   -0.0271139639
 H   -1.6835407526    2.5291651644   -2.2986311093
 H    1.6835407526    2.5291651644   -2.2986311093
units bohr
}

basis {

assign 6-31g_2dfp_

[ 6-31g_2dfp_ ]

spherical

!----------------------------------------------------------------------
! Basis Set Exchange
! Version v0.8.13
! https://www.basissetexchange.org
!----------------------------------------------------------------------
!   Basis set: 6-31G(2df,p)
! Description: 6-31G(2df,p)
!        Role: orbital
!     Version: 0  (Data from the original Basis Set Exchange)
!----------------------------------------------------------------------


****
H     0
S    3   1.00
     18.7311370              0.03349460
      2.8253937              0.23472695
      0.6401217              0.81375733
S    1   1.00
      0.1612778              1.00000000
P    1   1.00
      1.5000000              1.0000000
P    1   1.00
      0.3750000              1.0000000
****
B     0
S    6   1.00
   2068.8823000              0.0018663
    310.6495700              0.0142515
     70.6830330              0.0695516
     19.8610800              0.2325729
      6.2993048              0.4670787
      2.1270270              0.3634314
SP   3   1.00
      4.7279710             -0.1303938              0.0745976
      1.1903377             -0.1307889              0.3078467
      0.3594117              1.1309444              0.7434568
SP   1   1.00
      0.1267512              1.0000000              1.0000000
D    1   1.00
      0.8020000              1.0000000
D    1   1.00
      0.2005000              1.0000000
F    1   1.00
      0.5000000              1.0000000
****
C     0
S    6   1.00
   3047.5249000              0.0018347
    457.3695100              0.0140373
    103.9486900              0.0688426
     29.2101550              0.2321844
      9.2866630              0.4679413
      3.1639270              0.3623120
SP   3   1.00
      7.8682724             -0.1193324              0.0689991
      1.8812885             -0.1608542              0.3164240
      0.5442493              1.1434564              0.7443083
SP   1   1.00
      0.1687144              1.0000000              1.0000000
D    1   1.00
      1.2520000              1.0000000
D    1   1.00
      0.3130000              1.0000000
F    1   1.00
      0.8000000              1.0000000
****
N     0
S    6   1.00
   4173.5110000              0.0018348
    627.4579000              0.0139950
    142.9021000              0.0685870
     40.2343300              0.2322410
     12.8202100              0.4690700
      4.3904370              0.3604550
SP   3   1.00
     11.6263580             -0.1149610              0.0675800
      2.7162800             -0.1691180              0.3239070
      0.7722180              1.1458520              0.7408950
SP   1   1.00
      0.2120313              1.0000000              1.0000000
D    1   1.00
      1.8260000              1.0000000
D    1   1.00
      0.4565000              1.0000000
F    1   1.00
      1.0000000              1.0000000
****
O     0
S    6   1.00
   5484.6717000              0.0018311
    825.2349500              0.0139501
    188.0469600              0.0684451
     52.9645000              0.2327143
     16.8975700              0.4701930
      5.7996353              0.3585209
SP   3   1.00
     15.5396160             -0.1107775              0.0708743
      3.5999336             -0.1480263              0.3397528
      1.0137618              1.1307670              0.7271586
SP   1   1.00
      0.2700058              1.0000000              1.0000000
D    1   1.00
      2.5840000              1.0000000
D    1   1.00
      0.6460000              1.0000000
F    1   1.00
      1.4000000              1.0000000
****
F     0
S    6   1.00
   7001.7130900              0.0018196169
   1051.3660900              0.0139160796
    239.2856900              0.0684053245
     67.3974453              0.233185760
     21.5199573              0.471267439
      7.40310130             0.356618546
SP   3   1.00
     20.8479528             -0.108506975            0.0716287243
      4.80830834            -0.146451658            0.3459121030
      1.34406986             1.128688580            0.7224699570
SP   1   1.00
      0.358151393            1.0000000              1.0000000
D    1   1.00
      3.5000000              1.0000000
D    1   1.00
      0.8750000              1.0000000
F    1   1.00
      1.8500000              1.0000000
****
Al     0
S    6   1.00
  13983.1000000              0.00194267
   2098.7500000              0.0148599
    477.7050000              0.0728494
    134.3600000              0.2468300
     42.8709000              0.4872580
     14.5189000              0.3234960
SP   6   1.00
    239.6680000             -0.00292619             0.00460285
     57.4419000             -0.0374080              0.0331990
     18.2859000             -0.1144870              0.1362820
      6.5991400              0.1156350              0.3304760
      2.4904900              0.6125950              0.4491460
      0.9445400              0.3937990              0.2657040
SP   3   1.00
      1.2779000             -0.2276060             -0.0175130
      0.3975900              0.00144583             0.2445330
      0.1600950              1.0927900              0.8049340
SP   1   1.00
      0.0556577              1.0000000              1.0000000
D    1   1.00
      0.6500000              1.0000000
D    1   1.00
      0.1625000              1.0000000
F    1   1.00
      0.2500000              1.0000000
****
Si     0
S    6   1.00
  16115.9000000              0.00195948
   2425.5800000              0.01492880
    553.8670000              0.07284780
    156.3400000              0.24613000
     50.0683000              0.48591400
     17.0178000              0.32500200
SP   6   1.00
    292.7180000             -0.00278094             0.00443826
     69.8731000             -0.03571460             0.03266790
     22.3363000             -0.11498500             0.13472100
      8.1503900              0.09356340             0.32867800
      3.1345800              0.60301700             0.44964000
      1.2254300              0.41895900             0.26137200
SP   3   1.00
      1.7273800             -0.24463000            -0.01779510
      0.5729220              0.00431572             0.25353900
      0.2221920              1.09818000             0.80066900
SP   1   1.00
      0.0778369              1.00000000             1.00000000
D    1   1.00
      0.9000000              1.0000000
D    1   1.00
      0.2250000              1.0000000
F    1   1.00
      0.3200000              1.0000000
****
P     0
S    6   1.00
  19413.3000000              0.0018516
   2909.4200000              0.0142062
    661.3640000              0.0699995
    185.7590000              0.2400790
     59.1943000              0.4847620
     20.0310000              0.3352000
SP   6   1.00
    339.4780000             -0.00278217             0.00456462
     81.0101000             -0.0360499              0.03369360
     25.8780000             -0.1166310              0.13975500
      9.4522100              0.0968328              0.33936200
      3.6656600              0.6144180              0.45092100
      1.4674600              0.4037980              0.23858600
SP   3   1.00
      2.1562300             -0.2529230             -0.01776530
      0.7489970              0.0328517              0.27405800
      0.2831450              1.0812500              0.78542100
SP   1   1.00
      0.0998317              1.0000000              1.00000000
D    1   1.00
      1.1000000              1.0000000
D    1   1.00
      0.2750000              1.0000000
F    1   1.00
      0.4500000              1.0000000
****
S     0
S    6   1.00
  21917.1000000              0.0018690
   3301.4900000              0.0142300
    754.1460000              0.0696960
    212.7110000              0.2384870
     67.9896000              0.4833070
     23.0515000              0.3380740
SP   6   1.00
    423.7350000             -0.0023767              0.0040610
    100.7100000             -0.0316930              0.0306810
     32.1599000             -0.1133170              0.1304520
     11.8079000              0.0560900              0.3272050
      4.6311000              0.5922550              0.4528510
      1.8702500              0.4550060              0.2560420
SP   3   1.00
      2.6158400             -0.2503740             -0.0145110
      0.9221670              0.0669570              0.3102630
      0.3412870              1.0545100              0.7544830
SP   1   1.00
      0.1171670              1.0000000              1.0000000
D    1   1.00
      1.3000000              1.0000000
D    1   1.00
      0.3250000              1.0000000
F    1   1.00
      0.5500000              1.0000000
****
Cl     0
S    6   1.00
  25180.1000000              0.0018330
   3780.3500000              0.0140340
    860.4740000              0.0690970
    242.1450000              0.2374520
     77.3349000              0.4830340
     26.2470000              0.3398560
SP   6   1.00
    491.7650000             -0.0022974              0.0039894
    116.9840000             -0.0307140              0.0303180
     37.4153000             -0.1125280              0.1298800
     13.7834000              0.0450160              0.3279510
      5.4521500              0.5893530              0.4535270
      2.2258800              0.4652060              0.2521540
SP   3   1.00
      3.1864900             -0.2518300             -0.0142990
      1.1442700              0.0615890              0.3235720
      0.4203770              1.0601800              0.7435070
SP   1   1.00
      0.1426570              1.0000000              1.0000000
D    1   1.00
      1.5000000              1.0000000
D    1   1.00
      0.3750000              1.0000000
F    1   1.00
      0.7000000              1.0000000
****
}


set {
reference rhf                          
freeze_core true
e_convergence 10                       
d_convergence 10                      
dft_spherical_points 1202
dft_radial_points 99
}

e = energy('b3lyp')

print_out('Grab this energy {0}'.format(e))
--------------------------------------------------------------------------

  Memory set to  13.039 GiB by Python driver.

Scratch directory: /tmp/

*** tstart() called on n040
*** at Tue Nov 16 14:53:48 2021

   => Loading Basis Set <=

    Name: ANONYMOUSF5BE9995
    Role: ORBITAL
    Keyword: BASIS
    atoms 1   entry S          line   216 inputblock 6-31g_2dfp_ 
    atoms 2-3 entry C          line    48 inputblock 6-31g_2dfp_ 
    atoms 4-9 entry H          line    15 inputblock 6-31g_2dfp_ 


         ---------------------------------------------------------
                                   SCF
               by Justin Turney, Rob Parrish, Andy Simmonett
                          and Daniel G. A. Smith
                              RKS Reference
                        4 Threads,  13351 MiB Core
         ---------------------------------------------------------

  ==> Geometry <==

    Molecular point group: cs
    Full point group: Cs

    Geometry (in Bohr), charge = 0, multiplicity = 1:

       Center              X                  Y                   Z               Mass       
    ------------   -----------------  -----------------  -----------------  -----------------
         S           -0.003303372576    -1.126667114528     0.000000000000    31.972071174400
         C            2.588582539824     1.113364921072     0.000000000000    12.000000000000
         C           -2.582018551476     1.111733660972     0.000000000000    12.000000000000
         H            4.347137482124     0.030216142472     0.000000000000     1.007825032230
         H            2.533860896424     2.297314547272     1.682330166800     1.007825032230
         H            2.533860896424     2.297314547272    -1.682330166800     1.007825032230
         H           -4.336534033676     0.026816728372     0.000000000000     1.007825032230
         H           -2.525842946076     2.298333873772    -1.683540752600     1.007825032230
         H           -2.525842946076     2.298333873772     1.683540752600     1.007825032230

  Running in cs symmetry.

  Rotational constants: A =      0.58449  B =      0.25549  C =      0.19063 [cm^-1]
  Rotational constants: A =  17522.60943  B =   7659.25260  C =   5715.03294 [MHz]
  Nuclear repulsion =  110.898048698424958

  Charge       = 0
  Multiplicity = 1
  Electrons    = 34
  Nalpha       = 17
  Nbeta        = 17

  ==> Algorithm <==

  SCF Algorithm Type is DF.
  DIIS enabled.
  MOM disabled.
  Fractional occupation disabled.
  Guess Type is SAD.
  Energy threshold   = 1.00e-10
  Density threshold  = 1.00e-10
  Integral threshold = 0.00e+00

  ==> Primary Basis <==

  Basis Set: ANONYMOUSF5BE9995
    Blend: 6-31G_2DFP_
    Number of shells: 50
    Number of basis function: 130
    Number of Cartesian functions: 145
    Spherical Harmonics?: true
    Max angular momentum: 3

  ==> DFT Potential <==

   => Composite Functional: B3LYP <= 

    B3LYP Hyb-GGA Exchange-Correlation Functional

    P. J. Stephens, F. J. Devlin, C. F. Chabalowski, and M. J. Frisch, J. Phys. Chem. 98, 11623 (1994)

    Deriv               =              1
    GGA                 =           TRUE
    Meta                =          FALSE

    Exchange Hybrid     =           TRUE
    MP2 Hybrid          =          FALSE

   => Exchange Functionals <=

    0.0800   Slater exchange
    0.7200         Becke 88

   => Exact (HF) Exchange <=

    0.2000               HF 

   => Correlation Functionals <=

    0.1900   Vosko, Wilk & Nusair (VWN5_RPA)
    0.8100   Lee, Yang & Parr

   => Molecular Quadrature <=

    Radial Scheme          =       TREUTLER
    Pruning Scheme         =           NONE
    Nuclear Scheme         =       TREUTLER

    BS radius alpha        =              1
    Pruning alpha          =              1
    Radial Points          =             99
    Spherical Points       =           1202
    Total Points           =        1009354
    Total Blocks           =           6741
    Max Points             =            256
    Max Functions          =            130
    Weights Tolerance      =       1.00E-15

   => Loading Basis Set <=

    Name: (ANONYMOUSF5BE9995 AUX)
    Role: JKFIT
    Keyword: DF_BASIS_SCF
    atoms 1   entry S          line   903 file /opt/psi/4/master/share/psi4/basis/def2-universal-jkfit.gbs 
    atoms 2-3 entry C          line   198 file /opt/psi/4/master/share/psi4/basis/def2-universal-jkfit.gbs 
    atoms 4-9 entry H          line    18 file /opt/psi/4/master/share/psi4/basis/def2-universal-jkfit.gbs 

  ==> Integral Setup <==

  DFHelper Memory: AOs need 0.053 GiB; user supplied 6.710 GiB. Using in-core AOs.

  ==> MemDFJK: Density-Fitted J/K Matrices <==

    J tasked:                   Yes
    K tasked:                   Yes
    wK tasked:                   No
    OpenMP threads:               4
    Memory [MiB]:              6871
    Algorithm:                 Core
    Schwarz Cutoff:           1E-12
    Mask sparsity (%):       1.3136
    Fitting Condition:        1E-10

   => Auxiliary Basis Set <=

  Basis Set: (ANONYMOUSF5BE9995 AUX)
    Blend: DEF2-UNIVERSAL-JKFIT
    Number of shells: 124
    Number of basis function: 386
    Number of Cartesian functions: 453
    Spherical Harmonics?: true
    Max angular momentum: 4

  Cached 100.0% of DFT collocation blocks in 3.069 [GiB].

  Minimum eigenvalue in the overlap matrix is 4.5702141218E-03.
  Reciprocal condition number of the overlap matrix is 9.0536343166E-04.
    Using symmetric orthogonalization.

  ==> Pre-Iterations <==

  SCF Guess: Superposition of Atomic Densities via on-the-fly atomic UHF (no occupation information).

   -------------------------
    Irrep   Nso     Nmo    
   -------------------------
     A'        82      82 
     A"        48      48 
   -------------------------
    Total     130     130
   -------------------------

  ==> Iterations <==

                           Total Energy        Delta E     RMS |[F,P]|

   @DF-RKS iter SAD:  -477.50659235471062   -4.77507e+02   0.00000e+00 
   @DF-RKS iter   1:  -477.78728045601400   -2.80688e-01   7.01731e-03 DIIS
   @DF-RKS iter   2:  -477.68039391091588    1.06887e-01   8.20534e-03 DIIS
   @DF-RKS iter   3:  -478.02249917443720   -3.42105e-01   8.37311e-04 DIIS
   @DF-RKS iter   4:  -478.02606789752122   -3.56872e-03   1.77413e-04 DIIS
   @DF-RKS iter   5:  -478.02624475724070   -1.76860e-04   5.61711e-05 DIIS
   @DF-RKS iter   6:  -478.02626117097725   -1.64137e-05   9.06464e-06 DIIS
   @DF-RKS iter   7:  -478.02626154704745   -3.76070e-07   1.89431e-06 DIIS
   @DF-RKS iter   8:  -478.02626156281190   -1.57644e-08   8.11379e-07 DIIS
   @DF-RKS iter   9:  -478.02626156600348   -3.19159e-09   1.17885e-07 DIIS
   @DF-RKS iter  10:  -478.02626156607403   -7.05427e-11   9.33561e-09 DIIS
   @DF-RKS iter  11:  -478.02626156607369    3.41061e-13   1.02846e-09 DIIS
   @DF-RKS iter  12:  -478.02626156607414   -4.54747e-13   2.79637e-10 DIIS
   @DF-RKS iter  13:  -478.02626156607403    1.13687e-13   7.12269e-11 DIIS
  Energy and wave function converged.


  ==> Post-Iterations <==

    Orbital Energies [Eh]
    ---------------------

    Doubly Occupied:                                                      

       1Ap   -88.855137     2Ap   -10.201283     3Ap   -10.201166  
       4Ap    -7.924807     5Ap    -5.889485     6Ap    -5.885985  
       1App   -5.879549     7Ap    -0.794057     8Ap    -0.702427  
       9Ap    -0.594875    10Ap    -0.439737     2App   -0.438248  
      11Ap    -0.421946     3App   -0.405989    12Ap    -0.359543  
      13Ap    -0.311613     4App   -0.216899  

    Virtual:                                                              

      14Ap     0.042819    15Ap     0.079429    16Ap     0.095913  
      17Ap     0.123786     5App    0.133657    18Ap     0.148724  
       6App    0.160545    19Ap     0.172803    20Ap     0.315284  
       7App    0.334642    21Ap     0.337233    22Ap     0.345181  
      23Ap     0.364012     8App    0.390235     9App    0.397389  
      24Ap     0.444890    10App    0.482079    25Ap     0.488099  
      26Ap     0.499178    11App    0.500354    27Ap     0.543366  
      28Ap     0.582278    12App    0.610258    13App    0.617372  
      29Ap     0.617381    30Ap     0.620241    31Ap     0.659501  
      32Ap     0.724297    14App    0.748163    15App    0.749151  
      33Ap     0.786465    34Ap     0.794586    16App    0.842062  
      35Ap     0.855254    17App    0.895963    36Ap     0.993827  
      18App    1.039346    37Ap     1.054807    19App    1.143924  
      38Ap     1.149197    39Ap     1.150312    20App    1.255165  
      40Ap     1.265268    41Ap     1.265292    42Ap     1.291962  
      43Ap     1.294144    21App    1.306688    22App    1.316086  
      44Ap     1.327480    45Ap     1.383349    46Ap     1.428556  
      23App    1.455228    47Ap     1.545251    48Ap     1.682553  
      24App    1.704192    49Ap     1.763760    50Ap     1.776662  
      25App    1.815283    51Ap     1.845320    26App    1.886783  
      52Ap     1.895087    27App    1.911948    53Ap     1.937792  
      54Ap     1.968454    28App    2.021533    55Ap     2.085490  
      29App    2.375341    56Ap     2.394338    30App    2.418742  
      57Ap     2.461529    58Ap     2.472129    31App    2.910067  
      32App    2.935658    59Ap     2.950380    33App    2.985475  
      34App    3.005428    60Ap     3.007013    61Ap     3.040782  
      62Ap     3.091872    35App    3.103342    63Ap     3.205660  
      36App    3.214431    64Ap     3.280238    37App    3.325930  
      65Ap     3.387674    38App    3.396603    66Ap     3.458725  
      39App    3.489629    67Ap     3.524820    68Ap     3.580337  
      69Ap     3.650888    40App    3.654262    70Ap     3.687409  
      71Ap     3.753998    72Ap     3.814634    41App    4.103110  
      73Ap     4.128109    74Ap     4.157460    42App    4.179473  
      75Ap     4.236252    76Ap     4.263213    77Ap     4.337348  
      43App    4.345249    78Ap     4.383623    44App    4.390376  
      45App    4.405358    46App    4.455281    79Ap     4.919008  
      80Ap     4.936460    47App    5.202222    81Ap     5.209164  
      82Ap     5.216628    48App    5.245598  

    Final Occupation by Irrep:
             Ap   App 
    DOCC [    13,    4 ]

  @DF-RKS Final Energy:  -478.02626156607403

   => Energetics <=

    Nuclear Repulsion Energy =            110.8980486984249580
    One-Electron Energy =                -876.4520021691466809
    Two-Electron Energy =                 318.8426883599825601
    DFT Exchange-Correlation Energy =     -31.3149964553349065
    Empirical Dispersion Energy =           0.0000000000000000
    VV10 Nonlocal Energy =                  0.0000000000000000
    Total Energy =                       -478.0262615660740266

Computation Completed


Properties will be evaluated at   0.000000,   0.000000,   0.000000 [a0]

Properties computed using the SCF density matrix

  Nuclear Dipole Moment: [e a0]
     X:     0.0132      Y:     4.5722      Z:     0.0000

  Electronic Dipole Moment: [e a0]
     X:    -0.0126      Y:    -3.9337      Z:     0.0000

  Dipole Moment: [e a0]
     X:     0.0006      Y:     0.6386      Z:     0.0000     Total:     0.6386

  Dipole Moment: [D]
     X:     0.0015      Y:     1.6231      Z:     0.0000     Total:     1.6231


*** tstop() called on n040 at Tue Nov 16 14:54:06 2021
Module time:
	user time   =      70.17 seconds =       1.17 minutes
	system time =       0.74 seconds =       0.01 minutes
	total time  =         18 seconds =       0.30 minutes
Total time:
	user time   =      70.17 seconds =       1.17 minutes
	system time =       0.74 seconds =       0.01 minutes
	total time  =         18 seconds =       0.30 minutes
Grab this energy -478.026261566074
    Psi4 stopped on: Tuesday, 16 November 2021 02:54PM
    Psi4 wall time for execution: 0:00:18.34

*** Psi4 exiting successfully. Buy a developer a beer!
