
    -----------------------------------------------------------------------
          Psi4: An Open-Source Ab Initio Electronic Structure Package
                               Psi4 1.4a2.dev629 

                         Git: Rev {master} 2938fc2 dirty


    D. G. A. Smith, L. A. Burns, A. C. Simmonett, R. M. Parrish,
    M. C. Schieber, R. Galvelis, P. Kraus, H. Kruse, R. Di Remigio,
    A. Alenaizan, A. M. James, S. Lehtola, J. P. Misiewicz, M. Scheurer,
    R. A. Shaw, J. B. Schriber, Y. Xie, Z. L. Glick, D. A. Sirianni,
    J. S. O'Brien, J. M. Waldrop, A. Kumar, E. G. Hohenstein,
    B. P. Pritchard, B. R. Brooks, H. F. Schaefer III, A. Yu. Sokolov,
    K. Patkowski, A. E. DePrince III, U. Bozkaya, R. A. King,
    F. A. Evangelista, J. M. Turney, T. D. Crawford, C. D. Sherrill,
    J. Chem. Phys. 152(18) 184108 (2020). https://doi.org/10.1063/5.0006002

                            Additional Code Authors
    E. T. Seidl, C. L. Janssen, E. F. Valeev, M. L. Leininger,
    J. F. Gonthier, R. M. Richard, H. R. McAlexander, M. Saitow, X. Wang,
    P. Verma, and M. H. Lechner

             Previous Authors, Complete List of Code Contributors,
                       and Citations for Specific Modules
    https://github.com/psi4/psi4/blob/master/codemeta.json
    https://github.com/psi4/psi4/graphs/contributors
    http://psicode.org/psi4manual/master/introduction.html#citing-psifour

    -----------------------------------------------------------------------


    Psi4 started on: Tuesday, 16 November 2021 02:45PM

    Process ID: 1103
    Host:       n090
    PSIDATADIR: /opt/psi/4/master/share/psi4
    Memory:     500.0 MiB
    Threads:    4
    
  ==> Input File <==

--------------------------------------------------------------------------
import os
memory 14 GB 
 
molecule {
 S   -0.0000000000   -0.0066227064    1.1266123271
 C    0.0000000000   -2.5875755048   -1.1123445130
 C   -0.0000000000    2.5874965964   -1.1139772195
 H    0.0000000000   -4.3366566876   -0.0294608973
 H    1.6866664705   -2.5297170420   -2.2973612074
 H   -1.6866664705   -2.5297170420   -2.2973612074
 H    0.0000000000    4.3406146452   -0.0328537792
 H   -1.6854533163    2.5310888706   -2.2963449017
 H    1.6854533163    2.5310888706   -2.2963449017
units bohr
}

basis {

assign 6-31g_2dfp_

[ 6-31g_2dfp_ ]

spherical

!----------------------------------------------------------------------
! Basis Set Exchange
! Version v0.8.13
! https://www.basissetexchange.org
!----------------------------------------------------------------------
!   Basis set: 6-31G(2df,p)
! Description: 6-31G(2df,p)
!        Role: orbital
!     Version: 0  (Data from the original Basis Set Exchange)
!----------------------------------------------------------------------


****
H     0
S    3   1.00
     18.7311370              0.03349460
      2.8253937              0.23472695
      0.6401217              0.81375733
S    1   1.00
      0.1612778              1.00000000
P    1   1.00
      1.5000000              1.0000000
P    1   1.00
      0.3750000              1.0000000
****
B     0
S    6   1.00
   2068.8823000              0.0018663
    310.6495700              0.0142515
     70.6830330              0.0695516
     19.8610800              0.2325729
      6.2993048              0.4670787
      2.1270270              0.3634314
SP   3   1.00
      4.7279710             -0.1303938              0.0745976
      1.1903377             -0.1307889              0.3078467
      0.3594117              1.1309444              0.7434568
SP   1   1.00
      0.1267512              1.0000000              1.0000000
D    1   1.00
      0.8020000              1.0000000
D    1   1.00
      0.2005000              1.0000000
F    1   1.00
      0.5000000              1.0000000
****
C     0
S    6   1.00
   3047.5249000              0.0018347
    457.3695100              0.0140373
    103.9486900              0.0688426
     29.2101550              0.2321844
      9.2866630              0.4679413
      3.1639270              0.3623120
SP   3   1.00
      7.8682724             -0.1193324              0.0689991
      1.8812885             -0.1608542              0.3164240
      0.5442493              1.1434564              0.7443083
SP   1   1.00
      0.1687144              1.0000000              1.0000000
D    1   1.00
      1.2520000              1.0000000
D    1   1.00
      0.3130000              1.0000000
F    1   1.00
      0.8000000              1.0000000
****
N     0
S    6   1.00
   4173.5110000              0.0018348
    627.4579000              0.0139950
    142.9021000              0.0685870
     40.2343300              0.2322410
     12.8202100              0.4690700
      4.3904370              0.3604550
SP   3   1.00
     11.6263580             -0.1149610              0.0675800
      2.7162800             -0.1691180              0.3239070
      0.7722180              1.1458520              0.7408950
SP   1   1.00
      0.2120313              1.0000000              1.0000000
D    1   1.00
      1.8260000              1.0000000
D    1   1.00
      0.4565000              1.0000000
F    1   1.00
      1.0000000              1.0000000
****
O     0
S    6   1.00
   5484.6717000              0.0018311
    825.2349500              0.0139501
    188.0469600              0.0684451
     52.9645000              0.2327143
     16.8975700              0.4701930
      5.7996353              0.3585209
SP   3   1.00
     15.5396160             -0.1107775              0.0708743
      3.5999336             -0.1480263              0.3397528
      1.0137618              1.1307670              0.7271586
SP   1   1.00
      0.2700058              1.0000000              1.0000000
D    1   1.00
      2.5840000              1.0000000
D    1   1.00
      0.6460000              1.0000000
F    1   1.00
      1.4000000              1.0000000
****
F     0
S    6   1.00
   7001.7130900              0.0018196169
   1051.3660900              0.0139160796
    239.2856900              0.0684053245
     67.3974453              0.233185760
     21.5199573              0.471267439
      7.40310130             0.356618546
SP   3   1.00
     20.8479528             -0.108506975            0.0716287243
      4.80830834            -0.146451658            0.3459121030
      1.34406986             1.128688580            0.7224699570
SP   1   1.00
      0.358151393            1.0000000              1.0000000
D    1   1.00
      3.5000000              1.0000000
D    1   1.00
      0.8750000              1.0000000
F    1   1.00
      1.8500000              1.0000000
****
Al     0
S    6   1.00
  13983.1000000              0.00194267
   2098.7500000              0.0148599
    477.7050000              0.0728494
    134.3600000              0.2468300
     42.8709000              0.4872580
     14.5189000              0.3234960
SP   6   1.00
    239.6680000             -0.00292619             0.00460285
     57.4419000             -0.0374080              0.0331990
     18.2859000             -0.1144870              0.1362820
      6.5991400              0.1156350              0.3304760
      2.4904900              0.6125950              0.4491460
      0.9445400              0.3937990              0.2657040
SP   3   1.00
      1.2779000             -0.2276060             -0.0175130
      0.3975900              0.00144583             0.2445330
      0.1600950              1.0927900              0.8049340
SP   1   1.00
      0.0556577              1.0000000              1.0000000
D    1   1.00
      0.6500000              1.0000000
D    1   1.00
      0.1625000              1.0000000
F    1   1.00
      0.2500000              1.0000000
****
Si     0
S    6   1.00
  16115.9000000              0.00195948
   2425.5800000              0.01492880
    553.8670000              0.07284780
    156.3400000              0.24613000
     50.0683000              0.48591400
     17.0178000              0.32500200
SP   6   1.00
    292.7180000             -0.00278094             0.00443826
     69.8731000             -0.03571460             0.03266790
     22.3363000             -0.11498500             0.13472100
      8.1503900              0.09356340             0.32867800
      3.1345800              0.60301700             0.44964000
      1.2254300              0.41895900             0.26137200
SP   3   1.00
      1.7273800             -0.24463000            -0.01779510
      0.5729220              0.00431572             0.25353900
      0.2221920              1.09818000             0.80066900
SP   1   1.00
      0.0778369              1.00000000             1.00000000
D    1   1.00
      0.9000000              1.0000000
D    1   1.00
      0.2250000              1.0000000
F    1   1.00
      0.3200000              1.0000000
****
P     0
S    6   1.00
  19413.3000000              0.0018516
   2909.4200000              0.0142062
    661.3640000              0.0699995
    185.7590000              0.2400790
     59.1943000              0.4847620
     20.0310000              0.3352000
SP   6   1.00
    339.4780000             -0.00278217             0.00456462
     81.0101000             -0.0360499              0.03369360
     25.8780000             -0.1166310              0.13975500
      9.4522100              0.0968328              0.33936200
      3.6656600              0.6144180              0.45092100
      1.4674600              0.4037980              0.23858600
SP   3   1.00
      2.1562300             -0.2529230             -0.01776530
      0.7489970              0.0328517              0.27405800
      0.2831450              1.0812500              0.78542100
SP   1   1.00
      0.0998317              1.0000000              1.00000000
D    1   1.00
      1.1000000              1.0000000
D    1   1.00
      0.2750000              1.0000000
F    1   1.00
      0.4500000              1.0000000
****
S     0
S    6   1.00
  21917.1000000              0.0018690
   3301.4900000              0.0142300
    754.1460000              0.0696960
    212.7110000              0.2384870
     67.9896000              0.4833070
     23.0515000              0.3380740
SP   6   1.00
    423.7350000             -0.0023767              0.0040610
    100.7100000             -0.0316930              0.0306810
     32.1599000             -0.1133170              0.1304520
     11.8079000              0.0560900              0.3272050
      4.6311000              0.5922550              0.4528510
      1.8702500              0.4550060              0.2560420
SP   3   1.00
      2.6158400             -0.2503740             -0.0145110
      0.9221670              0.0669570              0.3102630
      0.3412870              1.0545100              0.7544830
SP   1   1.00
      0.1171670              1.0000000              1.0000000
D    1   1.00
      1.3000000              1.0000000
D    1   1.00
      0.3250000              1.0000000
F    1   1.00
      0.5500000              1.0000000
****
Cl     0
S    6   1.00
  25180.1000000              0.0018330
   3780.3500000              0.0140340
    860.4740000              0.0690970
    242.1450000              0.2374520
     77.3349000              0.4830340
     26.2470000              0.3398560
SP   6   1.00
    491.7650000             -0.0022974              0.0039894
    116.9840000             -0.0307140              0.0303180
     37.4153000             -0.1125280              0.1298800
     13.7834000              0.0450160              0.3279510
      5.4521500              0.5893530              0.4535270
      2.2258800              0.4652060              0.2521540
SP   3   1.00
      3.1864900             -0.2518300             -0.0142990
      1.1442700              0.0615890              0.3235720
      0.4203770              1.0601800              0.7435070
SP   1   1.00
      0.1426570              1.0000000              1.0000000
D    1   1.00
      1.5000000              1.0000000
D    1   1.00
      0.3750000              1.0000000
F    1   1.00
      0.7000000              1.0000000
****
}


set {
reference rhf                          
freeze_core true
e_convergence 10                       
d_convergence 10                      
dft_spherical_points 1202
dft_radial_points 99
}

e = energy('b3lyp')

print_out('Grab this energy {0}'.format(e))
--------------------------------------------------------------------------

  Memory set to  13.039 GiB by Python driver.

Scratch directory: /tmp/

*** tstart() called on n090
*** at Tue Nov 16 14:45:17 2021

   => Loading Basis Set <=

    Name: ANONYMOUS3F3B20E3
    Role: ORBITAL
    Keyword: BASIS
    atoms 1   entry S          line   216 inputblock 6-31g_2dfp_ 
    atoms 2-3 entry C          line    48 inputblock 6-31g_2dfp_ 
    atoms 4-9 entry H          line    15 inputblock 6-31g_2dfp_ 


         ---------------------------------------------------------
                                   SCF
               by Justin Turney, Rob Parrish, Andy Simmonett
                          and Daniel G. A. Smith
                              RKS Reference
                        4 Threads,  13351 MiB Core
         ---------------------------------------------------------

  ==> Geometry <==

    Molecular point group: cs
    Full point group: Cs

    Geometry (in Bohr), charge = 0, multiplicity = 1:

       Center              X                  Y                   Z               Mass       
    ------------   -----------------  -----------------  -----------------  -----------------
         S            0.003302201150    -1.126899941889     0.000000000000    31.972071174400
         C            2.584254999550     1.112056898211     0.000000000000    12.000000000000
         C           -2.590817101650     1.113689604711     0.000000000000    12.000000000000
         H            4.333336182350     0.029173282511     0.000000000000     1.007825032230
         H            2.526396536750     2.297073592611     1.686666470500     1.007825032230
         H            2.526396536750     2.297073592611    -1.686666470500     1.007825032230
         H           -4.343935150450     0.032566164411     0.000000000000     1.007825032230
         H           -2.534409375850     2.296057286911    -1.685453316300     1.007825032230
         H           -2.534409375850     2.296057286911     1.685453316300     1.007825032230

  Running in cs symmetry.

  Rotational constants: A =      0.58419  B =      0.25519  C =      0.19049 [cm^-1]
  Rotational constants: A =  17513.51537  B =   7650.31699  C =   5710.62362 [MHz]
  Nuclear repulsion =  110.864276790165775

  Charge       = 0
  Multiplicity = 1
  Electrons    = 34
  Nalpha       = 17
  Nbeta        = 17

  ==> Algorithm <==

  SCF Algorithm Type is DF.
  DIIS enabled.
  MOM disabled.
  Fractional occupation disabled.
  Guess Type is SAD.
  Energy threshold   = 1.00e-10
  Density threshold  = 1.00e-10
  Integral threshold = 0.00e+00

  ==> Primary Basis <==

  Basis Set: ANONYMOUS3F3B20E3
    Blend: 6-31G_2DFP_
    Number of shells: 50
    Number of basis function: 130
    Number of Cartesian functions: 145
    Spherical Harmonics?: true
    Max angular momentum: 3

  ==> DFT Potential <==

   => Composite Functional: B3LYP <= 

    B3LYP Hyb-GGA Exchange-Correlation Functional

    P. J. Stephens, F. J. Devlin, C. F. Chabalowski, and M. J. Frisch, J. Phys. Chem. 98, 11623 (1994)

    Deriv               =              1
    GGA                 =           TRUE
    Meta                =          FALSE

    Exchange Hybrid     =           TRUE
    MP2 Hybrid          =          FALSE

   => Exchange Functionals <=

    0.0800   Slater exchange
    0.7200         Becke 88

   => Exact (HF) Exchange <=

    0.2000               HF 

   => Correlation Functionals <=

    0.1900   Vosko, Wilk & Nusair (VWN5_RPA)
    0.8100   Lee, Yang & Parr

   => Molecular Quadrature <=

    Radial Scheme          =       TREUTLER
    Pruning Scheme         =           NONE
    Nuclear Scheme         =       TREUTLER

    BS radius alpha        =              1
    Pruning alpha          =              1
    Radial Points          =             99
    Spherical Points       =           1202
    Total Points           =        1009361
    Total Blocks           =           6732
    Max Points             =            256
    Max Functions          =            130
    Weights Tolerance      =       1.00E-15

   => Loading Basis Set <=

    Name: (ANONYMOUS3F3B20E3 AUX)
    Role: JKFIT
    Keyword: DF_BASIS_SCF
    atoms 1   entry S          line   903 file /opt/psi/4/master/share/psi4/basis/def2-universal-jkfit.gbs 
    atoms 2-3 entry C          line   198 file /opt/psi/4/master/share/psi4/basis/def2-universal-jkfit.gbs 
    atoms 4-9 entry H          line    18 file /opt/psi/4/master/share/psi4/basis/def2-universal-jkfit.gbs 

  ==> Integral Setup <==

  DFHelper Memory: AOs need 0.053 GiB; user supplied 6.710 GiB. Using in-core AOs.

  ==> MemDFJK: Density-Fitted J/K Matrices <==

    J tasked:                   Yes
    K tasked:                   Yes
    wK tasked:                   No
    OpenMP threads:               4
    Memory [MiB]:              6871
    Algorithm:                 Core
    Schwarz Cutoff:           1E-12
    Mask sparsity (%):       1.3136
    Fitting Condition:        1E-10

   => Auxiliary Basis Set <=

  Basis Set: (ANONYMOUS3F3B20E3 AUX)
    Blend: DEF2-UNIVERSAL-JKFIT
    Number of shells: 124
    Number of basis function: 386
    Number of Cartesian functions: 453
    Spherical Harmonics?: true
    Max angular momentum: 4

  Cached 100.0% of DFT collocation blocks in 3.069 [GiB].

  Minimum eigenvalue in the overlap matrix is 4.5769453157E-03.
  Reciprocal condition number of the overlap matrix is 9.0663220253E-04.
    Using symmetric orthogonalization.

  ==> Pre-Iterations <==

  SCF Guess: Superposition of Atomic Densities via on-the-fly atomic UHF (no occupation information).

   -------------------------
    Irrep   Nso     Nmo    
   -------------------------
     A'        82      82 
     A"        48      48 
   -------------------------
    Total     130     130
   -------------------------

  ==> Iterations <==

                           Total Energy        Delta E     RMS |[F,P]|

   @DF-RKS iter SAD:  -477.50512760797210   -4.77505e+02   0.00000e+00 
   @DF-RKS iter   1:  -477.78741889837420   -2.82291e-01   7.01580e-03 DIIS
   @DF-RKS iter   2:  -477.68124797401208    1.06171e-01   8.19596e-03 DIIS
   @DF-RKS iter   3:  -478.02250820020674   -3.41260e-01   8.38148e-04 DIIS
   @DF-RKS iter   4:  -478.02608624265133   -3.57804e-03   1.77624e-04 DIIS
   @DF-RKS iter   5:  -478.02626362250101   -1.77380e-04   5.62219e-05 DIIS
   @DF-RKS iter   6:  -478.02628006482576   -1.64423e-05   9.05613e-06 DIIS
   @DF-RKS iter   7:  -478.02628044056848   -3.75743e-07   1.89037e-06 DIIS
   @DF-RKS iter   8:  -478.02628045622708   -1.56586e-08   8.13060e-07 DIIS
   @DF-RKS iter   9:  -478.02628045943385   -3.20676e-09   1.17713e-07 DIIS
   @DF-RKS iter  10:  -478.02628045950382   -6.99742e-11   9.32785e-09 DIIS
   @DF-RKS iter  11:  -478.02628045950439   -5.68434e-13   1.03439e-09 DIIS
   @DF-RKS iter  12:  -478.02628045950428    1.13687e-13   2.79561e-10 DIIS
   @DF-RKS iter  13:  -478.02628045950462   -3.41061e-13   7.12836e-11 DIIS
  Energy and wave function converged.


  ==> Post-Iterations <==

    Orbital Energies [Eh]
    ---------------------

    Doubly Occupied:                                                      

       1Ap   -88.855070     2Ap   -10.201248     3Ap   -10.201130  
       4Ap    -7.924728     5Ap    -5.889404     6Ap    -5.885911  
       1App   -5.879471     7Ap    -0.793802     8Ap    -0.702530  
       9Ap    -0.594804    10Ap    -0.440069     2App   -0.438234  
      11Ap    -0.421701     3App   -0.406067    12Ap    -0.359774  
      13Ap    -0.311349     4App   -0.216859  

    Virtual:                                                              

      14Ap     0.042715    15Ap     0.079455    16Ap     0.095612  
      17Ap     0.124263     5App    0.133422    18Ap     0.149115  
       6App    0.160472    19Ap     0.172732    20Ap     0.315631  
       7App    0.334749    21Ap     0.337059    22Ap     0.345258  
      23Ap     0.363951     8App    0.390224     9App    0.397365  
      24Ap     0.444811    10App    0.482296    25Ap     0.488197  
      26Ap     0.499007    11App    0.500351    27Ap     0.542920  
      28Ap     0.583016    12App    0.609922    29Ap     0.617116  
      13App    0.617222    30Ap     0.621301    31Ap     0.659408  
      32Ap     0.724096    14App    0.747949    15App    0.748951  
      33Ap     0.786603    34Ap     0.795195    16App    0.841739  
      35Ap     0.854354    17App    0.895943    36Ap     0.993405  
      18App    1.039408    37Ap     1.055567    19App    1.144040  
      38Ap     1.148660    39Ap     1.150347    20App    1.255999  
      40Ap     1.264398    41Ap     1.265314    42Ap     1.292139  
      43Ap     1.294689    21App    1.306098    22App    1.316938  
      44Ap     1.327932    45Ap     1.382898    46Ap     1.428225  
      23App    1.454203    47Ap     1.544452    48Ap     1.684196  
      24App    1.703930    49Ap     1.763478    50Ap     1.778411  
      25App    1.815428    51Ap     1.843703    26App    1.886911  
      52Ap     1.895670    27App    1.910327    53Ap     1.937590  
      54Ap     1.968304    28App    2.020443    55Ap     2.086480  
      29App    2.374898    56Ap     2.394448    30App    2.418239  
      57Ap     2.461566    58Ap     2.472343    31App    2.910148  
      32App    2.935563    59Ap     2.951012    33App    2.983703  
      34App    3.003766    60Ap     3.007343    61Ap     3.041014  
      62Ap     3.093107    35App    3.103877    63Ap     3.205775  
      36App    3.214682    64Ap     3.279384    37App    3.326575  
      65Ap     3.387117    38App    3.397373    66Ap     3.458275  
      39App    3.489715    67Ap     3.523206    68Ap     3.581484  
      69Ap     3.651241    40App    3.654642    70Ap     3.684819  
      71Ap     3.754889    72Ap     3.814344    41App    4.103195  
      73Ap     4.125549    74Ap     4.158061    42App    4.180688  
      75Ap     4.238003    76Ap     4.261889    77Ap     4.338637  
      43App    4.344971    78Ap     4.385260    44App    4.388512  
      45App    4.407425    46App    4.456532    79Ap     4.921243  
      80Ap     4.937768    47App    5.198890    81Ap     5.213309  
      82Ap     5.220736    48App    5.241806  

    Final Occupation by Irrep:
             Ap   App 
    DOCC [    13,    4 ]

  @DF-RKS Final Energy:  -478.02628045950462

   => Energetics <=

    Nuclear Repulsion Energy =            110.8642767901657749
    One-Electron Energy =                -876.3855698012590665
    Two-Electron Energy =                 318.8101521415148909
    DFT Exchange-Correlation Energy =     -31.3151395899261829
    Empirical Dispersion Energy =           0.0000000000000000
    VV10 Nonlocal Energy =                  0.0000000000000000
    Total Energy =                       -478.0262804595046191

Computation Completed


Properties will be evaluated at   0.000000,   0.000000,   0.000000 [a0]

Properties computed using the SCF density matrix

  Nuclear Dipole Moment: [e a0]
     X:    -0.0132      Y:     4.5721      Z:     0.0000

  Electronic Dipole Moment: [e a0]
     X:     0.0126      Y:    -3.9337      Z:     0.0000

  Dipole Moment: [e a0]
     X:    -0.0006      Y:     0.6384      Z:     0.0000     Total:     0.6384

  Dipole Moment: [D]
     X:    -0.0015      Y:     1.6227      Z:     0.0000     Total:     1.6227


*** tstop() called on n090 at Tue Nov 16 14:45:31 2021
Module time:
	user time   =      51.76 seconds =       0.86 minutes
	system time =       0.91 seconds =       0.02 minutes
	total time  =         14 seconds =       0.23 minutes
Total time:
	user time   =      51.76 seconds =       0.86 minutes
	system time =       0.91 seconds =       0.02 minutes
	total time  =         14 seconds =       0.23 minutes
Grab this energy -478.0262804595046
    Psi4 stopped on: Tuesday, 16 November 2021 02:45PM
    Psi4 wall time for execution: 0:00:13.64

*** Psi4 exiting successfully. Buy a developer a beer!
