
 Primary working directories    : /tmp/942027.143.gen5.q
 Secondary working directories  : /tmp/942027.143.gen5.q
 Wavefunction directory         : /home/vulcan/mel64643/wfu/
 Main file repository           : /tmp/942027.143.gen5.q/

 ARCHNAME  : Linux/x86_64
 FC        : /opt/intel/compilers_and_libraries_2016.1.150/linux/bin/intel64/ifort
 FCVERSION : 16.0.1
 BLASLIB   : -mkl
 id        : ccgc

 Nodes     nprocs
 n070         1
 ga_uses_ma=false, calling ma_init with nominal heap.
 GA-space will be limited to   8.0 MW (determined by -G option)

 Using customized tuning parameters: mindgm=10; mindgv=16; mindgc=4; mindgr=1; noblas=0; mincuda=1000; minvec=7
 default implementation of scratch files=df  

 ***,Optimization of h2o_2
 memory,1000,m
 gthresh,energy=1.0d-12,orbital=1.0d-10,oneint=1.0d-16,twoint=1.0d-16,optgrad=1.0d-6,compress=1.0d-13
 geomtyp=xyz
 
 bohr
 geometry = {
  O   -2.8084173459   -0.2079679345   -0.0051079231
  H   -3.5598644399    1.4447942433    0.0078995838
  H   -1.0070055197    0.1069887850   -0.0042876056
  O    2.6823468739    0.2021475564   -0.0013052731
  H    3.3302152016   -0.7064120260   -1.4374218960
  H    3.3277132379   -0.6995968702    1.4402231141
 }
 
 basis=aug-cc-pvdz, H=cc-pvdz
 {rhf;maxit,200}
 {ccsd(t);maxit,200}

 Variables initialized (661), CPU time= 0.00 sec
 Commands  initialized (458), CPU time= 0.01 sec, 486 directives.
 Default parameters read. Elapsed time= 0.11 sec

 Checking input...
 Passed
1


                                         ***  PROGRAM SYSTEM MOLPRO  ***
                         Copyright, University College Cardiff Consultants Limited, 2008

                                    Version 2010.1 linked May 16 2016 07:17:05


 **********************************************************************************************************************************
 LABEL *   Optimization of h2o_2                                                         
 Linux-4.4.3/n070(x86_64) 64 bit mpp version                                             DATE: 21-Oct-23          TIME: 20:30:22  
 **********************************************************************************************************************************

 SHA1:             9e8077add272b0f3cad6f7df79ec5211205f459d
 **********************************************************************************************************************************

 THRESHOLDS:

 ZERO    =  1.00D-12  ONEINT  =  1.00D-16  TWOINT  =  1.00D-16  PREFAC  =  1.00D-14  LOCALI  =  1.00D-09  EORDER  =  1.00D-04
 ENERGY  =  1.00D-12  ETEST   =  0.00D+00  EDENS   =  0.00D+00  THRDEDEF=  1.00D-06  GRADIENT=  1.00D-02  STEP    =  1.00D-03
 ORBITAL =  1.00D-10  CIVEC   =  1.00D-05  COEFF   =  1.00D-04  PRINTCI =  5.00D-02  PUNCHCI =  9.90D+01  OPTGRAD =  1.00D-06
 OPTENERG=  1.00D-06  OPTSTEP =  3.00D-04  THRGRAD =  1.00D-10  COMPRESS=  1.00D-13  VARMIN  =  1.00D-07  VARMAX  =  1.00D-03
 THRDOUB =  0.00D+00  THRDIV  =  1.00D-05  THRRED  =  1.00D-07  THRPSP  =  1.00D+00  THRDC   =  1.00D-10  THRCS   =  1.00D-10
 THRNRM  =  1.00D-08  THREQ   =  0.00D+00  THRDE   =  1.00D+00  THRREF  =  1.00D-05  SPARFAC =  1.00D+00  THRDLP  =  1.00D-07
 THRDIA  =  1.00D-10  THRDLS  =  1.00D-07  THRGPS  =  0.00D+00  THRKEX  =  0.00D+00  THRDIS  =  2.00D-01  THRVAR  =  1.00D-10
 THRLOC  =  1.00D-06  THRGAP  =  1.00D-06  THRLOCT = -1.00D+00  THRGAPT = -1.00D+00  THRORB  =  1.00D-06  THRMLTP =  0.00D+00
 THRCPQCI=  1.00D-10  KEXTA   =  0.00D+00  THRCOARS=  0.00D+00  SYMTOL  =  1.00D-06  GRADTOL =  1.00D-06  THROVL  =  1.00D-08
 THRORTH =  1.00D-08  GRID    =  1.00D-06  GRIDMAX =  1.00D-03  DTMAX   =  0.00D+00

 SETTING GEOMTYP        =    XYZ
 ZUNIT=BOHR
 

 Variable memory set to 1000000000 words,  buffer space   230000 words

 SETTING BASIS          =    AUG-CC-PVDZ,H=CC-PVDZ


 Recomputing integrals since basis changed


 Using spherical harmonics

 Library entry O      S aug-cc-pVDZ          selected for orbital group  1
 Library entry O      P aug-cc-pVDZ          selected for orbital group  1
 Library entry O      D aug-cc-pVDZ          selected for orbital group  1
 Library entry H      S cc-pVDZ              selected for orbital group  2
 Library entry H      P cc-pVDZ              selected for orbital group  2

1PROGRAM * SEWARD (Integral evaluation for generally contracted gaussian basis sets)     Author: Roland Lindh, 1990

 Geometry written to block  1 of record 700


 Point group  C1  



 ATOMIC COORDINATES

 NR  ATOM    CHARGE       X              Y              Z

   1  O       8.00   -2.808417346   -0.207967935   -0.005107923
   2  H       1.00   -3.559864440    1.444794243    0.007899584
   3  H       1.00   -1.007005520    0.106988785   -0.004287606
   4  O       8.00    2.682346874    0.202147556   -0.001305273
   5  H       1.00    3.330215202   -0.706412026   -1.437421896
   6  H       1.00    3.327713238   -0.699596870    1.440223114

 Bond lengths in Bohr (Angstrom)

 1-2  1.815616905  1-3  1.828738083  4-5  1.818693168  4-6  1.818693170
     ( 0.960783087)     ( 0.967726515)     ( 0.962410975)     ( 0.962410976)

 Bond angles

  2-1-3  104.53160048   5-4-6  104.58292383

 NUCLEAR CHARGE:                   20
 NUMBER OF PRIMITIVE AOS:         102
 NUMBER OF SYMMETRY AOS:           98
 NUMBER OF CONTRACTIONS:           66   (  66A   )
 NUMBER OF CORE ORBITALS:           2   (   2A   )
 NUMBER OF VALENCE ORBITALS:       12   (  12A   )


 NUCLEAR REPULSION ENERGY   36.55421911


 Eigenvalues of metric

         1 0.606E-02 0.781E-02 0.121E-01 0.129E-01 0.165E-01 0.166E-01 0.209E-01 0.285E-01


 Contracted 2-electron integrals neglected if value below      1.0D-16
 AO integral compression algorithm  1   Integral accuracy      1.0D-16

     22.282 MB (compressed) written to integral file ( 88.3%)

     Node minimum: 22.282 MB, node maximum: 22.282 MB


 NUMBER OF SORTED TWO-ELECTRON INTEGRALS:    2445366.     BUFFER LENGTH:  32768
 NUMBER OF SEGMENTS:   1  SEGMENT LENGTH:    2445366      RECORD LENGTH: 524288

 Memory used in sort:       3.00 MW

 SORT1 READ     3139200. AND WROTE     2377542. INTEGRALS IN      7 RECORDS. CPU TIME:     0.03 SEC, REAL TIME:     0.05 SEC
 SORT2 READ     2377542. AND WROTE     2445366. INTEGRALS IN     85 RECORDS. CPU TIME:     0.04 SEC, REAL TIME:     0.07 SEC

 FILE SIZES:   FILE 1:    20.3 MBYTE,  FILE 4:    29.4 MBYTE,   TOTAL:     49.7 MBYTE

 OPERATOR DM      FOR CENTER  0  COORDINATES:    0.000000    0.000000    0.000000


 **********************************************************************************************************************************
 DATASETS  * FILE   NREC   LENGTH (MB)   RECORD NAMES
              1      19       20.39       500      610      700      900      950      970     1000      129      960     1100   
                                          VAR    BASINP    GEOM    SYMINP    ZMAT    AOBASIS   BASIS     P2S    ABASIS      S 
                                         1400     1410     1200     1210     1080     1600     1650     1300     1700   
                                           T        V       H0       H01     AOSYM     SMH    MOLCAS    ERIS     OPER   

 PROGRAMS   *        TOTAL       INT
 CPU TIMES  *         0.74      0.61
 REAL TIME  *         1.35 SEC
 DISK USED  *        72.64 MB      
 GA USED    *         0.00 MB       (max)       0.00 MB       (current)
 **********************************************************************************************************************************

1PROGRAM * RHF-SCF (CLOSED SHELL)       Authors: W. Meyer, H.-J. Werner


 NUMBER OF ELECTRONS:      10+   10-    SPACE SYMMETRY=1    SPIN SYMMETRY: Singlet 
 CONVERGENCE THRESHOLDS:    1.00E-10 (Density)    1.00E-13 (Energy)
 MAX. NUMBER OF ITERATIONS:      200
 INTERPOLATION TYPE:            DIIS
 INTERPOLATION STEPS:              2 (START)      1 (STEP)
 LEVEL SHIFTS:                  0.00 (CLOSED)  0.00 (OPEN) 



 Orbital guess generated from atomic densities. Full valence occupancy:   14

 Molecular orbital dump at record        2100.2

 ITERATION    DDIFF          GRAD             ENERGY        2-EL.EN.            DIPOLE MOMENTS         DIIS
    1      0.000D+00      0.000D+00      -152.02059093    191.283564    1.36303    0.08892    0.01001    0
    2      0.000D+00      0.119D-01      -152.07009671    184.814395    1.02018    0.02932    0.00611    1
    3      0.225D-01      0.667D-02      -152.08693012    187.593580    1.07887    0.05451    0.00706    2
    4      0.767D-02      0.748D-03      -152.08732129    187.371707    1.06522    0.05238    0.00702    3
    5      0.126D-02      0.179D-03      -152.08735091    187.392734    1.06127    0.05346    0.00701    4
    6      0.358D-03      0.375D-04      -152.08735240    187.395395    1.06047    0.05286    0.00701    5
    7      0.872D-04      0.168D-04      -152.08735258    187.394491    1.06025    0.05319    0.00701    6
    8      0.241D-04      0.359D-05      -152.08735259    187.394459    1.06013    0.05315    0.00701    7
    9      0.949D-05      0.520D-06      -152.08735259    187.394465    1.06011    0.05315    0.00701    6
   10      0.124D-05      0.990D-07      -152.08735259    187.394463    1.06011    0.05315    0.00701    6
   11      0.238D-06      0.256D-07      -152.08735259    187.394466    1.06011    0.05316    0.00701    6
   12      0.538D-07      0.737D-08      -152.08735259    187.394464    1.06011    0.05316    0.00701    6
   13      0.186D-07      0.221D-08      -152.08735259    187.394465    1.06011    0.05316    0.00701    6
   14      0.417D-08      0.767D-09      -152.08735259    187.394465    1.06011    0.05316    0.00701    7
   15      0.142D-08      0.211D-09      -152.08735259    187.394465    1.06011    0.05316    0.00701    7
   16      0.390D-09      0.110D-09      -152.08735259    187.394465    1.06011    0.05316    0.00701    8
   17      0.184D-09      0.154D-10      -152.08735259    187.394465    1.06011    0.05316    0.00701    8
   18      0.322D-10      0.609D-11      -152.08735259    187.394465    1.06011    0.05316    0.00701    7
   19      0.177D-10      0.942D-12      -152.08735259    187.394465    1.06011    0.05316    0.00701    7
   20      0.244D-11      0.160D-12      -152.08735259    187.394465    1.06011    0.05316    0.00701    7
   21      0.316D-12      0.474D-13      -152.08735259    187.394465    1.06011    0.05316    0.00701    0

 Final occupancy:  10

 !RHF STATE 1.1 Energy               -152.087352594397
 Nuclear energy                        36.55421911
 One-electron energy                 -282.33880413
 Two-electron energy                   93.69723242
 Virial quotient                       -1.00166964
 !RHF STATE 1.1 Dipole moment           1.06010879     0.05315553     0.00700515
 Dipole moment /Debye                   2.69435129     0.13509903     0.01780415

 Orbital energies:

         1.1          2.1          3.1          4.1          5.1          6.1          7.1          8.1          9.1         10.1
    -20.602713   -20.546113    -1.381218    -1.323528    -0.741634    -0.693977    -0.614163    -0.559147    -0.529745    -0.479932

        11.1         12.1
      0.112493     0.152845


 **********************************************************************************************************************************
 DATASETS  * FILE   NREC   LENGTH (MB)   RECORD NAMES
              1      19       20.39       500      610      700      900      950      970     1000      129      960     1100   
                                          VAR    BASINP    GEOM    SYMINP    ZMAT    AOBASIS   BASIS     P2S    ABASIS      S 
                                         1400     1410     1200     1210     1080     1600     1650     1300     1700   
                                           T        V       H0       H01     AOSYM     SMH    MOLCAS    ERIS     OPER   

              2       3        0.44       700     1000     2100   
                                         GEOM     BASIS     RHF  

 PROGRAMS   *        TOTAL       RHF       INT
 CPU TIMES  *         1.17      0.43      0.61
 REAL TIME  *         1.88 SEC
 DISK USED  *        72.64 MB      
 GA USED    *         0.00 MB       (max)       0.00 MB       (current)
 **********************************************************************************************************************************


1PROGRAM * CCSD (Closed-shell coupled cluster)     Authors: C. Hampel, H.-J. Werner, 1991, M. Deegan, P.J. Knowles, 1992


 Convergence thresholds:  THRVAR = 1.00D-08  THRDEN = 1.00D-12

 CCSD(T)     terms to be evaluated (factor= 1.000)


 Number of core orbitals:           2 (   2 )
 Number of closed-shell orbitals:   8 (   8 )
 Number of external orbitals:      56 (  56 )

 Molecular orbitals read from record     2100.2  Type=RHF/CANONICAL (state 1.1)

 Number of N-1 electron functions:               8
 Number of N-2 electron functions:              36
 Number of singly external CSFs:               448
 Number of doubly external CSFs:            100576
 Total number of CSFs:                      101025

 Length of J-op  integral file:               0.00 MB
 Length of K-op  integral file:               0.33 MB
 Length of 3-ext integral record:             0.00 MB

 Memory could be reduced to 2.44 Mwords without degradation in triples

 Integral transformation finished. Total CPU:   0.07 sec, npass=  1  Memory used:   1.72 MW

 Reference energy:                   -152.08735259

 MP2 singlet pair energy:              -0.27018856
 MP2 triplet pair energy:              -0.16862117
 MP2 correlation energy:               -0.43880972
 MP2 total energy:                   -152.52616232

 SCS-MP2 correlation energy:           -0.42914611   (PS=  1.200000  PT=  0.333333)
 SCS-MP2 total energy:               -152.51649870

 ITER.      SQ.NORM     CORR.ENERGY   TOTAL ENERGY   ENERGY CHANGE        DEN1      VAR(S)    VAR(P)  DIIS     TIME
   1      1.12065869    -0.45248243  -152.53983503    -0.01367271    -0.00444221  0.23D-02  0.17D-02  1  1     0.20
   2      1.12873997    -0.45381805  -152.54117065    -0.00133562    -0.00869074  0.16D-04  0.26D-03  2  2     0.34
   3      1.13154208    -0.45407180  -152.54142439    -0.00025374    -0.00158930  0.34D-04  0.91D-05  3  3     0.48
   4      1.13242512    -0.45401288  -152.54136547     0.00005892    -0.00038430  0.14D-05  0.87D-06  4  4     0.62
   5      1.13265902    -0.45400112  -152.54135372     0.00001175    -0.00007223  0.19D-06  0.54D-07  5  5     0.77
   6      1.13270621    -0.45399751  -152.54135010     0.00000361    -0.00000660  0.18D-07  0.50D-08  6  6     0.90
   7      1.13271772    -0.45399611  -152.54134870     0.00000140    -0.00000108  0.13D-08  0.90D-09  6  2     1.04
   8      1.13272030    -0.45399609  -152.54134869     0.00000001    -0.00000005  0.15D-09  0.75D-10  6  1     1.19
   9      1.13272083    -0.45399604  -152.54134864     0.00000005     0.00000018  0.12D-10  0.89D-11  6  4     1.34
  10      1.13272111    -0.45399602  -152.54134862     0.00000002    -0.00000004  0.20D-11  0.70D-12  6  3     1.48
  11      1.13272107    -0.45399603  -152.54134863    -0.00000001     0.00000004  0.34D-12  0.10D-12  6  5     1.62
  12      1.13272105    -0.45399603  -152.54134863    -0.00000000     0.00000001  0.64D-13  0.15D-13  6  6     1.77
  13      1.13272102    -0.45399604  -152.54134863    -0.00000000     0.00000001  0.82D-14  0.28D-14  6  1     1.91
  14      1.13272102    -0.45399604  -152.54134863    -0.00000000     0.00000000  0.14D-14  0.36D-15  6  2     2.05
  15      1.13272102    -0.45399604  -152.54134863    -0.00000000     0.00000000  0.26D-15  0.59D-16  6  4     2.22
  16      1.13272102    -0.45399604  -152.54134863    -0.00000000    -0.00000000  0.34D-16  0.12D-16  6  3     2.37
  17      1.13272102    -0.45399604  -152.54134863     0.00000000    -0.00000000  0.28D-17  0.17D-17  6  6     2.51
  18      1.13272102    -0.45399604  -152.54134863    -0.00000000     0.00000000  0.28D-18  0.13D-18  6  5     2.66
  19      1.13272102    -0.45399604  -152.54134863     0.00000000    -0.00000000  0.66D-19  0.21D-19  6  2     2.81
  20      1.13272102    -0.45399604  -152.54134863     0.00000000    -0.00000000  0.11D-19  0.36D-20  6  1     2.95

 Norm of t1 vector:      0.06789422      S-energy:    -0.00000000      T1 diagnostic:  0.01200212
                                                                       D1 diagnostic:  0.02670195


 Total CPU time for triples:      1.14 sec


 RESULTS
 =======

  Reference energy                   -152.087352594397
  CCSD singlet pair energy             -0.304545527837
  CCSD triplet pair energy             -0.149450508999
  CCSD correlation energy              -0.453996036838

  Triples (T) contribution             -0.010270116184
  Total correlation energy             -0.464266153022

  CCSD total energy                  -152.541348631234
  CCSD[T] energy                     -152.552345643724
  CCSD-T energy                      -152.551333105616
 !CCSD(T) total energy               -152.551618747419

 Timing summary (sec):

 STEP                 CPU(USER)    SYS     CPU(TOT)    WALL
 Transformation          0.08      0.02      0.10      0.10
 CCSD iterations         2.87      0.20      3.07      3.12
 Triples                 1.14      0.02      1.16      1.16

 Program statistics:

 Available memory in ccsd:               999999644
 Min. memory needed in ccsd:                333849
 Max. memory used in ccsd:                  413833
 Max. memory used in cckext:                383006 (20 integral passes)



 **********************************************************************************************************************************
 DATASETS  * FILE   NREC   LENGTH (MB)   RECORD NAMES
              1      20       28.09       500      610      700      900      950      970     1000      129      960     1100   
                                          VAR    BASINP    GEOM    SYMINP    ZMAT    AOBASIS   BASIS     P2S    ABASIS      S 
                                         1400     1410     1200     1210     1080     1600     1650     1300     1700     1380   
                                           T        V       H0       H01     AOSYM     SMH    MOLCAS    ERIS     OPER     JKOP   

              2       3        0.44       700     1000     2100   
                                         GEOM     BASIS     RHF  

 PROGRAMS   *        TOTAL   CCSD(T)       RHF       INT
 CPU TIMES  *         5.28      4.10      0.43      0.61
 REAL TIME  *         6.30 SEC
 DISK USED  *        72.64 MB      
 GA USED    *         0.00 MB       (max)       0.00 MB       (current)
 **********************************************************************************************************************************

        CCSD(T)         RHF-SCF 
   -152.55161875   -152.08735259
 **********************************************************************************************************************************
 Variable memory released
