
 Primary working directories    : /tmp/984874.422.gen4.q
 Secondary working directories  : /tmp/984874.422.gen4.q
 Wavefunction directory         : /home/vulcan/mel64643/wfu/
 Main file repository           : /tmp/984874.422.gen4.q/

 ARCHNAME  : Linux/x86_64
 FC        : /opt/intel/compilers_and_libraries_2016.1.150/linux/bin/intel64/ifort
 FCVERSION : 16.0.1
 BLASLIB   : -mkl
 id        : ccgc

 Nodes     nprocs
 n039         1
 ga_uses_ma=false, calling ma_init with nominal heap.
 GA-space will be limited to   8.0 MW (determined by -G option)

 Using customized tuning parameters: mindgm=10; mindgv=16; mindgc=4; mindgr=1; noblas=0; mincuda=1000; minvec=7
 default implementation of scratch files=df  

 ***,Optimization of formic acid
 memory,1000,m
 gthresh,energy=1.0d-12,orbital=1.0d-10,oneint=1.0d-16,twoint=1.0d-16,optgrad=1.0d-6,compress=1.0d-13
 geomtyp=xyz
 
 
 
 bohr
 geometry = {
  C   -3.5019385051   -0.8354357305    0.0000000000
  O   -3.0825930455    1.6158166989   -0.0000000000
  O   -1.8955451357   -2.4944808362    0.0000000000
  H   -5.5235114529   -1.2672672593    0.0000000000
  H   -1.2334174972    1.9634686946   -0.0000000000
  C    3.4990246257    0.8329865274    0.0000000000
  O    3.0947539255   -1.6207971424   -0.0000000000
  O    1.8824641342    2.4821264566    0.0000000000
  H    5.5179050964    1.2772356745    0.0000000000
  H    1.2428578548   -1.9536530837   -0.0000000000
 }
 
 basis=VTZ
 {rhf;maxit,200}
 {ccsd(t);maxit,200}

 Variables initialized (661), CPU time= 0.00 sec
 Commands  initialized (458), CPU time= 0.01 sec, 486 directives.
 Default parameters read. Elapsed time= 0.06 sec

 Checking input...
 Passed
1


                                         ***  PROGRAM SYSTEM MOLPRO  ***
                         Copyright, University College Cardiff Consultants Limited, 2008

                                    Version 2010.1 linked May 16 2016 07:17:05


 **********************************************************************************************************************************
 LABEL *   Optimization of formic acid                                                   
 Linux-4.4.3/n039(x86_64) 64 bit mpp version                                             DATE: 24-Jan-24          TIME: 16:48:30  
 **********************************************************************************************************************************

 SHA1:             9e8077add272b0f3cad6f7df79ec5211205f459d
 **********************************************************************************************************************************

 THRESHOLDS:

 ZERO    =  1.00D-12  ONEINT  =  1.00D-16  TWOINT  =  1.00D-16  PREFAC  =  1.00D-14  LOCALI  =  1.00D-09  EORDER  =  1.00D-04
 ENERGY  =  1.00D-12  ETEST   =  0.00D+00  EDENS   =  0.00D+00  THRDEDEF=  1.00D-06  GRADIENT=  1.00D-02  STEP    =  1.00D-03
 ORBITAL =  1.00D-10  CIVEC   =  1.00D-05  COEFF   =  1.00D-04  PRINTCI =  5.00D-02  PUNCHCI =  9.90D+01  OPTGRAD =  1.00D-06
 OPTENERG=  1.00D-06  OPTSTEP =  3.00D-04  THRGRAD =  1.00D-10  COMPRESS=  1.00D-13  VARMIN  =  1.00D-07  VARMAX  =  1.00D-03
 THRDOUB =  0.00D+00  THRDIV  =  1.00D-05  THRRED  =  1.00D-07  THRPSP  =  1.00D+00  THRDC   =  1.00D-10  THRCS   =  1.00D-10
 THRNRM  =  1.00D-08  THREQ   =  0.00D+00  THRDE   =  1.00D+00  THRREF  =  1.00D-05  SPARFAC =  1.00D+00  THRDLP  =  1.00D-07
 THRDIA  =  1.00D-10  THRDLS  =  1.00D-07  THRGPS  =  0.00D+00  THRKEX  =  0.00D+00  THRDIS  =  2.00D-01  THRVAR  =  1.00D-10
 THRLOC  =  1.00D-06  THRGAP  =  1.00D-06  THRLOCT = -1.00D+00  THRGAPT = -1.00D+00  THRORB  =  1.00D-06  THRMLTP =  0.00D+00
 THRCPQCI=  1.00D-10  KEXTA   =  0.00D+00  THRCOARS=  0.00D+00  SYMTOL  =  1.00D-06  GRADTOL =  1.00D-06  THROVL  =  1.00D-08
 THRORTH =  1.00D-08  GRID    =  1.00D-06  GRIDMAX =  1.00D-03  DTMAX   =  0.00D+00

 SETTING GEOMTYP        =    XYZ
 ZUNIT=BOHR
 

 Variable memory set to 1000000000 words,  buffer space   230000 words

 SETTING BASIS          =    VTZ


 Recomputing integrals since basis changed


 Using spherical harmonics

 Library entry C      S cc-pVTZ              selected for orbital group  1
 Library entry C      P cc-pVTZ              selected for orbital group  1
 Library entry C      D cc-pVTZ              selected for orbital group  1
 Library entry C      F cc-pVTZ              selected for orbital group  1
 Library entry O      S cc-pVTZ              selected for orbital group  2
 Library entry O      P cc-pVTZ              selected for orbital group  2
 Library entry O      D cc-pVTZ              selected for orbital group  2
 Library entry O      F cc-pVTZ              selected for orbital group  2
 Library entry H      S cc-pVTZ              selected for orbital group  3
 Library entry H      P cc-pVTZ              selected for orbital group  3
 Library entry H      D cc-pVTZ              selected for orbital group  3

1PROGRAM * SEWARD (Integral evaluation for generally contracted gaussian basis sets)     Author: Roland Lindh, 1990

 Geometry written to block  1 of record 700


 Point group  Cs  



 ATOMIC COORDINATES

 NR  ATOM    CHARGE       X              Y              Z

   1  C       6.00   -3.501938505   -0.835435730    0.000000000
   2  O       8.00   -3.082593045    1.615816699    0.000000000
   3  O       8.00   -1.895545136   -2.494480836    0.000000000
   4  H       1.00   -5.523511453   -1.267267259    0.000000000
   5  H       1.00   -1.233417497    1.963468695    0.000000000
   6  C       6.00    3.499024626    0.832986527    0.000000000
   7  O       8.00    3.094753926   -1.620797142    0.000000000
   8  O       8.00    1.882464134    2.482126457    0.000000000
   9  H       1.00    5.517905096    1.277235674    0.000000000
  10  H       1.00    1.242857855   -1.953653084    0.000000000

 Bond lengths in Bohr (Angstrom)

 1-2  2.486863303  1-3  2.309313820  1-4  2.067180605  2-5  1.881571715  6-7  2.486863305
     ( 1.315991382)     ( 1.222036242)     ( 1.093904863)     ( 0.995684869)     ( 1.315991383)

  6- 8  2.309313822   6- 9  2.067180606   7-10  1.881571719
       ( 1.222036243)       ( 1.093904864)       ( 0.995684871)

 Bond angles

  1-2-5  110.35537666   2-1-3  126.21591402   2-1-4  111.76566607   3-1-4  122.01841991

  6- 7-10  109.54509197   7- 6- 8  126.21591402   7- 6- 9  111.76566607   8- 6- 9  122.01841991

 NUCLEAR CHARGE:                   48
 NUMBER OF PRIMITIVE AOS:         350
 NUMBER OF SYMMETRY AOS:          316
 NUMBER OF CONTRACTIONS:          236   ( 160A'  +  76A"  )
 NUMBER OF CORE ORBITALS:           6   (   6A'  +   0A"  )
 NUMBER OF VALENCE ORBITALS:       28   (  22A'  +   6A"  )


 NUCLEAR REPULSION ENERGY  235.50382912


 Eigenvalues of metric

         1 0.133E-02 0.141E-02 0.159E-02 0.159E-02 0.224E-02 0.268E-02 0.353E-02 0.360E-02
         2 0.289E-01 0.290E-01 0.387E-01 0.392E-01 0.431E-01 0.439E-01 0.714E-01 0.759E-01


 Contracted 2-electron integrals neglected if value below      1.0D-16
 AO integral compression algorithm  1   Integral accuracy      1.0D-16

     1240.728 MB (compressed) written to integral file ( 72.2%)

     Node minimum: 1240.728 MB, node maximum: 1240.728 MB


 NUMBER OF SORTED TWO-ELECTRON INTEGRALS:  200296481.     BUFFER LENGTH:  32768
 NUMBER OF SEGMENTS:  13  SEGMENT LENGTH:   15999503      RECORD LENGTH: 524288

 Memory used in sort:      16.56 MW

 SORT1 READ   214768827. AND WROTE   182053354. INTEGRALS IN    528 RECORDS. CPU TIME:     2.87 SEC, REAL TIME:     5.01 SEC
 SORT2 READ   182053354. AND WROTE   200296481. INTEGRALS IN   4733 RECORDS. CPU TIME:     1.86 SEC, REAL TIME:     2.56 SEC

 FILE SIZES:   FILE 1:  1207.4 MBYTE,  FILE 4:  2214.6 MBYTE,   TOTAL:   3422.0 MBYTE

 OPERATOR DM      FOR CENTER  0  COORDINATES:    0.000000    0.000000    0.000000


 **********************************************************************************************************************************
 DATASETS  * FILE   NREC   LENGTH (MB)   RECORD NAMES
              1      19     1207.75       500      610      700      900      950      970     1000      129      960     1100   
                                          VAR    BASINP    GEOM    SYMINP    ZMAT    AOBASIS   BASIS     P2S    ABASIS      S 
                                         1400     1410     1200     1210     1080     1600     1650     1300     1700   
                                           T        V       H0       H01     AOSYM     SMH    MOLCAS    ERIS     OPER   

 PROGRAMS   *        TOTAL       INT
 CPU TIMES  *        22.34     22.28
 REAL TIME  *        26.79 SEC
 DISK USED  *         4.66 GB      
 GA USED    *         0.01 MB       (max)       0.00 MB       (current)
 **********************************************************************************************************************************

1PROGRAM * RHF-SCF (CLOSED SHELL)       Authors: W. Meyer, H.-J. Werner


 NUMBER OF ELECTRONS:      24+   24-
 CONVERGENCE THRESHOLDS:    1.00E-10 (Density)    1.00E-13 (Energy)
 MAX. NUMBER OF ITERATIONS:      200
 INTERPOLATION TYPE:            DIIS
 INTERPOLATION STEPS:              2 (START)      1 (STEP)
 LEVEL SHIFTS:                  0.00 (CLOSED)  0.00 (OPEN) 



 Orbital guess generated from atomic densities. Full valence occupancy:   28   6

 Molecular orbital dump at record        2100.2

 Initial alpha occupancy:  20   4
 Initial beta  occupancy:  20   4
 Wave function symmetry:    1

 ITERATION    DDIFF          GRAD             ENERGY        2-EL.EN.            DIPOLE MOMENTS         DIIS
    1      0.000D+00      0.000D+00      -377.56189937    747.215033    0.01496    0.01524    0.00000    0
    2      0.000D+00      0.668D-02      -377.64945584    744.143018    0.01534    0.00912    0.00000    1
    3      0.108D-01      0.436D-02      -377.69901022    746.468905    0.01418    0.01169    0.00000    2
    4      0.424D-02      0.581D-03      -377.70054923    746.156070    0.01391    0.01108    0.00000    3
    5      0.801D-03      0.255D-03      -377.70082641    746.193361    0.01376    0.01127    0.00000    4
    6      0.332D-03      0.738D-04      -377.70087413    746.237819    0.01372    0.01121    0.00000    5
    7      0.128D-03      0.319D-04      -377.70088521    746.220314    0.01370    0.01120    0.00000    6
    8      0.703D-04      0.103D-04      -377.70088652    746.226137    0.01370    0.01120    0.00000    7
    9      0.270D-04      0.330D-05      -377.70088664    746.224645    0.01370    0.01120    0.00000    8
   10      0.802D-05      0.992D-06      -377.70088665    746.224846    0.01371    0.01119    0.00000    7
   11      0.268D-05      0.295D-06      -377.70088665    746.224795    0.01370    0.01120    0.00000    8
   12      0.815D-06      0.576D-07      -377.70088665    746.224798    0.01371    0.01119    0.00000    8
   13      0.134D-06      0.297D-07      -377.70088665    746.224795    0.01370    0.01120    0.00000    8
   14      0.369D-07      0.888D-08      -377.70088665    746.224797    0.01370    0.01120    0.00000    8
   15      0.193D-07      0.231D-08      -377.70088665    746.224797    0.01370    0.01120    0.00000    8
   16      0.434D-08      0.110D-08      -377.70088665    746.224796    0.01370    0.01120    0.00000    8
   17      0.163D-08      0.255D-09      -377.70088665    746.224796    0.01370    0.01120    0.00000    8
   18      0.441D-09      0.965D-10      -377.70088665    746.224796    0.01370    0.01120    0.00000    8
   19      0.143D-09      0.228D-10      -377.70088665    746.224796    0.01370    0.01120    0.00000    8
   20      0.441D-10      0.988D-11      -377.70088665    746.224796    0.01370    0.01120    0.00000    8
   21      0.164D-10      0.376D-11      -377.70088665    746.224796    0.01370    0.01120    0.00000    8
   22      0.641D-11      0.130D-11      -377.70088665    746.224796    0.01370    0.01120    0.00000    8
   23      0.292D-11      0.362D-12      -377.70088665    746.224796    0.01370    0.01120    0.00000    8
   24      0.888D-12      0.160D-12      -377.70088665    746.224796    0.01370    0.01120    0.00000    0

 Final occupancy:  20   4

 !RHF STATE 1.1 Energy               -377.700886652886
 Nuclear energy                       235.50382912
 One-electron energy                 -986.31711397
 Two-electron energy                  373.11239819
 Virial quotient                       -1.00168245
 !RHF STATE 1.1 Dipole moment           0.01370352     0.01119613     0.00000000
 Dipole moment /Debye                   0.03482859     0.02845585     0.00000000

 Orbital energies:

         1.1          2.1          3.1          4.1          5.1          6.1          7.1          8.1          9.1         10.1
    -20.614349   -20.612714   -20.573819   -20.572801   -11.406717   -11.405743    -1.482507    -1.469628    -1.384624    -1.370478

        11.1         12.1         13.1         14.1         15.1         16.1         17.1         18.1         19.1         20.1
     -0.917415    -0.881729    -0.766901    -0.731314    -0.722327    -0.693033    -0.619001    -0.578314    -0.495568    -0.473231

        21.1         22.1
      0.163796     0.164835

         1.2          2.2          3.2          4.2          5.2          6.2
     -0.643154    -0.632856    -0.504711    -0.493224     0.146985     0.154254


 **********************************************************************************************************************************
 DATASETS  * FILE   NREC   LENGTH (MB)   RECORD NAMES
              1      19     1207.75       500      610      700      900      950      970     1000      129      960     1100   
                                          VAR    BASINP    GEOM    SYMINP    ZMAT    AOBASIS   BASIS     P2S    ABASIS      S 
                                         1400     1410     1200     1210     1080     1600     1650     1300     1700   
                                           T        V       H0       H01     AOSYM     SMH    MOLCAS    ERIS     OPER   

              2       3        1.08       700     1000     2100   
                                         GEOM     BASIS     RHF  

 PROGRAMS   *        TOTAL       RHF       INT
 CPU TIMES  *        54.09     31.75     22.28
 REAL TIME  *        62.42 SEC
 DISK USED  *         4.66 GB      
 GA USED    *         0.01 MB       (max)       0.00 MB       (current)
 **********************************************************************************************************************************


1PROGRAM * CCSD (Closed-shell coupled cluster)     Authors: C. Hampel, H.-J. Werner, 1991, M. Deegan, P.J. Knowles, 1992


 Convergence thresholds:  THRVAR = 1.00D-08  THRDEN = 1.00D-12

 CCSD(T)     terms to be evaluated (factor= 1.000)


 Number of core orbitals:           6 (   6   0 )
 Number of closed-shell orbitals:  18 (  14   4 )
 Number of external orbitals:     212 ( 140  72 )

 Molecular orbitals read from record     2100.2  Type=RHF/CANONICAL (state 1.1)

 Number of N-1 electron functions:              18
 Number of N-2 electron functions:             171
 Number of singly external CSFs:              2248
 Number of doubly external CSFs:           3757972
 Total number of CSFs:                     3760221

 Length of J-op  integral file:               0.00 MB
 Length of K-op  integral file:               2.20 MB
 Length of 3-ext integral record:             0.00 MB

 Memory could be reduced to 109.30 Mwords without degradation in triples

 Integral transformation finished. Total CPU:  10.00 sec, npass=  1  Memory used:  37.15 MW

 Reference energy:                   -377.70088665

 MP2 singlet pair energy:              -0.77622520
 MP2 triplet pair energy:              -0.49227415
 MP2 correlation energy:               -1.26849935
 MP2 total energy:                   -378.96938600

 SCS-MP2 correlation energy:           -1.23777416   (PS=  1.200000  PT=  0.333333)
 SCS-MP2 total energy:               -378.93866081

 ITER.      SQ.NORM     CORR.ENERGY   TOTAL ENERGY   ENERGY CHANGE        DEN1      VAR(S)    VAR(P)  DIIS     TIME
   1      1.30947770    -1.27590320  -378.97678985    -0.00740385     0.02984925  0.10D-01  0.65D-02  1  1    29.32
   2      1.33257546    -1.27522489  -378.97611155     0.00067830    -0.02908287  0.23D-03  0.93D-03  2  2    48.95
   3      1.34376662    -1.27580222  -378.97668887    -0.00057732    -0.00515156  0.24D-03  0.46D-04  3  3    68.58
   4      1.34903381    -1.27555169  -378.97643834     0.00025053    -0.00196024  0.24D-04  0.88D-05  4  4    88.24
   5      1.35143821    -1.27550046  -378.97638711     0.00005123    -0.00054312  0.25D-05  0.83D-06  5  5   107.89
   6      1.35202218    -1.27545099  -378.97633765     0.00004947    -0.00005470  0.14D-06  0.80D-07  6  6   127.55
   7      1.35211375    -1.27544612  -378.97633277     0.00000488    -0.00000879  0.12D-07  0.12D-07  6  2   147.21
   8      1.35210970    -1.27544735  -378.97633401    -0.00000124     0.00000754  0.26D-08  0.13D-08  6  3   166.89
   9      1.35211897    -1.27544598  -378.97633263     0.00000137    -0.00000278  0.23D-09  0.13D-09  6  1   186.57
  10      1.35211834    -1.27544609  -378.97633274    -0.00000011     0.00000021  0.57D-10  0.25D-10  6  5   206.26
  11      1.35211853    -1.27544612  -378.97633277    -0.00000003     0.00000005  0.13D-10  0.43D-11  6  4   225.94
  12      1.35211825    -1.27544614  -378.97633279    -0.00000002     0.00000010  0.28D-11  0.72D-12  6  6   245.61
  13      1.35211806    -1.27544617  -378.97633282    -0.00000003     0.00000009  0.64D-12  0.16D-12  6  2   265.27
  14      1.35211797    -1.27544617  -378.97633282    -0.00000000     0.00000001  0.86D-13  0.41D-13  6  3   284.95
  15      1.35211794    -1.27544617  -378.97633283    -0.00000000     0.00000000  0.11D-13  0.47D-14  6  1   304.63
  16      1.35211793    -1.27544617  -378.97633283    -0.00000000     0.00000000  0.18D-14  0.88D-15  6  4   324.31
  17      1.35211793    -1.27544617  -378.97633283    -0.00000000    -0.00000000  0.29D-15  0.17D-15  6  5   343.99
  18      1.35211793    -1.27544617  -378.97633283    -0.00000000     0.00000000  0.42D-16  0.21D-16  6  6   363.67
  19      1.35211793    -1.27544617  -378.97633283    -0.00000000    -0.00000000  0.78D-17  0.43D-17  6  2   383.33
  20      1.35211793    -1.27544617  -378.97633283     0.00000000    -0.00000000  0.11D-17  0.61D-18  6  3   402.99
  21      1.35211793    -1.27544617  -378.97633283    -0.00000000     0.00000000  0.18D-18  0.87D-19  6  1   422.69
  22      1.35211793    -1.27544617  -378.97633283     0.00000000    -0.00000000  0.29D-19  0.13D-19  6  4   442.34
  23      1.35211793    -1.27544617  -378.97633283     0.00000000     0.00000000  0.54D-20  0.24D-20  6  2   462.00
  24      1.35211793    -1.27544617  -378.97633283     0.00000000    -0.00000000  0.16D-20  0.35D-21  6  5   481.66

 Norm of t1 vector:      0.14431914      S-energy:     0.00000000      T1 diagnostic:  0.01700817
                                                                       D1 diagnostic:  0.06088434

 Singles amplitudes (print threshold =  0.500E-01):

         I         SYM. A    A   T(IA)

        15         2         1      0.05362417
        16         2         2      0.05560325


 Total CPU time for triples:    533.72 sec


 RESULTS
 =======

  Reference energy                   -377.700886652884
  CCSD singlet pair energy             -0.840595182810
  CCSD triplet pair energy             -0.434850991605
  CCSD correlation energy              -1.275446174415

  Triples (T) contribution             -0.054440459217
  Total correlation energy             -1.329886633631

  CCSD total energy                  -378.976332827298
  CCSD[T] energy                     -379.034185812078
  CCSD-T energy                      -379.029401073445
 !CCSD(T) total energy               -379.030773286515

 Timing summary (sec):

 STEP                 CPU(USER)    SYS     CPU(TOT)    WALL
 Transformation         10.24      0.63     10.87     10.87
 CCSD iterations       471.43      8.55    479.98    480.18
 Triples               533.72      8.01    541.73    541.84

 Program statistics:

 Available memory in ccsd:               999998604
 Min. memory needed in ccsd:               9310224
 Max. memory used in ccsd:                12787052
 Max. memory used in cckext:              12250851 (24 integral passes)



 **********************************************************************************************************************************
 DATASETS  * FILE   NREC   LENGTH (MB)   RECORD NAMES
              1      20     1621.44       500      610      700      900      950      970     1000      129      960     1100   
                                          VAR    BASINP    GEOM    SYMINP    ZMAT    AOBASIS   BASIS     P2S    ABASIS      S 
                                         1400     1410     1200     1210     1080     1600     1650     1300     1700     1380   
                                           T        V       H0       H01     AOSYM     SMH    MOLCAS    ERIS     OPER     JKOP   

              2       3        1.08       700     1000     2100   
                                         GEOM     BASIS     RHF  

 PROGRAMS   *        TOTAL   CCSD(T)       RHF       INT
 CPU TIMES  *      1069.50   1015.41     31.75     22.28
 REAL TIME  *      1095.39 SEC
 DISK USED  *         4.66 GB      
 GA USED    *         0.01 MB       (max)       0.00 MB       (current)
 **********************************************************************************************************************************

        CCSD(T)         RHF-SCF 
   -379.03077329   -377.70088665
 **********************************************************************************************************************************
 Variable memory released
