
 Primary working directories    : /tmp/880701.578.gen6.q
 Secondary working directories  : /tmp/880701.578.gen6.q
 Wavefunction directory         : /home/vulcan/lo21740/wfu/
 Main file repository           : /tmp/880701.578.gen6.q/

 ARCHNAME  : Linux/x86_64
 FC        : /opt/intel/compilers_and_libraries_2016.1.150/linux/bin/intel64/ifort
 FCVERSION : 16.0.1
 BLASLIB   : -mkl
 id        : ccgc

 Nodes     nprocs
 n092         1
 ga_uses_ma=false, calling ma_init with nominal heap.
 GA-space will be limited to   8.0 MW (determined by -G option)

 Using customized tuning parameters: mindgm=10; mindgv=16; mindgc=4; mindgr=1; noblas=0; mincuda=1000; minvec=7
 default implementation of scratch files=df  

 ***,Optimization of formamide
 memory,1000,m
 gthresh,energy=1.0d-12,orbital=1.0d-10,oneint=1.0d-16,twoint=1.0d-16,optgrad=1.0d-6,compress=1.0d-13
 geomtyp=xyz
 
 bohr
 geometry = {
  C   -3.8248243608    0.0881789377    0.0000000000
  O   -2.7307922544    2.1373262539   -0.0000000000
  N   -2.6820605294   -2.1759866184   -0.0000000000
  H   -3.7442009636   -3.7506868221    0.0000000000
  H   -0.7509133726   -2.3066432081   -0.0000000000
  H   -5.9003131576   -0.0270419185   -0.0000000000
  C    3.8248243608   -0.0881789377    0.0000000000
  O    2.7307922544   -2.1373262539    0.0000000000
  N    2.6820605294    2.1759866184   -0.0000000000
  H    3.7442009636    3.7506868221   -0.0000000000
  H    0.7509133726    2.3066432081   -0.0000000000
  H    5.9003131576    0.0270419185    0.0000000000
 }
 
 basis=AVDZ
 {rhf;maxit,200}
 {ccsd(t);maxit,200}

 Variables initialized (661), CPU time= 0.00 sec
 Commands  initialized (458), CPU time= 0.00 sec, 486 directives.
 Default parameters read. Elapsed time= 0.04 sec

 Checking input...
 Passed
1


                                         ***  PROGRAM SYSTEM MOLPRO  ***
                         Copyright, University College Cardiff Consultants Limited, 2008

                                    Version 2010.1 linked May 16 2016 07:17:05


 **********************************************************************************************************************************
 LABEL *   Optimization of formamide                                                     
 Linux-4.4.3/n092(x86_64) 64 bit mpp version                                             DATE: 25-May-23          TIME: 00:36:07  
 **********************************************************************************************************************************

 SHA1:             9e8077add272b0f3cad6f7df79ec5211205f459d
 **********************************************************************************************************************************

 THRESHOLDS:

 ZERO    =  1.00D-12  ONEINT  =  1.00D-16  TWOINT  =  1.00D-16  PREFAC  =  1.00D-14  LOCALI  =  1.00D-09  EORDER  =  1.00D-04
 ENERGY  =  1.00D-12  ETEST   =  0.00D+00  EDENS   =  0.00D+00  THRDEDEF=  1.00D-06  GRADIENT=  1.00D-02  STEP    =  1.00D-03
 ORBITAL =  1.00D-10  CIVEC   =  1.00D-05  COEFF   =  1.00D-04  PRINTCI =  5.00D-02  PUNCHCI =  9.90D+01  OPTGRAD =  1.00D-06
 OPTENERG=  1.00D-06  OPTSTEP =  3.00D-04  THRGRAD =  1.00D-10  COMPRESS=  1.00D-13  VARMIN  =  1.00D-07  VARMAX  =  1.00D-03
 THRDOUB =  0.00D+00  THRDIV  =  1.00D-05  THRRED  =  1.00D-07  THRPSP  =  1.00D+00  THRDC   =  1.00D-10  THRCS   =  1.00D-10
 THRNRM  =  1.00D-08  THREQ   =  0.00D+00  THRDE   =  1.00D+00  THRREF  =  1.00D-05  SPARFAC =  1.00D+00  THRDLP  =  1.00D-07
 THRDIA  =  1.00D-10  THRDLS  =  1.00D-07  THRGPS  =  0.00D+00  THRKEX  =  0.00D+00  THRDIS  =  2.00D-01  THRVAR  =  1.00D-10
 THRLOC  =  1.00D-06  THRGAP  =  1.00D-06  THRLOCT = -1.00D+00  THRGAPT = -1.00D+00  THRORB  =  1.00D-06  THRMLTP =  0.00D+00
 THRCPQCI=  1.00D-10  KEXTA   =  0.00D+00  THRCOARS=  0.00D+00  SYMTOL  =  1.00D-06  GRADTOL =  1.00D-06  THROVL  =  1.00D-08
 THRORTH =  1.00D-08  GRID    =  1.00D-06  GRIDMAX =  1.00D-03  DTMAX   =  0.00D+00

 SETTING GEOMTYP        =    XYZ
 ZUNIT=BOHR
 

 Variable memory set to 1000000000 words,  buffer space   230000 words

 SETTING BASIS          =    AVDZ


 Recomputing integrals since basis changed


 Using spherical harmonics

 Library entry C      S aug-cc-pVDZ          selected for orbital group  1
 Library entry C      P aug-cc-pVDZ          selected for orbital group  1
 Library entry C      D aug-cc-pVDZ          selected for orbital group  1
 Library entry O      S aug-cc-pVDZ          selected for orbital group  2
 Library entry O      P aug-cc-pVDZ          selected for orbital group  2
 Library entry O      D aug-cc-pVDZ          selected for orbital group  2
 Library entry N      S aug-cc-pVDZ          selected for orbital group  3
 Library entry N      P aug-cc-pVDZ          selected for orbital group  3
 Library entry N      D aug-cc-pVDZ          selected for orbital group  3
 Library entry H      S aug-cc-pVDZ          selected for orbital group  4
 Library entry H      P aug-cc-pVDZ          selected for orbital group  4

1PROGRAM * SEWARD (Integral evaluation for generally contracted gaussian basis sets)     Author: Roland Lindh, 1990

 Geometry written to block  1 of record 700


 Point group  C2h 



 ATOMIC COORDINATES

 NR  ATOM    CHARGE       X              Y              Z

   1  C       6.00   -3.824824361    0.088178938    0.000000000
   2  C       6.00    3.824824361   -0.088178938    0.000000000
   3  O       8.00   -2.730792254    2.137326254    0.000000000
   4  O       8.00    2.730792254   -2.137326254    0.000000000
   5  N       7.00   -2.682060529   -2.175986618    0.000000000
   6  N       7.00    2.682060529    2.175986618    0.000000000
   7  H       1.00   -3.744200964   -3.750686822    0.000000000
   8  H       1.00    3.744200964    3.750686822    0.000000000
   9  H       1.00   -0.750913373   -2.306643208    0.000000000
  10  H       1.00    0.750913373    2.306643208    0.000000000
  11  H       1.00   -5.900313158   -0.027041919    0.000000000
  12  H       1.00    5.900313158    0.027041919    0.000000000

 Bond lengths in Bohr (Angstrom)

  1- 3  2.322910023   1- 5  2.536208753   1-11  2.078684582   2- 4  2.322910023   2- 6  2.536208753
       ( 1.229231043)       ( 1.342103869)       ( 1.099992505)       ( 1.229231043)       ( 1.342103869)

  2-12  2.078684582   5- 7  1.899427028   5- 9  1.935562059   6- 8  1.899427028   6-10  1.935562059
       ( 1.099992505)       ( 1.005133493)       ( 1.024255328)       ( 1.005133493)       ( 1.024255328)

 Bond angles

  1- 5- 7  119.21933250   1- 5- 9  120.65146468   2- 6- 8  119.21933250   2- 6-10  120.65146468

  3- 1- 5  125.12153364   3- 1-11  121.27510841   4- 2- 6  125.12153364   4- 2-12  121.27510841

  5- 1-11  113.60335795   6- 2-12  113.60335795   7- 5- 9  120.12920282   8- 6-10  120.12920282

 NUCLEAR CHARGE:                   48
 NUMBER OF PRIMITIVE AOS:         288
 NUMBER OF SYMMETRY AOS:          276
 NUMBER OF CONTRACTIONS:          192   (  69Ag  +  27Au  +  69Bu  +  27Bg  )
 NUMBER OF CORE ORBITALS:           6   (   3Ag  +   0Au  +   3Bu  +   0Bg  )
 NUMBER OF VALENCE ORBITALS:       30   (  12Ag  +   3Au  +  12Bu  +   3Bg  )


 NUCLEAR REPULSION ENERGY  230.64244789


 Eigenvalues of metric

         1 0.232E-03 0.526E-03 0.697E-03 0.714E-03 0.864E-03 0.216E-02 0.279E-02 0.326E-02
         2 0.198E-01 0.281E-01 0.339E-01 0.453E-01 0.701E-01 0.792E-01 0.124E+00 0.184E+00
         3 0.270E-03 0.525E-03 0.562E-03 0.712E-03 0.120E-02 0.133E-02 0.232E-02 0.320E-02
         4 0.181E-01 0.282E-01 0.335E-01 0.416E-01 0.554E-01 0.886E-01 0.165E+00 0.172E+00


 Contracted 2-electron integrals neglected if value below      1.0D-16
 AO integral compression algorithm  1   Integral accuracy      1.0D-16

     455.868 MB (compressed) written to integral file (100.0%)

     Node minimum: 455.868 MB, node maximum: 455.868 MB


 NUMBER OF SORTED TWO-ELECTRON INTEGRALS:   45269976.     BUFFER LENGTH:  32768
 NUMBER OF SEGMENTS:   3  SEGMENT LENGTH:   15999984      RECORD LENGTH: 524288

 Memory used in sort:      16.56 MW

 SORT1 READ    55745328. AND WROTE    45269976. INTEGRALS IN    130 RECORDS. CPU TIME:     0.77 SEC, REAL TIME:     1.08 SEC
 SORT2 READ    45269976. AND WROTE    45269976. INTEGRALS IN   1739 RECORDS. CPU TIME:     0.45 SEC, REAL TIME:     0.64 SEC

 FILE SIZES:   FILE 1:   375.6 MBYTE,  FILE 4:   545.3 MBYTE,   TOTAL:    920.9 MBYTE

 OPERATOR DM      FOR CENTER  0  COORDINATES:    0.000000    0.000000    0.000000


 **********************************************************************************************************************************
 DATASETS  * FILE   NREC   LENGTH (MB)   RECORD NAMES
              1      19      375.74       500      610      700      900      950      970     1000      129      960     1100   
                                          VAR    BASINP    GEOM    SYMINP    ZMAT    AOBASIS   BASIS     P2S    ABASIS      S 
                                         1400     1410     1200     1210     1080     1600     1650     1300     1700   
                                           T        V       H0       H01     AOSYM     SMH    MOLCAS    ERIS     OPER   

 PROGRAMS   *        TOTAL       INT
 CPU TIMES  *         4.30      4.26
 REAL TIME  *         5.17 SEC
 DISK USED  *         1.38 GB      
 GA USED    *         0.00 MB       (max)       0.00 MB       (current)
 **********************************************************************************************************************************

1PROGRAM * RHF-SCF (CLOSED SHELL)       Authors: W. Meyer, H.-J. Werner


 NUMBER OF ELECTRONS:      24+   24-
 CONVERGENCE THRESHOLDS:    1.00E-10 (Density)    1.00E-13 (Energy)
 MAX. NUMBER OF ITERATIONS:      200
 INTERPOLATION TYPE:            DIIS
 INTERPOLATION STEPS:              2 (START)      1 (STEP)
 LEVEL SHIFTS:                  0.00 (CLOSED)  0.00 (OPEN) 



 Orbital guess generated from atomic densities. Full valence occupancy:   15   3  15   3

 Molecular orbital dump at record        2100.2

 Initial alpha occupancy:  10   2  10   2
 Initial beta  occupancy:  10   2  10   2
 Wave function symmetry:    1

 ITERATION    DDIFF          GRAD             ENERGY        2-EL.EN.            DIPOLE MOMENTS         DIIS
    1      0.000D+00      0.000D+00      -337.80687261    704.970569    0.00000    0.00000    0.00000    0
    2      0.000D+00      0.102D-01      -337.88431501    699.342153    0.00000    0.00000    0.00000    1
    3      0.194D-01      0.744D-02      -337.94150766    702.079207    0.00000    0.00000    0.00000    2
    4      0.787D-02      0.986D-03      -337.94371149    701.985995    0.00000    0.00000    0.00000    3
    5      0.188D-02      0.339D-03      -337.94397814    701.917723    0.00000    0.00000    0.00000    4
    6      0.641D-03      0.111D-03      -337.94403905    701.943386    0.00000    0.00000    0.00000    5
    7      0.283D-03      0.493D-04      -337.94405001    701.934722    0.00000    0.00000    0.00000    6
    8      0.135D-03      0.146D-04      -337.94405094    701.940109    0.00000    0.00000    0.00000    7
    9      0.424D-04      0.434D-05      -337.94405101    701.937671    0.00000    0.00000    0.00000    8
   10      0.109D-04      0.151D-05      -337.94405102    701.938230    0.00000    0.00000    0.00000    7
   11      0.453D-05      0.364D-06      -337.94405102    701.938156    0.00000    0.00000    0.00000    8
   12      0.106D-05      0.549D-07      -337.94405102    701.938162    0.00000    0.00000    0.00000    7
   13      0.155D-06      0.129D-07      -337.94405102    701.938163    0.00000    0.00000    0.00000    7
   14      0.395D-07      0.236D-08      -337.94405102    701.938163    0.00000    0.00000    0.00000    6
   15      0.611D-08      0.886D-09      -337.94405102    701.938163    0.00000    0.00000    0.00000    6
   16      0.187D-08      0.347D-09      -337.94405102    701.938163    0.00000    0.00000    0.00000    7
   17      0.649D-09      0.956D-10      -337.94405102    701.938163    0.00000    0.00000    0.00000    7
   18      0.207D-09      0.269D-10      -337.94405102    701.938163    0.00000    0.00000    0.00000    7
   19      0.697D-10      0.841D-11      -337.94405102    701.938163    0.00000    0.00000    0.00000    7
   20      0.226D-10      0.348D-11      -337.94405102    701.938163    0.00000    0.00000    0.00000    8
   21      0.103D-10      0.620D-12      -337.94405102    701.938163    0.00000    0.00000    0.00000    8
   22      0.533D-11      0.270D-12      -337.94405102    701.938163    0.00000    0.00000    0.00000    0

 Final occupancy:  10   2  10   2

 !RHF STATE 1.1 Energy               -337.944051020446
 Nuclear energy                       230.64244789
 One-electron energy                 -919.55558059
 Two-electron energy                  350.96908168
 Virial quotient                       -1.00166831
 !RHF STATE 1.1 Dipole moment           0.00000000     0.00000000     0.00000000
 Dipole moment /Debye                   0.00000000     0.00000000     0.00000000

 Orbital energies:

         1.1          2.1          3.1          4.1          5.1          6.1          7.1          8.1          9.1         10.1
    -20.541093   -15.588716   -11.367209    -1.390540    -1.212605    -0.860890    -0.749906    -0.645178    -0.619627    -0.454509

        11.1         12.1
      0.033386     0.059200

         1.2          2.2          3.2          4.2
     -0.574408    -0.409868     0.092323     0.151273

         1.3          2.3          3.3          4.3          5.3          6.3          7.3          8.3          9.3         10.3
    -20.541092   -15.588716   -11.367209    -1.385852    -1.218748    -0.835655    -0.740992    -0.706034    -0.594027    -0.429036

        11.3         12.3
      0.036361     0.052573

         1.4          2.4          3.4          4.4
     -0.566384    -0.420416     0.103422     0.181960


 **********************************************************************************************************************************
 DATASETS  * FILE   NREC   LENGTH (MB)   RECORD NAMES
              1      19      375.74       500      610      700      900      950      970     1000      129      960     1100   
                                          VAR    BASINP    GEOM    SYMINP    ZMAT    AOBASIS   BASIS     P2S    ABASIS      S 
                                         1400     1410     1200     1210     1080     1600     1650     1300     1700   
                                           T        V       H0       H01     AOSYM     SMH    MOLCAS    ERIS     OPER   

              2       3        0.70       700     1000     2100   
                                         GEOM     BASIS     RHF  

 PROGRAMS   *        TOTAL       RHF       INT
 CPU TIMES  *         6.88      2.58      4.26
 REAL TIME  *         8.34 SEC
 DISK USED  *         1.38 GB      
 GA USED    *         0.00 MB       (max)       0.00 MB       (current)
 **********************************************************************************************************************************


1PROGRAM * CCSD (Closed-shell coupled cluster)     Authors: C. Hampel, H.-J. Werner, 1991, M. Deegan, P.J. Knowles, 1992


 Convergence thresholds:  THRVAR = 1.00D-08  THRDEN = 1.00D-12

 CCSD(T)     terms to be evaluated (factor= 1.000)


 Number of core orbitals:           6 (   3   0   3   0 )
 Number of closed-shell orbitals:  18 (   7   2   7   2 )
 Number of external orbitals:     168 (  59  25  59  25 )

 Molecular orbitals read from record     2100.2  Type=RHF/CANONICAL (state 1.1)

 Number of N-1 electron functions:              18
 Number of N-2 electron functions:             171
 Number of singly external CSFs:               926
 Number of doubly external CSFs:           1202384
 Total number of CSFs:                     1203311

 Length of J-op  integral file:               0.00 MB
 Length of K-op  integral file:               0.79 MB
 Length of 3-ext integral record:             0.00 MB

 Memory could be reduced to 28.44 Mwords without degradation in triples

 Integral transformation finished. Total CPU:   1.07 sec, npass=  1  Memory used:   8.50 MW

 Reference energy:                   -337.94405102

 MP2 singlet pair energy:              -0.62248220
 MP2 triplet pair energy:              -0.40600744
 MP2 correlation energy:               -1.02848964
 MP2 total energy:                   -338.97254066

 SCS-MP2 correlation energy:           -0.99960549   (PS=  1.200000  PT=  0.333333)
 SCS-MP2 total energy:               -338.94365651

 ITER.      SQ.NORM     CORR.ENERGY   TOTAL ENERGY   ENERGY CHANGE        DEN1      VAR(S)    VAR(P)  DIIS     TIME
   1      1.31903441    -1.05706036  -339.00111138    -0.02857072     0.00265082  0.10D-01  0.60D-02  1  1     2.74
   2      1.34448449    -1.05895702  -339.00300804    -0.00189665    -0.02590813  0.22D-03  0.11D-02  2  2     4.55
   3      1.35705568    -1.05984235  -339.00389337    -0.00088533    -0.00554673  0.22D-03  0.52D-04  3  3     6.37
   4      1.36222981    -1.05957969  -339.00363071     0.00026267    -0.00168595  0.22D-04  0.95D-05  4  4     8.18
   5      1.36435428    -1.05952290  -339.00357392     0.00005679    -0.00044535  0.27D-05  0.12D-05  5  5    10.00
   6      1.36487019    -1.05949458  -339.00354560     0.00002831    -0.00004939  0.27D-06  0.19D-06  6  6    11.84
   7      1.36499644    -1.05948239  -339.00353341     0.00001219    -0.00000200  0.35D-07  0.23D-07  6  1    13.67
   8      1.36503342    -1.05948122  -339.00353224     0.00000117    -0.00000694  0.74D-08  0.33D-08  6  2    15.50
   9      1.36503501    -1.05948139  -339.00353241    -0.00000017     0.00000262  0.13D-08  0.49D-09  6  3    17.31
  10      1.36503977    -1.05948086  -339.00353188     0.00000053    -0.00000109  0.32D-09  0.68D-10  6  4    19.12
  11      1.36503955    -1.05948111  -339.00353213    -0.00000025     0.00000046  0.57D-10  0.13D-10  6  5    20.94
  12      1.36503956    -1.05948109  -339.00353211     0.00000002     0.00000002  0.46D-11  0.34D-11  6  6    22.76
  13      1.36503927    -1.05948113  -339.00353215    -0.00000004     0.00000012  0.11D-11  0.39D-12  6  1    24.59
  14      1.36503918    -1.05948114  -339.00353216    -0.00000001     0.00000004  0.91D-13  0.75D-13  6  2    26.42
  15      1.36503916    -1.05948114  -339.00353216     0.00000000     0.00000001  0.25D-13  0.12D-13  6  3    28.21
  16      1.36503915    -1.05948114  -339.00353216    -0.00000000     0.00000000  0.52D-14  0.23D-14  6  4    30.03
  17      1.36503915    -1.05948114  -339.00353216     0.00000000    -0.00000000  0.10D-14  0.48D-15  6  5    31.85
  18      1.36503915    -1.05948114  -339.00353216     0.00000000    -0.00000000  0.29D-15  0.11D-15  6  2    33.68
  19      1.36503916    -1.05948114  -339.00353216     0.00000000    -0.00000000  0.48D-16  0.16D-16  6  6    35.51
  20      1.36503916    -1.05948114  -339.00353216    -0.00000000     0.00000000  0.13D-16  0.30D-17  6  1    37.33
  21      1.36503916    -1.05948114  -339.00353216     0.00000000    -0.00000000  0.34D-17  0.12D-17  6  4    39.16
  22      1.36503916    -1.05948114  -339.00353216    -0.00000000     0.00000000  0.11D-17  0.24D-18  6  3    40.99
  23      1.36503916    -1.05948114  -339.00353216     0.00000000    -0.00000000  0.54D-19  0.32D-19  6  5    42.83
  24      1.36503916    -1.05948114  -339.00353216     0.00000000    -0.00000000  0.13D-19  0.56D-20  6  2    44.67
  25      1.36503916    -1.05948114  -339.00353216    -0.00000000     0.00000000  0.18D-20  0.11D-20  6  4    46.48
  26      1.36503916    -1.05948114  -339.00353216     0.00000000    -0.00000000  0.11D-21  0.10D-21  6  6    48.29

 Norm of t1 vector:      0.14781249      S-energy:     0.00000000      T1 diagnostic:  0.01741987
                                                                       D1 diagnostic:  0.05876967


 Total CPU time for triples:     52.98 sec


 RESULTS
 =======

  Reference energy                   -337.944051020446
  CCSD singlet pair energy             -0.699374687178
  CCSD triplet pair energy             -0.360106451263
  CCSD correlation energy              -1.059481138441

  Triples (T) contribution             -0.039865526865
  Total correlation energy             -1.099346665306

  CCSD total energy                  -339.003532158886
  CCSD[T] energy                     -339.046601454940
  CCSD-T energy                      -339.042279540230
 !CCSD(T) total energy               -339.043397685751

 Timing summary (sec):

 STEP                 CPU(USER)    SYS     CPU(TOT)    WALL
 Transformation          1.09      0.14      1.23      1.25
 CCSD iterations        47.21      2.36     49.57     49.61
 Triples                52.98      1.86     54.84     54.85

 Program statistics:

 Available memory in ccsd:               999998604
 Min. memory needed in ccsd:               3014206
 Max. memory used in ccsd:                 4106384
 Max. memory used in cckext:               3788489 (26 integral passes)



 **********************************************************************************************************************************
 DATASETS  * FILE   NREC   LENGTH (MB)   RECORD NAMES
              1      20      485.26       500      610      700      900      950      970     1000      129      960     1100   
                                          VAR    BASINP    GEOM    SYMINP    ZMAT    AOBASIS   BASIS     P2S    ABASIS      S 
                                         1400     1410     1200     1210     1080     1600     1650     1300     1700     1380   
                                           T        V       H0       H01     AOSYM     SMH    MOLCAS    ERIS     OPER     JKOP   

              2       3        0.70       700     1000     2100   
                                         GEOM     BASIS     RHF  

 PROGRAMS   *        TOTAL   CCSD(T)       RHF       INT
 CPU TIMES  *       108.18    101.30      2.58      4.26
 REAL TIME  *       114.09 SEC
 DISK USED  *         1.38 GB      
 GA USED    *         0.00 MB       (max)       0.00 MB       (current)
 **********************************************************************************************************************************

        CCSD(T)         RHF-SCF 
   -339.04339769   -337.94405102
 **********************************************************************************************************************************
 Variable memory released
