
 Primary working directories    : /tmp/943417.408.gen6.q
 Secondary working directories  : /tmp/943417.408.gen6.q
 Wavefunction directory         : /home/vulcan/mel64643/wfu/
 Main file repository           : /tmp/943417.408.gen6.q/

 ARCHNAME  : Linux/x86_64
 FC        : /opt/intel/compilers_and_libraries_2016.1.150/linux/bin/intel64/ifort
 FCVERSION : 16.0.1
 BLASLIB   : -mkl
 id        : ccgc

 Nodes     nprocs
 n087         1
 ga_uses_ma=false, calling ma_init with nominal heap.
 GA-space will be limited to   8.0 MW (determined by -G option)

 Using customized tuning parameters: mindgm=10; mindgv=16; mindgc=4; mindgr=1; noblas=0; mincuda=1000; minvec=7
 default implementation of scratch files=df  

 ***,Optimization of nh3_nitrosmethane
 memory,1000,m
 gthresh,energy=1.0d-12,orbital=1.0d-10,oneint=1.0d-16,twoint=1.0d-16,optgrad=1.0d-6,compress=1.0d-13
 geomtyp=xyz
 
 bohr
 geometry = {
  N   -5.2288256123   -0.1782550825   -0.0049964865
  H   -6.3083418586    0.2398725114   -1.5348167913
  H   -3.7601762222    1.0597028432    0.0043071486
  H   -6.2950509939    0.2413710716    1.5337086521
  H   -0.9181188329   -2.4170036302    0.0000566932
  H    1.8953914076   -3.4342552022   -1.6663127230
  H    1.8950066447   -3.4342685558    1.6670674245
  C    1.1427889025   -2.4746131187    0.0002943465
  N    2.2576748245    0.1000118442    0.0004333494
  O    0.6837702305    1.7744943280    0.0002583865
 }
 
 basis=cc-pvdz
 {rhf;maxit,200}
 {ccsd(t);maxit,200}

 Variables initialized (661), CPU time= 0.01 sec
 Commands  initialized (458), CPU time= 0.00 sec, 486 directives.
 Default parameters read. Elapsed time= 0.05 sec

 Checking input...
 Passed
1


                                         ***  PROGRAM SYSTEM MOLPRO  ***
                         Copyright, University College Cardiff Consultants Limited, 2008

                                    Version 2010.1 linked May 16 2016 07:17:05


 **********************************************************************************************************************************
 LABEL *   Optimization of nh3_nitrosmethane                                             
 Linux-4.4.3/n087(x86_64) 64 bit mpp version                                             DATE: 25-Oct-23          TIME: 17:15:34  
 **********************************************************************************************************************************

 SHA1:             9e8077add272b0f3cad6f7df79ec5211205f459d
 **********************************************************************************************************************************

 THRESHOLDS:

 ZERO    =  1.00D-12  ONEINT  =  1.00D-16  TWOINT  =  1.00D-16  PREFAC  =  1.00D-14  LOCALI  =  1.00D-09  EORDER  =  1.00D-04
 ENERGY  =  1.00D-12  ETEST   =  0.00D+00  EDENS   =  0.00D+00  THRDEDEF=  1.00D-06  GRADIENT=  1.00D-02  STEP    =  1.00D-03
 ORBITAL =  1.00D-10  CIVEC   =  1.00D-05  COEFF   =  1.00D-04  PRINTCI =  5.00D-02  PUNCHCI =  9.90D+01  OPTGRAD =  1.00D-06
 OPTENERG=  1.00D-06  OPTSTEP =  3.00D-04  THRGRAD =  1.00D-10  COMPRESS=  1.00D-13  VARMIN  =  1.00D-07  VARMAX  =  1.00D-03
 THRDOUB =  0.00D+00  THRDIV  =  1.00D-05  THRRED  =  1.00D-07  THRPSP  =  1.00D+00  THRDC   =  1.00D-10  THRCS   =  1.00D-10
 THRNRM  =  1.00D-08  THREQ   =  0.00D+00  THRDE   =  1.00D+00  THRREF  =  1.00D-05  SPARFAC =  1.00D+00  THRDLP  =  1.00D-07
 THRDIA  =  1.00D-10  THRDLS  =  1.00D-07  THRGPS  =  0.00D+00  THRKEX  =  0.00D+00  THRDIS  =  2.00D-01  THRVAR  =  1.00D-10
 THRLOC  =  1.00D-06  THRGAP  =  1.00D-06  THRLOCT = -1.00D+00  THRGAPT = -1.00D+00  THRORB  =  1.00D-06  THRMLTP =  0.00D+00
 THRCPQCI=  1.00D-10  KEXTA   =  0.00D+00  THRCOARS=  0.00D+00  SYMTOL  =  1.00D-06  GRADTOL =  1.00D-06  THROVL  =  1.00D-08
 THRORTH =  1.00D-08  GRID    =  1.00D-06  GRIDMAX =  1.00D-03  DTMAX   =  0.00D+00

 SETTING GEOMTYP        =    XYZ
 ZUNIT=BOHR
 

 Variable memory set to 1000000000 words,  buffer space   230000 words

 SETTING BASIS          =    CC-PVDZ


 Recomputing integrals since basis changed


 Using spherical harmonics

 Library entry N      S cc-pVDZ              selected for orbital group  1
 Library entry N      P cc-pVDZ              selected for orbital group  1
 Library entry N      D cc-pVDZ              selected for orbital group  1
 Library entry H      S cc-pVDZ              selected for orbital group  2
 Library entry H      P cc-pVDZ              selected for orbital group  2
 Library entry C      S cc-pVDZ              selected for orbital group  3
 Library entry C      P cc-pVDZ              selected for orbital group  3
 Library entry C      D cc-pVDZ              selected for orbital group  3
 Library entry O      S cc-pVDZ              selected for orbital group  5
 Library entry O      P cc-pVDZ              selected for orbital group  5
 Library entry O      D cc-pVDZ              selected for orbital group  5

1PROGRAM * SEWARD (Integral evaluation for generally contracted gaussian basis sets)     Author: Roland Lindh, 1990

 Geometry written to block  1 of record 700


 Point group  C1  



 ATOMIC COORDINATES

 NR  ATOM    CHARGE       X              Y              Z

   1  N       7.00   -5.228825612   -0.178255082   -0.004996487
   2  H       1.00   -6.308341859    0.239872511   -1.534816791
   3  H       1.00   -3.760176222    1.059702843    0.004307149
   4  H       1.00   -6.295050994    0.241371072    1.533708652
   5  H       1.00   -0.918118833   -2.417003630    0.000056693
   6  H       1.00    1.895391408   -3.434255202   -1.666312723
   7  H       1.00    1.895006645   -3.434268556    1.667067424
   8  C       6.00    1.142788902   -2.474613119    0.000294347
   9  N       7.00    2.257674825    0.100011844    0.000433349
  10  O       8.00    0.683770230    1.774494328    0.000258386

 Bond lengths in Bohr (Angstrom)

 1-2  1.918472355  1-3  1.920822067  1-4  1.918472355  5-8  2.061712784  6-8  2.065164057
     ( 1.015211846)     ( 1.016455261)     ( 1.015211846)     ( 1.091011417)     ( 1.092837752)

  7- 8  2.065164057   8- 9  2.805648648   9-10  2.298057286
       ( 1.092837752)       ( 1.484685321)       ( 1.216079541)

 Bond angles

  2-1-3  107.07540301   2-1-4  106.21038514   3-1-4  106.26512597   5-8-6  112.15889808

  5-8-7  112.15889804   5-8-9  111.81278773   6-8-7  107.61735006   6-8-9  106.35838662

  7- 8- 9  106.35838660   8- 9-10  113.35946297

 NUCLEAR CHARGE:                   34
 NUMBER OF PRIMITIVE AOS:         150
 NUMBER OF SYMMETRY AOS:          146
 NUMBER OF CONTRACTIONS:           86   (  86A   )
 NUMBER OF CORE ORBITALS:           4   (   4A   )
 NUMBER OF VALENCE ORBITALS:       22   (  22A   )


 NUCLEAR REPULSION ENERGY  117.40040388


 Eigenvalues of metric

         1 0.630E-02 0.972E-02 0.151E-01 0.181E-01 0.299E-01 0.370E-01 0.392E-01 0.407E-01


 Contracted 2-electron integrals neglected if value below      1.0D-16
 AO integral compression algorithm  1   Integral accuracy      1.0D-16

     51.905 MB (compressed) written to integral file ( 81.4%)

     Node minimum: 51.905 MB, node maximum: 51.905 MB


 NUMBER OF SORTED TWO-ELECTRON INTEGRALS:    6999411.     BUFFER LENGTH:  32768
 NUMBER OF SEGMENTS:   1  SEGMENT LENGTH:    6999411      RECORD LENGTH: 524288

 Memory used in sort:       7.56 MW

 SORT1 READ     8004178. AND WROTE     6870540. INTEGRALS IN     20 RECORDS. CPU TIME:     0.07 SEC, REAL TIME:     0.11 SEC
 SORT2 READ     6870540. AND WROTE     6999411. INTEGRALS IN    198 RECORDS. CPU TIME:     0.10 SEC, REAL TIME:     0.11 SEC

 FILE SIZES:   FILE 1:    47.9 MBYTE,  FILE 4:    83.9 MBYTE,   TOTAL:    131.8 MBYTE

 OPERATOR DM      FOR CENTER  0  COORDINATES:    0.000000    0.000000    0.000000


 **********************************************************************************************************************************
 DATASETS  * FILE   NREC   LENGTH (MB)   RECORD NAMES
              1      19       48.01       500      610      700      900      950      970     1000      129      960     1100   
                                          VAR    BASINP    GEOM    SYMINP    ZMAT    AOBASIS   BASIS     P2S    ABASIS      S 
                                         1400     1410     1200     1210     1080     1600     1650     1300     1700   
                                           T        V       H0       H01     AOSYM     SMH    MOLCAS    ERIS     OPER   

 PROGRAMS   *        TOTAL       INT
 CPU TIMES  *         0.78      0.74
 REAL TIME  *         1.05 SEC
 DISK USED  *       184.52 MB      
 GA USED    *         0.00 MB       (max)       0.00 MB       (current)
 **********************************************************************************************************************************

1PROGRAM * RHF-SCF (CLOSED SHELL)       Authors: W. Meyer, H.-J. Werner


 NUMBER OF ELECTRONS:      17+   17-    SPACE SYMMETRY=1    SPIN SYMMETRY: Singlet 
 CONVERGENCE THRESHOLDS:    1.00E-10 (Density)    1.00E-13 (Energy)
 MAX. NUMBER OF ITERATIONS:      200
 INTERPOLATION TYPE:            DIIS
 INTERPOLATION STEPS:              2 (START)      1 (STEP)
 LEVEL SHIFTS:                  0.00 (CLOSED)  0.00 (OPEN) 



 Orbital guess generated from atomic densities. Full valence occupancy:   26

 Molecular orbital dump at record        2100.2

 ITERATION    DDIFF          GRAD             ENERGY        2-EL.EN.            DIPOLE MOMENTS         DIIS
    1      0.000D+00      0.000D+00      -224.94595580    393.816126    0.11838   -0.56778    0.00532    0
    2      0.000D+00      0.101D-01      -225.00728250    393.266327   -0.58014   -0.30490    0.00221    1
    3      0.189D-01      0.693D-02      -225.03993237    393.784183   -0.23646   -0.51396    0.00287    2
    4      0.825D-02      0.139D-02      -225.04209504    393.675194   -0.31598   -0.42266    0.00297    3
    5      0.216D-02      0.531D-03      -225.04247215    393.671171   -0.31722   -0.44925    0.00286    4
    6      0.909D-03      0.129D-03      -225.04250870    393.693513   -0.32212   -0.44747    0.00287    5
    7      0.305D-03      0.512D-04      -225.04251450    393.681292   -0.32372   -0.44769    0.00287    6
    8      0.124D-03      0.198D-04      -225.04251536    393.686857   -0.32449   -0.44767    0.00287    7
    9      0.434D-04      0.826D-05      -225.04251553    393.685514   -0.32468   -0.44737    0.00287    8
   10      0.226D-04      0.230D-05      -225.04251555    393.685336   -0.32474   -0.44721    0.00287    8
   11      0.658D-05      0.694D-06      -225.04251555    393.685386   -0.32475   -0.44714    0.00287    8
   12      0.187D-05      0.221D-06      -225.04251555    393.685350   -0.32476   -0.44711    0.00287    8
   13      0.754D-06      0.700D-07      -225.04251555    393.685344   -0.32476   -0.44711    0.00287    8
   14      0.181D-06      0.348D-07      -225.04251555    393.685345   -0.32476   -0.44711    0.00287    8
   15      0.909D-07      0.835D-08      -225.04251555    393.685345   -0.32476   -0.44711    0.00287    8
   16      0.167D-07      0.485D-08      -225.04251555    393.685345   -0.32476   -0.44711    0.00287    8
   17      0.137D-07      0.357D-08      -225.04251555    393.685345   -0.32476   -0.44711    0.00287    8
   18      0.230D-07      0.177D-08      -225.04251555    393.685345   -0.32476   -0.44711    0.00287    8
   19      0.154D-07      0.614D-09      -225.04251555    393.685345   -0.32476   -0.44711    0.00287    9
   20      0.500D-08      0.124D-09      -225.04251555    393.685345   -0.32476   -0.44711    0.00287    9
   21      0.412D-09      0.339D-10      -225.04251555    393.685345   -0.32476   -0.44711    0.00287    9
   22      0.103D-09      0.787D-11      -225.04251555    393.685345   -0.32476   -0.44711    0.00287    8
   23      0.219D-10      0.271D-11      -225.04251555    393.685345   -0.32476   -0.44711    0.00287    9
   24      0.704D-11      0.124D-11      -225.04251555    393.685345   -0.32476   -0.44711    0.00287    8
   25      0.254D-11      0.303D-12      -225.04251555    393.685345   -0.32476   -0.44711    0.00287    7
   26      0.655D-12      0.161D-12      -225.04251555    393.685345   -0.32476   -0.44711    0.00287    7
   27      0.367D-12      0.695D-13      -225.04251555    393.685345   -0.32476   -0.44711    0.00287    8
   28      0.194D-12      0.267D-13      -225.04251555    393.685345   -0.32476   -0.44711    0.00287    8
   29      0.766D-13      0.165D-13      -225.04251555    393.685345   -0.32476   -0.44711    0.00287    9
   30      0.459D-13      0.108D-13      -225.04251555    393.685345   -0.32476   -0.44711    0.00287    0

 Final occupancy:  17

 !RHF STATE 1.1 Energy               -225.042515546779
 Nuclear energy                       117.40040388
 One-electron energy                 -539.28559187
 Two-electron energy                  196.84267245
 Virial quotient                       -1.00156637
 !RHF STATE 1.1 Dipole moment          -0.32475791    -0.44711106     0.00287259
 Dipole moment /Debye                  -0.82539821    -1.13636854     0.00730091

 Orbital energies:

         1.1          2.1          3.1          4.1          5.1          6.1          7.1          8.1          9.1         10.1
    -20.626177   -15.699265   -15.536913   -11.266019    -1.506902    -1.130291    -1.070249    -0.855584    -0.684835    -0.667846

        11.1         12.1         13.1         14.1         15.1         16.1         17.1         18.1         19.1
     -0.631051    -0.615193    -0.612823    -0.550823    -0.527952    -0.419811    -0.398385     0.109357     0.187143


 **********************************************************************************************************************************
 DATASETS  * FILE   NREC   LENGTH (MB)   RECORD NAMES
              1      19       48.01       500      610      700      900      950      970     1000      129      960     1100   
                                          VAR    BASINP    GEOM    SYMINP    ZMAT    AOBASIS   BASIS     P2S    ABASIS      S 
                                         1400     1410     1200     1210     1080     1600     1650     1300     1700   
                                           T        V       H0       H01     AOSYM     SMH    MOLCAS    ERIS     OPER   

              2       3        0.57       700     1000     2100   
                                         GEOM     BASIS     RHF  

 PROGRAMS   *        TOTAL       RHF       INT
 CPU TIMES  *         2.20      1.42      0.74
 REAL TIME  *         2.63 SEC
 DISK USED  *       184.52 MB      
 GA USED    *         0.00 MB       (max)       0.00 MB       (current)
 **********************************************************************************************************************************


1PROGRAM * CCSD (Closed-shell coupled cluster)     Authors: C. Hampel, H.-J. Werner, 1991, M. Deegan, P.J. Knowles, 1992


 Convergence thresholds:  THRVAR = 1.00D-08  THRDEN = 1.00D-12

 CCSD(T)     terms to be evaluated (factor= 1.000)


 Number of core orbitals:           4 (   4 )
 Number of closed-shell orbitals:  13 (  13 )
 Number of external orbitals:      69 (  69 )

 Molecular orbitals read from record     2100.2  Type=RHF/CANONICAL (state 1.1)

 Number of N-1 electron functions:              13
 Number of N-2 electron functions:              91
 Number of singly external CSFs:               897
 Number of doubly external CSFs:            402753
 Total number of CSFs:                      403651

 Length of J-op  integral file:               0.00 MB
 Length of K-op  integral file:               0.54 MB
 Length of 3-ext integral record:             0.00 MB

 Memory could be reduced to 6.46 Mwords without degradation in triples

 Integral transformation finished. Total CPU:   0.25 sec, npass=  1  Memory used:   5.81 MW

 Reference energy:                   -225.04251555

 MP2 singlet pair energy:              -0.42989869
 MP2 triplet pair energy:              -0.25005254
 MP2 correlation energy:               -0.67995122
 MP2 total energy:                   -225.72246677

 SCS-MP2 correlation energy:           -0.67146667   (PS=  1.200000  PT=  0.333333)
 SCS-MP2 total energy:               -225.71398221

 ITER.      SQ.NORM     CORR.ENERGY   TOTAL ENERGY   ENERGY CHANGE        DEN1      VAR(S)    VAR(P)  DIIS     TIME
   1      1.22680571    -0.71574519  -225.75826074    -0.03579397    -0.01323980  0.44D-02  0.46D-02  1  1     0.92
   2      1.24749014    -0.71905538  -225.76157093    -0.00331019    -0.02058623  0.13D-03  0.82D-03  2  2     1.61
   3      1.25645967    -0.71974334  -225.76225889    -0.00068796    -0.00431023  0.10D-03  0.59D-04  3  3     2.29
   4      1.26018513    -0.71973428  -225.76224983     0.00000906    -0.00126836  0.77D-05  0.10D-04  4  4     2.98
   5      1.26161835    -0.71975399  -225.76226954    -0.00001971    -0.00032474  0.14D-05  0.17D-05  5  5     3.67
   6      1.26201851    -0.71972628  -225.76224183     0.00002771    -0.00004719  0.78D-07  0.36D-06  6  6     4.36
   7      1.26210911    -0.71972443  -225.76223998     0.00000185    -0.00000216  0.20D-07  0.96D-07  6  2     5.04
   8      1.26213156    -0.71972451  -225.76224005    -0.00000007     0.00000224  0.86D-08  0.24D-07  6  5     5.74
   9      1.26212678    -0.71972537  -225.76224092    -0.00000087     0.00000162  0.17D-08  0.27D-08  6  1     6.42
  10      1.26212671    -0.71972564  -225.76224119    -0.00000027    -0.00000144  0.40D-09  0.30D-09  6  3     7.10
  11      1.26212520    -0.71972591  -225.76224145    -0.00000027     0.00000088  0.78D-10  0.49D-10  6  4     7.79
  12      1.26212447    -0.71972597  -225.76224152    -0.00000006     0.00000022  0.19D-10  0.11D-10  6  6     8.47
  13      1.26212373    -0.71972600  -225.76224155    -0.00000003     0.00000017  0.37D-11  0.17D-11  6  2     9.16
  14      1.26212336    -0.71972602  -225.76224157    -0.00000002     0.00000012  0.88D-12  0.49D-12  6  1     9.85
  15      1.26212309    -0.71972603  -225.76224158    -0.00000001     0.00000005  0.20D-12  0.83D-13  6  5    10.53
  16      1.26212303    -0.71972604  -225.76224158    -0.00000000     0.00000001  0.12D-12  0.35D-13  6  3    11.22
  17      1.26212299    -0.71972604  -225.76224158    -0.00000000     0.00000001  0.73D-13  0.14D-13  6  4    11.91
  18      1.26212298    -0.71972604  -225.76224158    -0.00000000    -0.00000000  0.44D-13  0.55D-14  6  6    12.59
  19      1.26212297    -0.71972604  -225.76224158     0.00000000    -0.00000000  0.17D-13  0.26D-14  6  2    13.28
  20      1.26212298    -0.71972604  -225.76224158     0.00000000     0.00000000  0.58D-14  0.17D-14  6  1    13.96
  21      1.26212298    -0.71972604  -225.76224158     0.00000000    -0.00000000  0.12D-14  0.82D-15  6  3    14.64
  22      1.26212299    -0.71972604  -225.76224158     0.00000000     0.00000000  0.18D-15  0.20D-15  6  5    15.32
  23      1.26212299    -0.71972604  -225.76224158     0.00000000    -0.00000000  0.50D-16  0.61D-16  6  4    16.01
  24      1.26212299    -0.71972604  -225.76224158    -0.00000000     0.00000000  0.30D-17  0.13D-16  6  6    16.69
  25      1.26212299    -0.71972604  -225.76224158     0.00000000    -0.00000000  0.10D-17  0.35D-17  6  2    17.38
  26      1.26212299    -0.71972604  -225.76224158     0.00000000    -0.00000000  0.17D-18  0.36D-18  6  5    18.07
  27      1.26212299    -0.71972604  -225.76224158    -0.00000000    -0.00000000  0.96D-19  0.64D-19  6  1    18.75
  28      1.26212299    -0.71972604  -225.76224158     0.00000000    -0.00000000  0.19D-19  0.86D-20  6  3    19.43
  29      1.26212299    -0.71972604  -225.76224158     0.00000000    -0.00000000  0.64D-20  0.19D-20  6  4    20.12
  30      1.26212299    -0.71972604  -225.76224158     0.00000000    -0.00000000  0.38D-20  0.75D-21  6  6    20.81
  31      1.26212299    -0.71972604  -225.76224158     0.00000000    -0.00000000  0.14D-20  0.25D-21  6  2    21.50

 Norm of t1 vector:      0.10008499      S-energy:     0.00000000      T1 diagnostic:  0.01387929
                                                                       D1 diagnostic:  0.05076224

 Doubles amplitudes (print threshold =  0.500E-01):

         I         J         SYM. A    SYM. B    A         B      T(IJ, AB)

         7         7         1         1         1         1     -0.06082455
        11         7         1         1         1         1     -0.06597124
        11        11         1         1         1         1     -0.09635814


 Total CPU time for triples:      6.17 sec


 RESULTS
 =======

  Reference energy                   -225.042515546779
  CCSD singlet pair energy             -0.499048709073
  CCSD triplet pair energy             -0.220677327602
  CCSD correlation energy              -0.719726036674

  Triples (T) contribution             -0.021671219556
  Total correlation energy             -0.741397256230

  CCSD total energy                  -225.762241583453
  CCSD[T] energy                     -225.785287681595
  CCSD-T energy                      -225.783509468147
 !CCSD(T) total energy               -225.783912803009

 Timing summary (sec):

 STEP                 CPU(USER)    SYS     CPU(TOT)    WALL
 Transformation          0.26      0.05      0.31      0.31
 CCSD iterations        21.24      0.68     21.92     21.97
 Triples                 6.17      0.16      6.33      6.34

 Program statistics:

 Available memory in ccsd:               999999224
 Min. memory needed in ccsd:               1143606
 Max. memory used in ccsd:                 1480488
 Max. memory used in cckext:               1471436 (31 integral passes)



 **********************************************************************************************************************************
 DATASETS  * FILE   NREC   LENGTH (MB)   RECORD NAMES
              1      20       73.63       500      610      700      900      950      970     1000      129      960     1100   
                                          VAR    BASINP    GEOM    SYMINP    ZMAT    AOBASIS   BASIS     P2S    ABASIS      S 
                                         1400     1410     1200     1210     1080     1600     1650     1300     1700     1380   
                                           T        V       H0       H01     AOSYM     SMH    MOLCAS    ERIS     OPER     JKOP   

              2       3        0.57       700     1000     2100   
                                         GEOM     BASIS     RHF  

 PROGRAMS   *        TOTAL   CCSD(T)       RHF       INT
 CPU TIMES  *        29.89     27.69      1.42      0.74
 REAL TIME  *        31.28 SEC
 DISK USED  *       197.16 MB      
 GA USED    *         0.00 MB       (max)       0.00 MB       (current)
 **********************************************************************************************************************************

        CCSD(T)         RHF-SCF 
   -225.78391280   -225.04251555
 **********************************************************************************************************************************
 Variable memory released
