
 Primary working directories    : /tmp/1003441.315.gen6.q
 Secondary working directories  : /tmp/1003441.315.gen6.q
 Wavefunction directory         : /home/vulcan/jj04645/wfu/
 Main file repository           : /tmp/1003441.315.gen6.q/

 ARCHNAME  : Linux/x86_64
 FC        : /opt/intel/compilers_and_libraries_2016.1.150/linux/bin/intel64/ifort
 FCVERSION : 16.0.1
 BLASLIB   : -mkl
 id        : ccgc

 Nodes     nprocs
 n074         1
 ga_uses_ma=false, calling ma_init with nominal heap.
 GA-space will be limited to   8.0 MW (determined by -G option)

 Using customized tuning parameters: mindgm=10; mindgv=16; mindgc=4; mindgr=1; noblas=0; mincuda=1000; minvec=7
 default implementation of scratch files=df  

 ***,Optimization of acetyl acetylene
 memory,1000,m
 gthresh,energy=1.0d-12,orbital=1.0d-10,oneint=1.0d-16,twoint=1.0d-16,optgrad=1.0d-6,compress=1.0d-13
 geomtyp=xyz
 
 bohr
 geometry = {
  H    3.3611223657   -1.7646775015   -1.6667129071
  C    2.2767490330   -2.3127521475    0.0019040403
  H    1.9308000458   -4.3395432237   -0.0038659109
  C   -0.2112806181   -0.9177411119    0.0019040403
  H    3.3850547116   -1.7782308253    1.6591545761
  O   -2.2640738554   -1.9469848618    0.0019040403
  C   -0.0181060490    1.8490520693    0.0019040403
  C    0.2065150090    4.1305973967    0.0019040403
  H    0.3543445367    6.1358450430    0.0019040403
 }
 
 basis=VDZ
 {rhf;maxit,200}
 {ccsd(t);maxit,200}

 Variables initialized (661), CPU time= 0.01 sec
 Commands  initialized (458), CPU time= 0.00 sec, 486 directives.
 Default parameters read. Elapsed time= 0.04 sec

 Checking input...
 Passed
1


                                         ***  PROGRAM SYSTEM MOLPRO  ***
                         Copyright, University College Cardiff Consultants Limited, 2008

                                    Version 2010.1 linked May 16 2016 07:17:05


 **********************************************************************************************************************************
 LABEL *   Optimization of acetyl acetylene                                              
 Linux-4.4.3/n074(x86_64) 64 bit mpp version                                             DATE: 15-Feb-24          TIME: 13:54:51  
 **********************************************************************************************************************************

 SHA1:             9e8077add272b0f3cad6f7df79ec5211205f459d
 **********************************************************************************************************************************

 THRESHOLDS:

 ZERO    =  1.00D-12  ONEINT  =  1.00D-16  TWOINT  =  1.00D-16  PREFAC  =  1.00D-14  LOCALI  =  1.00D-09  EORDER  =  1.00D-04
 ENERGY  =  1.00D-12  ETEST   =  0.00D+00  EDENS   =  0.00D+00  THRDEDEF=  1.00D-06  GRADIENT=  1.00D-02  STEP    =  1.00D-03
 ORBITAL =  1.00D-10  CIVEC   =  1.00D-05  COEFF   =  1.00D-04  PRINTCI =  5.00D-02  PUNCHCI =  9.90D+01  OPTGRAD =  1.00D-06
 OPTENERG=  1.00D-06  OPTSTEP =  3.00D-04  THRGRAD =  1.00D-10  COMPRESS=  1.00D-13  VARMIN  =  1.00D-07  VARMAX  =  1.00D-03
 THRDOUB =  0.00D+00  THRDIV  =  1.00D-05  THRRED  =  1.00D-07  THRPSP  =  1.00D+00  THRDC   =  1.00D-10  THRCS   =  1.00D-10
 THRNRM  =  1.00D-08  THREQ   =  0.00D+00  THRDE   =  1.00D+00  THRREF  =  1.00D-05  SPARFAC =  1.00D+00  THRDLP  =  1.00D-07
 THRDIA  =  1.00D-10  THRDLS  =  1.00D-07  THRGPS  =  0.00D+00  THRKEX  =  0.00D+00  THRDIS  =  2.00D-01  THRVAR  =  1.00D-10
 THRLOC  =  1.00D-06  THRGAP  =  1.00D-06  THRLOCT = -1.00D+00  THRGAPT = -1.00D+00  THRORB  =  1.00D-06  THRMLTP =  0.00D+00
 THRCPQCI=  1.00D-10  KEXTA   =  0.00D+00  THRCOARS=  0.00D+00  SYMTOL  =  1.00D-06  GRADTOL =  1.00D-06  THROVL  =  1.00D-08
 THRORTH =  1.00D-08  GRID    =  1.00D-06  GRIDMAX =  1.00D-03  DTMAX   =  0.00D+00

 SETTING GEOMTYP        =    XYZ
 ZUNIT=BOHR
 

 Variable memory set to 1000000000 words,  buffer space   230000 words

 SETTING BASIS          =    VDZ


 Recomputing integrals since basis changed


 Using spherical harmonics

 Library entry H      S cc-pVDZ              selected for orbital group  1
 Library entry H      P cc-pVDZ              selected for orbital group  1
 Library entry C      S cc-pVDZ              selected for orbital group  2
 Library entry C      P cc-pVDZ              selected for orbital group  2
 Library entry C      D cc-pVDZ              selected for orbital group  2
 Library entry O      S cc-pVDZ              selected for orbital group  6
 Library entry O      P cc-pVDZ              selected for orbital group  6
 Library entry O      D cc-pVDZ              selected for orbital group  6

1PROGRAM * SEWARD (Integral evaluation for generally contracted gaussian basis sets)     Author: Roland Lindh, 1990

 Geometry written to block  1 of record 700


 Point group  C1  



 ATOMIC COORDINATES

 NR  ATOM    CHARGE       X              Y              Z

   1  H       1.00    3.361122366   -1.764677502   -1.666712907
   2  C       6.00    2.276749033   -2.312752147    0.001904040
   3  H       1.00    1.930800046   -4.339543224   -0.003865911
   4  C       6.00   -0.211280618   -0.917741112    0.001904040
   5  H       1.00    3.385054712   -1.778230825    1.659154576
   6  O       8.00   -2.264073855   -1.946984862    0.001904040
   7  C       6.00   -0.018106049    1.849052069    0.001904040
   8  C       6.00    0.206515009    4.130597397    0.001904040
   9  H       1.00    0.354344537    6.135845043    0.001904040

 Bond lengths in Bohr (Angstrom)

 1-2  2.064106068  2-3  2.056111879  2-4  2.852428322  2-5  2.064106068  4-6  2.296367299
     ( 1.092277888)     ( 1.088047546)     ( 1.509440058)     ( 1.092277888)     ( 1.215185238)

 4-7  2.773528605  7-8  2.292575779  8-9  2.010689357
     ( 1.467688126)     ( 1.213178852)     ( 1.064010982)

 Bond angles

  1-2-3  110.35667326   1-2-4  109.17022103   1-2-5  107.35023344   2-4-6  124.09253777

  2-4-7  115.28502354   3-2-4  109.59243750   3-2-5  110.35666905   4-2-5  109.98050357

  4-7-8  178.37112628   6-4-7  120.62243868   7-8-9  178.59357076

 NUCLEAR CHARGE:                   36
 NUMBER OF PRIMITIVE AOS:         163
 NUMBER OF SYMMETRY AOS:          158
 NUMBER OF CONTRACTIONS:           90   (  90A   )
 NUMBER OF CORE ORBITALS:           5   (   5A   )
 NUMBER OF VALENCE ORBITALS:       24   (  24A   )


 NUCLEAR REPULSION ENERGY  142.23692284


 Eigenvalues of metric

         1 0.306E-03 0.212E-02 0.377E-02 0.955E-02 0.161E-01 0.176E-01 0.220E-01 0.328E-01


 Contracted 2-electron integrals neglected if value below      1.0D-16
 AO integral compression algorithm  1   Integral accuracy      1.0D-16

     54.002 MB (compressed) written to integral file ( 70.8%)

     Node minimum: 54.002 MB, node maximum: 54.002 MB


 NUMBER OF SORTED TWO-ELECTRON INTEGRALS:    8386560.     BUFFER LENGTH:  32768
 NUMBER OF SEGMENTS:   1  SEGMENT LENGTH:    8386560      RECORD LENGTH: 524288

 Memory used in sort:       8.94 MW

 SORT1 READ     9559587. AND WROTE     6361180. INTEGRALS IN     19 RECORDS. CPU TIME:     0.08 SEC, REAL TIME:     0.11 SEC
 SORT2 READ     6361180. AND WROTE     8386560. INTEGRALS IN    206 RECORDS. CPU TIME:     0.08 SEC, REAL TIME:     0.12 SEC

 FILE SIZES:   FILE 1:    50.3 MBYTE,  FILE 4:    79.7 MBYTE,   TOTAL:    130.1 MBYTE

 OPERATOR DM      FOR CENTER  0  COORDINATES:    0.000000    0.000000    0.000000


 **********************************************************************************************************************************
 DATASETS  * FILE   NREC   LENGTH (MB)   RECORD NAMES
              1      19       50.43       500      610      700      900      950      970     1000      129      960     1100   
                                          VAR    BASINP    GEOM    SYMINP    ZMAT    AOBASIS   BASIS     P2S    ABASIS      S 
                                         1400     1410     1200     1210     1080     1600     1650     1300     1700   
                                           T        V       H0       H01     AOSYM     SMH    MOLCAS    ERIS     OPER   

 PROGRAMS   *        TOTAL       INT
 CPU TIMES  *         0.92      0.88
 REAL TIME  *         1.20 SEC
 DISK USED  *       184.80 MB      
 GA USED    *         0.00 MB       (max)       0.00 MB       (current)
 **********************************************************************************************************************************

1PROGRAM * RHF-SCF (CLOSED SHELL)       Authors: W. Meyer, H.-J. Werner


 NUMBER OF ELECTRONS:      18+   18-    SPACE SYMMETRY=1    SPIN SYMMETRY: Singlet 
 CONVERGENCE THRESHOLDS:    1.00E-10 (Density)    1.00E-13 (Energy)
 MAX. NUMBER OF ITERATIONS:      200
 INTERPOLATION TYPE:            DIIS
 INTERPOLATION STEPS:              2 (START)      1 (STEP)
 LEVEL SHIFTS:                  0.00 (CLOSED)  0.00 (OPEN) 



 Orbital guess generated from atomic densities. Full valence occupancy:   29

 Molecular orbital dump at record        2100.2

 ITERATION    DDIFF          GRAD             ENERGY        2-EL.EN.            DIPOLE MOMENTS         DIIS
    1      0.000D+00      0.000D+00      -228.51847060    442.480755    1.92818    0.99617   -0.00366    0
    2      0.000D+00      0.891D-02      -228.57146091    440.639036    0.83014    0.43741    0.00013    1
    3      0.211D-01      0.652D-02      -228.60352374    441.194181    1.23014    0.60435   -0.00058    2
    4      0.781D-02      0.106D-02      -228.60537785    441.324862    1.17211    0.61427   -0.00059    3
    5      0.237D-02      0.400D-03      -228.60564024    441.219107    1.16811    0.57258   -0.00047    4
    6      0.831D-03      0.147D-03      -228.60567711    441.251625    1.16917    0.58267   -0.00045    5
    7      0.319D-03      0.625D-04      -228.60568603    441.241434    1.16567    0.57509   -0.00046    6
    8      0.163D-03      0.258D-04      -228.60568762    441.244519    1.16541    0.57439   -0.00046    7
    9      0.769D-04      0.711D-05      -228.60568778    441.243250    1.16487    0.57390   -0.00046    8
   10      0.281D-04      0.162D-05      -228.60568779    441.243685    1.16478    0.57389   -0.00046    7
   11      0.547D-05      0.750D-06      -228.60568780    441.243453    1.16474    0.57389   -0.00046    8
   12      0.240D-05      0.405D-06      -228.60568780    441.243492    1.16473    0.57388   -0.00046    8
   13      0.191D-05      0.192D-06      -228.60568780    441.243482    1.16473    0.57387   -0.00046    9
   14      0.854D-06      0.653D-07      -228.60568780    441.243484    1.16473    0.57387   -0.00046    9
   15      0.276D-06      0.134D-07      -228.60568780    441.243485    1.16473    0.57387   -0.00046    8
   16      0.468D-07      0.425D-08      -228.60568780    441.243484    1.16473    0.57387   -0.00046    8
   17      0.906D-08      0.196D-08      -228.60568780    441.243485    1.16473    0.57387   -0.00046    9
   18      0.428D-08      0.609D-09      -228.60568780    441.243485    1.16473    0.57387   -0.00046    9
   19      0.148D-08      0.202D-09      -228.60568780    441.243485    1.16473    0.57387   -0.00046    9
   20      0.543D-09      0.406D-10      -228.60568780    441.243485    1.16473    0.57387   -0.00046    7
   21      0.117D-09      0.120D-10      -228.60568780    441.243485    1.16473    0.57387   -0.00046    7
   22      0.280D-10      0.651D-11      -228.60568780    441.243485    1.16473    0.57387   -0.00046    7
   23      0.176D-10      0.349D-11      -228.60568780    441.243485    1.16473    0.57387   -0.00046    8
   24      0.123D-10      0.138D-11      -228.60568780    441.243485    1.16473    0.57387   -0.00046    0

 Final occupancy:  18

 !RHF STATE 1.1 Energy               -228.605687797129
 Nuclear energy                       142.23692284
 One-electron energy                 -591.46435306
 Two-electron energy                  220.62174243
 Virial quotient                       -1.00147368
 !RHF STATE 1.1 Dipole moment           1.16472830     0.57386622    -0.00046277
 Dipole moment /Debye                   2.96025015     1.45852690    -0.00117616

 Orbital energies:

         1.1          2.1          3.1          4.1          5.1          6.1          7.1          8.1          9.1         10.1
    -20.568392   -11.368677   -11.272255   -11.261172   -11.253007    -1.403996    -1.070494    -1.015961    -0.860157    -0.732796

        11.1         12.1         13.1         14.1         15.1         16.1         17.1         18.1         19.1         20.1
     -0.684812    -0.637535    -0.614454    -0.571736    -0.517952    -0.445764    -0.417272    -0.414004     0.094409     0.180543


 **********************************************************************************************************************************
 DATASETS  * FILE   NREC   LENGTH (MB)   RECORD NAMES
              1      19       50.43       500      610      700      900      950      970     1000      129      960     1100   
                                          VAR    BASINP    GEOM    SYMINP    ZMAT    AOBASIS   BASIS     P2S    ABASIS      S 
                                         1400     1410     1200     1210     1080     1600     1650     1300     1700   
                                           T        V       H0       H01     AOSYM     SMH    MOLCAS    ERIS     OPER   

              2       3        0.57       700     1000     2100   
                                         GEOM     BASIS     RHF  

 PROGRAMS   *        TOTAL       RHF       INT
 CPU TIMES  *         2.32      1.39      0.88
 REAL TIME  *         2.73 SEC
 DISK USED  *       184.80 MB      
 GA USED    *         0.00 MB       (max)       0.00 MB       (current)
 **********************************************************************************************************************************


1PROGRAM * CCSD (Closed-shell coupled cluster)     Authors: C. Hampel, H.-J. Werner, 1991, M. Deegan, P.J. Knowles, 1992


 Convergence thresholds:  THRVAR = 1.00D-08  THRDEN = 1.00D-12

 CCSD(T)     terms to be evaluated (factor= 1.000)


 Number of core orbitals:           5 (   5 )
 Number of closed-shell orbitals:  13 (  13 )
 Number of external orbitals:      72 (  72 )

 Molecular orbitals read from record     2100.2  Type=RHF/CANONICAL (state 1.1)

 Number of N-1 electron functions:              13
 Number of N-2 electron functions:              91
 Number of singly external CSFs:               936
 Number of doubly external CSFs:            438516
 Total number of CSFs:                      439453

 Length of J-op  integral file:               0.00 MB
 Length of K-op  integral file:               0.59 MB
 Length of 3-ext integral record:             0.00 MB

 Memory could be reduced to 7.27 Mwords without degradation in triples

 Integral transformation finished. Total CPU:   0.30 sec, npass=  1  Memory used:   6.58 MW

 Reference energy:                   -228.60568780

 MP2 singlet pair energy:              -0.43052020
 MP2 triplet pair energy:              -0.26902972
 MP2 correlation energy:               -0.69954992
 MP2 total energy:                   -229.30523772

 SCS-MP2 correlation energy:           -0.68402051   (PS=  1.200000  PT=  0.333333)
 SCS-MP2 total energy:               -229.28970831

 ITER.      SQ.NORM     CORR.ENERGY   TOTAL ENERGY   ENERGY CHANGE        DEN1      VAR(S)    VAR(P)  DIIS     TIME
   1      1.25726086    -0.72722101  -229.33290881    -0.02767109    -0.00370784  0.60D-02  0.55D-02  1  1     1.12
   2      1.28000950    -0.72999392  -229.33568172    -0.00277291    -0.02080640  0.12D-03  0.98D-03  2  2     1.96
   3      1.29066775    -0.73076922  -229.33645701    -0.00077529    -0.00476073  0.11D-03  0.92D-04  3  3     2.79
   4      1.29495062    -0.73073377  -229.33642157     0.00003544    -0.00140769  0.80D-05  0.18D-04  4  4     3.63
   5      1.29680951    -0.73075477  -229.33644257    -0.00002100    -0.00044441  0.16D-05  0.20D-05  5  5     4.47
   6      1.29723418    -0.73075072  -229.33643851     0.00000406    -0.00006263  0.28D-06  0.26D-06  6  6     5.31
   7      1.29732161    -0.73074652  -229.33643432     0.00000419    -0.00000185  0.56D-07  0.30D-07  6  1     6.15
   8      1.29735956    -0.73074750  -229.33643529    -0.00000098    -0.00000946  0.11D-07  0.48D-08  6  2     6.99
   9      1.29736171    -0.73074759  -229.33643539    -0.00000010     0.00000297  0.17D-08  0.83D-09  6  3     7.82
  10      1.29736444    -0.73074732  -229.33643512     0.00000028    -0.00000057  0.33D-09  0.16D-09  6  4     8.67
  11      1.29736425    -0.73074757  -229.33643537    -0.00000025     0.00000057  0.42D-10  0.32D-10  6  5     9.51
  12      1.29736396    -0.73074753  -229.33643532     0.00000004     0.00000015  0.83D-11  0.62D-11  6  6    10.34
  13      1.29736361    -0.73074756  -229.33643535    -0.00000003     0.00000015  0.95D-12  0.16D-11  6  1    11.18
  14      1.29736338    -0.73074756  -229.33643536    -0.00000000     0.00000006  0.29D-12  0.24D-12  6  2    12.02
  15      1.29736327    -0.73074756  -229.33643536    -0.00000000     0.00000003  0.45D-13  0.50D-13  6  3    12.86
  16      1.29736322    -0.73074756  -229.33643536    -0.00000000     0.00000001  0.89D-14  0.10D-13  6  4    13.71
  17      1.29736320    -0.73074756  -229.33643536    -0.00000000     0.00000000  0.29D-14  0.12D-14  6  5    14.54
  18      1.29736320    -0.73074756  -229.33643536    -0.00000000    -0.00000000  0.53D-15  0.27D-15  6  6    15.37
  19      1.29736320    -0.73074756  -229.33643536    -0.00000000    -0.00000000  0.18D-15  0.59D-16  6  1    16.22
  20      1.29736320    -0.73074756  -229.33643536    -0.00000000    -0.00000000  0.74D-16  0.17D-16  6  4    17.06
  21      1.29736320    -0.73074756  -229.33643536    -0.00000000     0.00000000  0.26D-16  0.54D-17  6  2    17.90
  22      1.29736320    -0.73074756  -229.33643536    -0.00000000    -0.00000000  0.52D-17  0.14D-17  6  6    18.74
  23      1.29736320    -0.73074756  -229.33643536     0.00000000     0.00000000  0.14D-17  0.37D-18  6  3    19.58
  24      1.29736320    -0.73074756  -229.33643536    -0.00000000     0.00000000  0.42D-18  0.11D-18  6  5    20.41
  25      1.29736320    -0.73074756  -229.33643536     0.00000000     0.00000000  0.43D-19  0.23D-19  6  4    21.25
  26      1.29736320    -0.73074756  -229.33643536    -0.00000000     0.00000000  0.96D-20  0.42D-20  6  1    22.09
  27      1.29736320    -0.73074756  -229.33643536     0.00000000    -0.00000000  0.10D-20  0.62D-21  6  2    22.93

 Norm of t1 vector:      0.10832697      S-energy:     0.00000000      T1 diagnostic:  0.01502225
                                                                       D1 diagnostic:  0.05033606

 Doubles amplitudes (print threshold =  0.500E-01):

         I         J         SYM. A    SYM. B    A         B      T(IJ, AB)

        10        10         1         1         1         1     -0.05824608
        12        12         1         1         2         2     -0.06271389
        13        13         1         1         1         1     -0.07363121


 Total CPU time for triples:      7.66 sec


 RESULTS
 =======

  Reference energy                   -228.605687797129
  CCSD singlet pair energy             -0.496633355774
  CCSD triplet pair energy             -0.234114206786
  CCSD correlation energy              -0.730747562560

  Triples (T) contribution             -0.028477716646
  Total correlation energy             -0.759225279205

  CCSD total energy                  -229.336435359689
  CCSD[T] energy                     -229.366769417505
  CCSD-T energy                      -229.364210013233
 !CCSD(T) total energy               -229.364913076334

 Timing summary (sec):

 STEP                 CPU(USER)    SYS     CPU(TOT)    WALL
 Transformation          0.32      0.04      0.36      0.37
 CCSD iterations        22.61      0.63     23.24     23.29
 Triples                 7.66      0.19      7.85      7.86

 Program statistics:

 Available memory in ccsd:               999999224
 Min. memory needed in ccsd:               1253983
 Max. memory used in ccsd:                 1626745
 Max. memory used in cckext:               1605212 (27 integral passes)



 **********************************************************************************************************************************
 DATASETS  * FILE   NREC   LENGTH (MB)   RECORD NAMES
              1      20       79.18       500      610      700      900      950      970     1000      129      960     1100   
                                          VAR    BASINP    GEOM    SYMINP    ZMAT    AOBASIS   BASIS     P2S    ABASIS      S 
                                         1400     1410     1200     1210     1080     1600     1650     1300     1700     1380   
                                           T        V       H0       H01     AOSYM     SMH    MOLCAS    ERIS     OPER     JKOP   

              2       3        0.57       700     1000     2100   
                                         GEOM     BASIS     RHF  

 PROGRAMS   *        TOTAL   CCSD(T)       RHF       INT
 CPU TIMES  *        32.92     30.61      1.39      0.88
 REAL TIME  *        34.28 SEC
 DISK USED  *       211.92 MB      
 GA USED    *         0.00 MB       (max)       0.00 MB       (current)
 **********************************************************************************************************************************

        CCSD(T)         RHF-SCF 
   -229.36491308   -228.60568780
 **********************************************************************************************************************************
 Variable memory released
