
 Primary working directories    : /tmp/870712.373.gen6.q
 Secondary working directories  : /tmp/870712.373.gen6.q
 Wavefunction directory         : /home/vulcan/lo21740/wfu/
 Main file repository           : /tmp/870712.373.gen6.q/

 ARCHNAME  : Linux/x86_64
 FC        : /opt/intel/compilers_and_libraries_2016.1.150/linux/bin/intel64/ifort
 FCVERSION : 16.0.1
 BLASLIB   : -mkl
 id        : ccgc

 Nodes     nprocs
 n077         1
 ga_uses_ma=false, calling ma_init with nominal heap.
 GA-space will be limited to   8.0 MW (determined by -G option)

 Using customized tuning parameters: mindgm=10; mindgv=16; mindgc=4; mindgr=1; noblas=0; mincuda=1000; minvec=7
 default implementation of scratch files=df  

 ***,Optimization of formic acid
 memory,1000,m
 gthresh,energy=1.0d-12,orbital=1.0d-10,oneint=1.0d-16,twoint=1.0d-16,optgrad=1.0d-6,compress=1.0d-13
 geomtyp=xyz
 
 bohr
 geometry = {
  C   -3.4966218703   -0.8299516948    0.0000000000
  O   -3.0903375507    1.6239865850   -0.0000000000
  O   -1.8812678391   -2.4809047811    0.0000000000
  H   -5.5247322462   -1.2744418301    0.0000000000
  H   -1.2451050989    1.9534512516   -0.0000000000
  C    3.5017802737    0.8311293987    0.0000000000
  O    3.0921980685   -1.6234288874   -0.0000000000
  O    1.8828612072    2.4810817420    0.0000000000
  H    5.5215747732    1.2737075251    0.0000000000
  H    1.2396502825   -1.9546293090   -0.0000000000
 }
 
 basis=AVTZ
 {rhf;maxit,200}
 {mp2}

 Variables initialized (661), CPU time= 0.01 sec
 Commands  initialized (458), CPU time= 0.00 sec, 486 directives.
 Default parameters read. Elapsed time= 0.05 sec

 Checking input...
 Passed
1


                                         ***  PROGRAM SYSTEM MOLPRO  ***
                         Copyright, University College Cardiff Consultants Limited, 2008

                                    Version 2010.1 linked May 16 2016 07:17:05


 **********************************************************************************************************************************
 LABEL *   Optimization of formic acid                                                   
 Linux-4.4.3/n077(x86_64) 64 bit mpp version                                             DATE: 12-May-23          TIME: 21:08:06  
 **********************************************************************************************************************************

 SHA1:             9e8077add272b0f3cad6f7df79ec5211205f459d
 **********************************************************************************************************************************

 THRESHOLDS:

 ZERO    =  1.00D-12  ONEINT  =  1.00D-16  TWOINT  =  1.00D-16  PREFAC  =  1.00D-14  LOCALI  =  1.00D-09  EORDER  =  1.00D-04
 ENERGY  =  1.00D-12  ETEST   =  0.00D+00  EDENS   =  0.00D+00  THRDEDEF=  1.00D-06  GRADIENT=  1.00D-02  STEP    =  1.00D-03
 ORBITAL =  1.00D-10  CIVEC   =  1.00D-05  COEFF   =  1.00D-04  PRINTCI =  5.00D-02  PUNCHCI =  9.90D+01  OPTGRAD =  1.00D-06
 OPTENERG=  1.00D-06  OPTSTEP =  3.00D-04  THRGRAD =  1.00D-10  COMPRESS=  1.00D-13  VARMIN  =  1.00D-07  VARMAX  =  1.00D-03
 THRDOUB =  0.00D+00  THRDIV  =  1.00D-05  THRRED  =  1.00D-07  THRPSP  =  1.00D+00  THRDC   =  1.00D-10  THRCS   =  1.00D-10
 THRNRM  =  1.00D-08  THREQ   =  0.00D+00  THRDE   =  1.00D+00  THRREF  =  1.00D-05  SPARFAC =  1.00D+00  THRDLP  =  1.00D-07
 THRDIA  =  1.00D-10  THRDLS  =  1.00D-07  THRGPS  =  0.00D+00  THRKEX  =  0.00D+00  THRDIS  =  2.00D-01  THRVAR  =  1.00D-10
 THRLOC  =  1.00D-06  THRGAP  =  1.00D-06  THRLOCT = -1.00D+00  THRGAPT = -1.00D+00  THRORB  =  1.00D-06  THRMLTP =  0.00D+00
 THRCPQCI=  1.00D-10  KEXTA   =  0.00D+00  THRCOARS=  0.00D+00  SYMTOL  =  1.00D-06  GRADTOL =  1.00D-06  THROVL  =  1.00D-08
 THRORTH =  1.00D-08  GRID    =  1.00D-06  GRIDMAX =  1.00D-03  DTMAX   =  0.00D+00

 SETTING GEOMTYP        =    XYZ
 ZUNIT=BOHR
 

 Variable memory set to 1000000000 words,  buffer space   230000 words

 SETTING BASIS          =    AVTZ


 Recomputing integrals since basis changed


 Using spherical harmonics

 Library entry C      S aug-cc-pVTZ          selected for orbital group  1
 Library entry C      P aug-cc-pVTZ          selected for orbital group  1
 Library entry C      D aug-cc-pVTZ          selected for orbital group  1
 Library entry C      F aug-cc-pVTZ          selected for orbital group  1
 Library entry O      S aug-cc-pVTZ          selected for orbital group  2
 Library entry O      P aug-cc-pVTZ          selected for orbital group  2
 Library entry O      D aug-cc-pVTZ          selected for orbital group  2
 Library entry O      F aug-cc-pVTZ          selected for orbital group  2
 Library entry H      S aug-cc-pVTZ          selected for orbital group  3
 Library entry H      P aug-cc-pVTZ          selected for orbital group  3
 Library entry H      D aug-cc-pVTZ          selected for orbital group  3

1PROGRAM * SEWARD (Integral evaluation for generally contracted gaussian basis sets)     Author: Roland Lindh, 1990

 Geometry written to block  1 of record 700


 Point group  Cs  



 ATOMIC COORDINATES

 NR  ATOM    CHARGE       X              Y              Z

   1  C       6.00   -3.496621870   -0.829951695    0.000000000
   2  O       8.00   -3.090337551    1.623986585    0.000000000
   3  O       8.00   -1.881267839   -2.480904781    0.000000000
   4  H       1.00   -5.524732246   -1.274441830    0.000000000
   5  H       1.00   -1.245105099    1.953451252    0.000000000
   6  C       6.00    3.501780274    0.831129399    0.000000000
   7  O       8.00    3.092198069   -1.623428887    0.000000000
   8  O       8.00    1.882861207    2.481081742    0.000000000
   9  H       1.00    5.521574773    1.273707525    0.000000000
  10  H       1.00    1.239650282   -1.954629309    0.000000000

 Bond lengths in Bohr (Angstrom)

 1-2  2.487343971  1-3  2.309765083  1-4  2.076247379  2-5  1.874414513  6-7  2.488496326
     ( 1.316245740)     ( 1.222275040)     ( 1.098702793)     ( 0.991897441)     ( 1.316855540)

  6- 8  2.311545301   6- 9  2.067714975   7-10  1.881921098
       ( 1.223217091)       ( 1.094187640)       ( 0.995869754)

 Bond angles

  1-2-5  109.52428562   2-1-3  126.22358293   2-1-4  111.76261058   3-1-4  122.01380648

  6- 7-10  109.60974146   7- 6- 8  126.07049400   7- 6- 9  111.83276896   8- 6- 9  122.09673704

 NUCLEAR CHARGE:                   48
 NUMBER OF PRIMITIVE AOS:         510
 NUMBER OF SYMMETRY AOS:          448
 NUMBER OF CONTRACTIONS:          368   ( 244A'  + 124A"  )
 NUMBER OF CORE ORBITALS:           6   (   6A'  +   0A"  )
 NUMBER OF VALENCE ORBITALS:       28   (  22A'  +   6A"  )


 NUCLEAR REPULSION ENERGY  235.54843519


 Eigenvalues of metric

         1 0.341E-04 0.376E-04 0.555E-04 0.631E-04 0.145E-03 0.169E-03 0.225E-03 0.231E-03
         2 0.246E-02 0.272E-02 0.346E-02 0.346E-02 0.467E-02 0.570E-02 0.654E-02 0.744E-02


 Contracted 2-electron integrals neglected if value below      1.0D-16
 AO integral compression algorithm  1   Integral accuracy      1.0D-16

     8719.172 MB (compressed) written to integral file ( 85.0%)

     Node minimum: 8719.172 MB, node maximum: 8719.172 MB


 NUMBER OF SORTED TWO-ELECTRON INTEGRALS: 1171698620.     BUFFER LENGTH:  32768
 NUMBER OF SEGMENTS:  37  SEGMENT LENGTH:   31999270      RECORD LENGTH: 524288

 Memory used in sort:      32.56 MW

 SORT1 READ  1282336114. AND WROTE  1129897813. INTEGRALS IN   3252 RECORDS. CPU TIME:    14.33 SEC, REAL TIME:    26.97 SEC
 SORT2 READ  1129897813. AND WROTE  1171698620. INTEGRALS IN  33261 RECORDS. CPU TIME:     7.85 SEC, REAL TIME:    44.09 SEC

 FILE SIZES:   FILE 1:  8329.2 MBYTE,  FILE 4: 13639.9 MBYTE,   TOTAL:  21969.1 MBYTE

 OPERATOR DM      FOR CENTER  0  COORDINATES:    0.000000    0.000000    0.000000


 **********************************************************************************************************************************
 DATASETS  * FILE   NREC   LENGTH (MB)   RECORD NAMES
              1      19     8330.01       500      610      700      900      950      970     1000      129      960     1100   
                                          VAR    BASINP    GEOM    SYMINP    ZMAT    AOBASIS   BASIS     P2S    ABASIS      S 
                                         1400     1410     1200     1210     1080     1600     1650     1300     1700   
                                           T        V       H0       H01     AOSYM     SMH    MOLCAS    ERIS     OPER   

 PROGRAMS   *        TOTAL       INT
 CPU TIMES  *        75.84     75.80
 REAL TIME  *       129.99 SEC
 DISK USED  *        30.69 GB      
 GA USED    *         0.01 MB       (max)       0.00 MB       (current)
 **********************************************************************************************************************************

1PROGRAM * RHF-SCF (CLOSED SHELL)       Authors: W. Meyer, H.-J. Werner


 NUMBER OF ELECTRONS:      24+   24-
 CONVERGENCE THRESHOLDS:    1.00E-10 (Density)    1.00E-13 (Energy)
 MAX. NUMBER OF ITERATIONS:      200
 INTERPOLATION TYPE:            DIIS
 INTERPOLATION STEPS:              2 (START)      1 (STEP)
 LEVEL SHIFTS:                  0.00 (CLOSED)  0.00 (OPEN) 



 Orbital guess generated from atomic densities. Full valence occupancy:   28   6

 Molecular orbital dump at record        2100.2

 Initial alpha occupancy:  20   4
 Initial beta  occupancy:  20   4
 Wave function symmetry:    1

 ITERATION    DDIFF          GRAD             ENERGY        2-EL.EN.            DIPOLE MOMENTS         DIIS
    1      0.000D+00      0.000D+00      -377.56623635    747.074757   -0.00319   -0.00230    0.00000    0
    2      0.000D+00      0.433D-02      -377.65425670    743.972236   -0.00570   -0.00084    0.00000    1
    3      0.707D-02      0.284D-02      -377.70427404    746.333528   -0.00337   -0.00129    0.00000    2
    4      0.277D-02      0.381D-03      -377.70585752    745.976417   -0.00338   -0.00085    0.00000    3
    5      0.572D-03      0.168D-03      -377.70614302    746.017459   -0.00309   -0.00099    0.00000    4
    6      0.222D-03      0.482D-04      -377.70619045    746.063254   -0.00309   -0.00088    0.00000    5
    7      0.833D-04      0.207D-04      -377.70620140    746.044250   -0.00305   -0.00090    0.00000    6
    8      0.451D-04      0.677D-05      -377.70620278    746.050528   -0.00305   -0.00087    0.00000    7
    9      0.175D-04      0.221D-05      -377.70620291    746.049145   -0.00304   -0.00089    0.00000    8
   10      0.545D-05      0.649D-06      -377.70620292    746.049333   -0.00305   -0.00087    0.00000    8
   11      0.177D-05      0.214D-06      -377.70620292    746.049307   -0.00304   -0.00089    0.00000    8
   12      0.552D-06      0.789D-07      -377.70620292    746.049300   -0.00305   -0.00087    0.00000    8
   13      0.127D-06      0.346D-07      -377.70620292    746.049290   -0.00305   -0.00088    0.00000    9
   14      0.495D-07      0.937D-08      -377.70620292    746.049293   -0.00305   -0.00088    0.00000    8
   15      0.181D-07      0.282D-08      -377.70620292    746.049294   -0.00305   -0.00088    0.00000    8
   16      0.521D-08      0.828D-09      -377.70620292    746.049293   -0.00305   -0.00088    0.00000    8
   17      0.143D-08      0.362D-09      -377.70620292    746.049293   -0.00305   -0.00088    0.00000    8
   18      0.564D-09      0.110D-09      -377.70620292    746.049293   -0.00305   -0.00088    0.00000    8
   19      0.207D-09      0.520D-10      -377.70620292    746.049293   -0.00305   -0.00088    0.00000    8
   20      0.113D-09      0.187D-10      -377.70620292    746.049293   -0.00305   -0.00088    0.00000    8
   21      0.481D-10      0.713D-11      -377.70620292    746.049293   -0.00305   -0.00088    0.00000    8
   22      0.299D-10      0.353D-11      -377.70620292    746.049293   -0.00305   -0.00088    0.00000    9
   23      0.207D-10      0.114D-11      -377.70620292    746.049293   -0.00305   -0.00088    0.00000    9
   24      0.175D-10      0.507D-12      -377.70620292    746.049293   -0.00305   -0.00088    0.00000    9
   25      0.145D-10      0.352D-12      -377.70620292    746.049293   -0.00305   -0.00088    0.00000    9
   26      0.131D-10      0.269D-12      -377.70620292    746.049293   -0.00305   -0.00088    0.00000    9
   27      0.778D-11      0.297D-12      -377.70620292    746.049293   -0.00305   -0.00088    0.00000    9
   28      0.738D-11      0.268D-12      -377.70620292    746.049293   -0.00305   -0.00088    0.00000    9
   29      0.360D-11      0.229D-12      -377.70620292    746.049293   -0.00305   -0.00088    0.00000    9
   30      0.344D-11      0.201D-12      -377.70620292    746.049293   -0.00305   -0.00088    0.00000    9
   31      0.260D-11      0.201D-12      -377.70620292    746.049293   -0.00305   -0.00088    0.00000    9
   32      0.286D-11      0.269D-12      -377.70620292    746.049293   -0.00305   -0.00088    0.00000    0

 Final occupancy:  20   4

 !RHF STATE 1.1 Energy               -377.706202922132
 Nuclear energy                       235.54843519
 One-electron energy                 -986.27928461
 Two-electron energy                  373.02464650
 Virial quotient                       -1.00185322
 !RHF STATE 1.1 Dipole moment          -0.00304550    -0.00087955     0.00000000
 Dipole moment /Debye                  -0.00774038    -0.00223543     0.00000000

 Orbital energies:

         1.1          2.1          3.1          4.1          5.1          6.1          7.1          8.1          9.1         10.1
    -20.617761   -20.617293   -20.577626   -20.576998   -11.409964   -11.409308    -1.485487    -1.472554    -1.387455    -1.373251

        11.1         12.1         13.1         14.1         15.1         16.1         17.1         18.1         19.1         20.1
     -0.919623    -0.883800    -0.769546    -0.733399    -0.724594    -0.695753    -0.621866    -0.581337    -0.498387    -0.475776

        21.1         22.1
      0.029624     0.033614

         1.2          2.2          3.2          4.2          5.2          6.2
     -0.645345    -0.634858    -0.507364    -0.495652     0.066550     0.082357


 **********************************************************************************************************************************
 DATASETS  * FILE   NREC   LENGTH (MB)   RECORD NAMES
              1      19     8330.01       500      610      700      900      950      970     1000      129      960     1100   
                                          VAR    BASINP    GEOM    SYMINP    ZMAT    AOBASIS   BASIS     P2S    ABASIS      S 
                                         1400     1410     1200     1210     1080     1600     1650     1300     1700   
                                           T        V       H0       H01     AOSYM     SMH    MOLCAS    ERIS     OPER   

              2       3        1.97       700     1000     2100   
                                         GEOM     BASIS     RHF  

 PROGRAMS   *        TOTAL       RHF       INT
 CPU TIMES  *       257.03    181.18     75.80
 REAL TIME  *       335.00 SEC
 DISK USED  *        30.69 GB      
 GA USED    *         0.01 MB       (max)       0.00 MB       (current)
 **********************************************************************************************************************************


1PROGRAM * MP2 (Closed-shell)     Authors: C. Hampel, H.-J. Werner, 1991, M. Deegan, P.J. Knowles, 1992


 Convergence thresholds:  THRVAR = 1.00D-08  THRDEN = 1.00D-12

 Number of core orbitals:           6 (   6   0 )
 Number of closed-shell orbitals:  18 (  14   4 )
 Number of external orbitals:     344 ( 224 120 )

 Molecular orbitals read from record     2100.2  Type=RHF/CANONICAL (state 1.1)

 Number of N-1 electron functions:              18
 Number of N-2 electron functions:             171
 Number of singly external CSFs:              3616
 Number of doubly external CSFs:           9858712
 Total number of CSFs:                     9862329

 Length of J-op  integral file:               0.00 MB
 Length of K-op  integral file:               5.20 MB

 Integral transformation finished. Total CPU:  12.10 sec, npass=  1  Memory used:  13.03 MW

 Memory needed for MP2:                      0.37 MW

 SCS-MP2 correlation energy:           -1.264013459258   (PS=  1.200000  PT=  0.333333)
 SCS-MP2 total energy:               -378.970216381391


  Reference energy                   -377.706202922134
  MP2 singlet pair energy              -0.794232018708
  MP2 triplet pair energy              -0.499717023442
  MP2 correlation energy               -1.293949042150

 !MP2 total energy                   -379.000151964283


 **********************************************************************************************************************************
 DATASETS  * FILE   NREC   LENGTH (MB)   RECORD NAMES
              1      20     8476.16       500      610      700      900      950      970     1000      129      960     1100   
                                          VAR    BASINP    GEOM    SYMINP    ZMAT    AOBASIS   BASIS     P2S    ABASIS      S 
                                         1400     1410     1200     1210     1080     1600     1650     1300     1700     1380   
                                           T        V       H0       H01     AOSYM     SMH    MOLCAS    ERIS     OPER     JKOP   

              2       3        1.97       700     1000     2100   
                                         GEOM     BASIS     RHF  

 PROGRAMS   *        TOTAL       MP2       RHF       INT
 CPU TIMES  *       269.64     12.62    181.18     75.80
 REAL TIME  *       348.61 SEC
 DISK USED  *        30.69 GB      
 GA USED    *         0.01 MB       (max)       0.00 MB       (current)
 **********************************************************************************************************************************

        MP2             RHF-SCF 
   -379.00015196   -377.70620292
 **********************************************************************************************************************************
 Variable memory released
