
 Primary working directories    : /tmp/1049502.788.gen4.q
 Secondary working directories  : /tmp/1049502.788.gen4.q
 Wavefunction directory         : /home/vulcan/jj04645/wfu/
 Main file repository           : /tmp/1049502.788.gen4.q/

 ARCHNAME  : Linux/x86_64
 FC        : /opt/intel/compilers_and_libraries_2016.1.150/linux/bin/intel64/ifort
 FCVERSION : 16.0.1
 BLASLIB   : -mkl
 id        : ccgc

 Nodes     nprocs
 n067         1
 ga_uses_ma=false, calling ma_init with nominal heap.
 GA-space will be limited to   8.0 MW (determined by -G option)

 Using customized tuning parameters: mindgm=10; mindgv=16; mindgc=4; mindgr=1; noblas=0; mincuda=1000; minvec=7
 default implementation of scratch files=df  

 ***,Optimization of neopentane
 memory,1000,m
 gthresh,energy=1.0d-12,orbital=1.0d-10,oneint=1.0d-16,twoint=1.0d-16,optgrad=1.0d-6,compress=1.0d-13
 geomtyp=xyz
 
 bohr
 geometry = {
  C    0.0007762059   -0.0007762059   -0.0000000000
  C    2.3662180729   -0.0007762059   -1.6726199847
  C    0.0007762059   -2.3662180729    1.6726199847
  C    0.0007762059    2.3646656611    1.6726199847
  C   -2.3646656611   -0.0007762059   -1.6726199847
  H    2.4097147492    1.6753919185   -2.8886066266
  H   -1.6753919185   -2.4097147492    2.8886066266
  H    1.6703367792    2.4079908717    2.8838131378
  H   -2.4079908717   -1.6703367792   -2.8838131378
  H    4.0807949177    0.0041785207   -0.5215653441
  H   -0.0041785207   -4.0807949177    0.5215653441
  H    0.0057407260    4.0826320070    0.5192898544
  H   -4.0826320070   -0.0057407260   -0.5192898544
  H    2.4071105901   -1.6695058068   -2.8885124191
  H    1.6695058068   -2.4071105901    2.8885124191
  H   -1.6712522630    2.4056390179    2.8909160834
  H   -2.4056390179    1.6712522630   -2.8909160834
 }
 
 basis=VDZ
 {rhf;maxit,200}
 {ccsd(t);maxit,200}

 Variables initialized (661), CPU time= 0.00 sec
 Commands  initialized (458), CPU time= 0.00 sec, 486 directives.
 Default parameters read. Elapsed time= 0.04 sec

 Checking input...
 Passed
1


                                         ***  PROGRAM SYSTEM MOLPRO  ***
                         Copyright, University College Cardiff Consultants Limited, 2008

                                    Version 2010.1 linked May 16 2016 07:17:05


 **********************************************************************************************************************************
 LABEL *   Optimization of neopentane                                                    
 Linux-4.4.3/n067(x86_64) 64 bit mpp version                                             DATE: 30-Mar-24          TIME: 22:04:06  
 **********************************************************************************************************************************

 SHA1:             9e8077add272b0f3cad6f7df79ec5211205f459d
 **********************************************************************************************************************************

 THRESHOLDS:

 ZERO    =  1.00D-12  ONEINT  =  1.00D-16  TWOINT  =  1.00D-16  PREFAC  =  1.00D-14  LOCALI  =  1.00D-09  EORDER  =  1.00D-04
 ENERGY  =  1.00D-12  ETEST   =  0.00D+00  EDENS   =  0.00D+00  THRDEDEF=  1.00D-06  GRADIENT=  1.00D-02  STEP    =  1.00D-03
 ORBITAL =  1.00D-10  CIVEC   =  1.00D-05  COEFF   =  1.00D-04  PRINTCI =  5.00D-02  PUNCHCI =  9.90D+01  OPTGRAD =  1.00D-06
 OPTENERG=  1.00D-06  OPTSTEP =  3.00D-04  THRGRAD =  1.00D-10  COMPRESS=  1.00D-13  VARMIN  =  1.00D-07  VARMAX  =  1.00D-03
 THRDOUB =  0.00D+00  THRDIV  =  1.00D-05  THRRED  =  1.00D-07  THRPSP  =  1.00D+00  THRDC   =  1.00D-10  THRCS   =  1.00D-10
 THRNRM  =  1.00D-08  THREQ   =  0.00D+00  THRDE   =  1.00D+00  THRREF  =  1.00D-05  SPARFAC =  1.00D+00  THRDLP  =  1.00D-07
 THRDIA  =  1.00D-10  THRDLS  =  1.00D-07  THRGPS  =  0.00D+00  THRKEX  =  0.00D+00  THRDIS  =  2.00D-01  THRVAR  =  1.00D-10
 THRLOC  =  1.00D-06  THRGAP  =  1.00D-06  THRLOCT = -1.00D+00  THRGAPT = -1.00D+00  THRORB  =  1.00D-06  THRMLTP =  0.00D+00
 THRCPQCI=  1.00D-10  KEXTA   =  0.00D+00  THRCOARS=  0.00D+00  SYMTOL  =  1.00D-06  GRADTOL =  1.00D-06  THROVL  =  1.00D-08
 THRORTH =  1.00D-08  GRID    =  1.00D-06  GRIDMAX =  1.00D-03  DTMAX   =  0.00D+00

 SETTING GEOMTYP        =    XYZ
 ZUNIT=BOHR
 

 Variable memory set to 1000000000 words,  buffer space   230000 words

 SETTING BASIS          =    VDZ


 Recomputing integrals since basis changed


 Using spherical harmonics

 Library entry C      S cc-pVDZ              selected for orbital group  1
 Library entry C      P cc-pVDZ              selected for orbital group  1
 Library entry C      D cc-pVDZ              selected for orbital group  1
 Library entry H      S cc-pVDZ              selected for orbital group  2
 Library entry H      P cc-pVDZ              selected for orbital group  2

1PROGRAM * SEWARD (Integral evaluation for generally contracted gaussian basis sets)     Author: Roland Lindh, 1990

 Geometry written to block  1 of record 700


 Point group  C1  



 ATOMIC COORDINATES

 NR  ATOM    CHARGE       X              Y              Z

   1  C       6.00    0.000776206   -0.000776206    0.000000000
   2  C       6.00    2.366218073   -0.000776206   -1.672619985
   3  C       6.00    0.000776206   -2.366218073    1.672619985
   4  C       6.00    0.000776206    2.364665661    1.672619985
   5  C       6.00   -2.364665661   -0.000776206   -1.672619985
   6  H       1.00    2.409714749    1.675391918   -2.888606627
   7  H       1.00   -1.675391918   -2.409714749    2.888606627
   8  H       1.00    1.670336779    2.407990872    2.883813138
   9  H       1.00   -2.407990872   -1.670336779   -2.883813138
  10  H       1.00    4.080794918    0.004178521   -0.521565344
  11  H       1.00   -0.004178521   -4.080794918    0.521565344
  12  H       1.00    0.005740726    4.082632007    0.519289854
  13  H       1.00   -4.082632007   -0.005740726   -0.519289854
  14  H       1.00    2.407110590   -1.669505807   -2.888512419
  15  H       1.00    1.669505807   -2.407110590    2.888512419
  16  H       1.00   -1.671252263    2.405639018    2.890916083
  17  H       1.00   -2.405639018    1.671252263   -2.890916083

 Bond lengths in Bohr (Angstrom)

 1-2  2.897062795  1-3  2.897062795  1-4  2.897062795  1-5  2.897062795  2-6  2.071244808
     ( 1.533059604)     ( 1.533059604)     ( 1.533059604)     ( 1.533059604)     ( 1.096055547)

  2-10  2.065121084   2-14  2.065121084   3- 7  2.071244808   3-11  2.065121084   3-15  2.065121084
       ( 1.092815011)       ( 1.092815011)       ( 1.096055547)       ( 1.092815011)       ( 1.092815011)

  4- 8  2.063079842   4-12  2.069203567   4-16  2.069203567   5- 9  2.063079842   5-13  2.069203567
       ( 1.091734833)       ( 1.094975368)       ( 1.094975368)       ( 1.091734833)       ( 1.094975368)

  5-17  2.069203567
       ( 1.094975368)

 Bond angles

  1- 2- 6  110.86072275   1- 2-10  110.86072172   1- 2-14  110.86072171   1- 3- 7  110.86072275

  1- 3-11  110.86072172   1- 3-15  110.86072171   1- 4- 8  110.86072277   1- 4-12  110.86072170

  1- 4-16  110.86072170   1- 5- 9  110.86072277   1- 5-13  110.86072170   1- 5-17  110.86072170

  2-1-3  109.47122064   2-1-4  109.47122064   2-1-5  109.47122063   3-1-4  109.47122063

  3- 1- 5  109.47122064   4- 1- 5  109.47122064   6- 2-10  107.92963817   6- 2-14  107.92963817

  7- 3-11  107.92963817   7- 3-15  107.92963817   8- 4-12  107.92963819   8- 4-16  107.92963820

  9- 5-13  107.92963819   9- 5-17  107.92963820  10- 2-14  108.28049977  11- 3-15  108.28049977

 12- 4-16  108.28049972  13- 5-17  108.28049972

 NUCLEAR CHARGE:                   42
 NUMBER OF PRIMITIVE AOS:         219
 NUMBER OF SYMMETRY AOS:          214
 NUMBER OF CONTRACTIONS:          130   ( 130A   )
 NUMBER OF CORE ORBITALS:           5   (   5A   )
 NUMBER OF VALENCE ORBITALS:       32   (  32A   )


 NUCLEAR REPULSION ENERGY  198.59915032


 Eigenvalues of metric

         1 0.280E-02 0.503E-02 0.503E-02 0.504E-02 0.171E-01 0.189E-01 0.189E-01 0.189E-01


 Contracted 2-electron integrals neglected if value below      1.0D-16
 AO integral compression algorithm  1   Integral accuracy      1.0D-16

     298.844 MB (compressed) written to integral file ( 95.9%)

     Node minimum: 298.844 MB, node maximum: 298.844 MB


 NUMBER OF SORTED TWO-ELECTRON INTEGRALS:   36256870.     BUFFER LENGTH:  32768
 NUMBER OF SEGMENTS:   3  SEGMENT LENGTH:   15998004      RECORD LENGTH: 524288

 Memory used in sort:      16.56 MW

 SORT1 READ    38982726. AND WROTE    35763931. INTEGRALS IN    104 RECORDS. CPU TIME:     0.39 SEC, REAL TIME:     0.60 SEC
 SORT2 READ    35763931. AND WROTE    36256870. INTEGRALS IN   1140 RECORDS. CPU TIME:     0.28 SEC, REAL TIME:     0.45 SEC

 FILE SIZES:   FILE 1:   280.3 MBYTE,  FILE 4:   436.2 MBYTE,   TOTAL:    716.5 MBYTE

 OPERATOR DM      FOR CENTER  0  COORDINATES:    0.000000    0.000000    0.000000


 **********************************************************************************************************************************
 DATASETS  * FILE   NREC   LENGTH (MB)   RECORD NAMES
              1      19      280.50       500      610      700      900      950      970     1000      129      960     1100   
                                          VAR    BASINP    GEOM    SYMINP    ZMAT    AOBASIS   BASIS     P2S    ABASIS      S 
                                         1400     1410     1200     1210     1080     1600     1650     1300     1700   
                                           T        V       H0       H01     AOSYM     SMH    MOLCAS    ERIS     OPER   

 PROGRAMS   *        TOTAL       INT
 CPU TIMES  *         4.23      4.18
 REAL TIME  *         4.92 SEC
 DISK USED  *         1.02 GB      
 GA USED    *         0.01 MB       (max)       0.00 MB       (current)
 **********************************************************************************************************************************

1PROGRAM * RHF-SCF (CLOSED SHELL)       Authors: W. Meyer, H.-J. Werner


 NUMBER OF ELECTRONS:      21+   21-    SPACE SYMMETRY=1    SPIN SYMMETRY: Singlet 
 CONVERGENCE THRESHOLDS:    1.00E-10 (Density)    1.00E-13 (Energy)
 MAX. NUMBER OF ITERATIONS:      200
 INTERPOLATION TYPE:            DIIS
 INTERPOLATION STEPS:              2 (START)      1 (STEP)
 LEVEL SHIFTS:                  0.00 (CLOSED)  0.00 (OPEN) 



 Orbital guess generated from atomic densities. Full valence occupancy:   37

 Molecular orbital dump at record        2100.2

 ITERATION    DDIFF          GRAD             ENERGY        2-EL.EN.            DIPOLE MOMENTS         DIIS
    1      0.000D+00      0.000D+00      -196.27088026    527.677242   -0.00258    0.00258    0.00000    0
    2      0.000D+00      0.467D-02      -196.33873961    521.943714    0.00260   -0.00260    0.00000    1
    3      0.930D-02      0.177D-02      -196.34653015    524.513829    0.00190   -0.00190    0.00000    2
    4      0.346D-02      0.571D-03      -196.34767691    523.812499    0.00240   -0.00240    0.00000    3
    5      0.114D-02      0.118D-03      -196.34771150    523.879012    0.00243   -0.00243    0.00000    4
    6      0.198D-03      0.238D-04      -196.34771317    523.875254    0.00244   -0.00244   -0.00000    5
    7      0.659D-04      0.226D-05      -196.34771320    523.875020    0.00244   -0.00244   -0.00000    6
    8      0.684D-05      0.488D-06      -196.34771320    523.874978    0.00244   -0.00244   -0.00000    6
    9      0.138D-05      0.703D-07      -196.34771320    523.874970    0.00244   -0.00244    0.00000    5
   10      0.244D-06      0.947D-08      -196.34771320    523.874979    0.00244   -0.00244   -0.00000    5
   11      0.316D-07      0.295D-08      -196.34771320    523.874975    0.00244   -0.00244   -0.00000    5
   12      0.607D-08      0.105D-08      -196.34771320    523.874976    0.00244   -0.00244   -0.00000    6
   13      0.216D-08      0.838D-10      -196.34771320    523.874976    0.00244   -0.00244    0.00000    6
   14      0.177D-09      0.231D-10      -196.34771320    523.874976    0.00244   -0.00244    0.00000    6
   15      0.570D-10      0.736D-11      -196.34771320    523.874976    0.00244   -0.00244    0.00000    0

 Final occupancy:  21

 !RHF STATE 1.1 Energy               -196.347713198426
 Nuclear energy                       198.59915032
 One-electron energy                 -656.88435145
 Two-electron energy                  261.93748792
 Virial quotient                       -1.00118110
 !RHF STATE 1.1 Dipole moment           0.00244390    -0.00244390     0.00000000
 Dipole moment /Debye                   0.00621136    -0.00621136     0.00000000

 Orbital energies:

         1.1          2.1          3.1          4.1          5.1          6.1          7.1          8.1          9.1         10.1
    -11.230714   -11.214150   -11.214132   -11.214057   -11.214028    -1.103748    -0.927639    -0.927584    -0.927465    -0.728614

        11.1         12.1         13.1         14.1         15.1         16.1         17.1         18.1         19.1         20.1
     -0.609213    -0.609048    -0.608969    -0.551006    -0.549965    -0.508277    -0.507911    -0.507170    -0.450580    -0.450319

        21.1         22.1         23.1
     -0.450098     0.170675     0.231045


 **********************************************************************************************************************************
 DATASETS  * FILE   NREC   LENGTH (MB)   RECORD NAMES
              1      19      280.50       500      610      700      900      950      970     1000      129      960     1100   
                                          VAR    BASINP    GEOM    SYMINP    ZMAT    AOBASIS   BASIS     P2S    ABASIS      S 
                                         1400     1410     1200     1210     1080     1600     1650     1300     1700   
                                           T        V       H0       H01     AOSYM     SMH    MOLCAS    ERIS     OPER   

              2       3        0.89       700     1000     2100   
                                         GEOM     BASIS     RHF  

 PROGRAMS   *        TOTAL       RHF       INT
 CPU TIMES  *         8.39      4.16      4.18
 REAL TIME  *         9.60 SEC
 DISK USED  *         1.02 GB      
 GA USED    *         0.01 MB       (max)       0.00 MB       (current)
 **********************************************************************************************************************************


1PROGRAM * CCSD (Closed-shell coupled cluster)     Authors: C. Hampel, H.-J. Werner, 1991, M. Deegan, P.J. Knowles, 1992


 Convergence thresholds:  THRVAR = 1.00D-08  THRDEN = 1.00D-12

 CCSD(T)     terms to be evaluated (factor= 1.000)


 Number of core orbitals:           5 (   5 )
 Number of closed-shell orbitals:  16 (  16 )
 Number of external orbitals:     109 ( 109 )

 Molecular orbitals read from record     2100.2  Type=RHF/CANONICAL (state 1.1)

 Number of N-1 electron functions:              16
 Number of N-2 electron functions:             136
 Number of singly external CSFs:              1744
 Number of doubly external CSFs:           1521640
 Total number of CSFs:                     1523385

 Length of J-op  integral file:               0.00 MB
 Length of K-op  integral file:               1.20 MB
 Length of 3-ext integral record:             0.00 MB

 Memory could be reduced to 28.13 Mwords without degradation in triples

 Integral transformation finished. Total CPU:   1.88 sec, npass=  1  Memory used:  22.98 MW

 Reference energy:                   -196.34771320

 MP2 singlet pair energy:              -0.48845274
 MP2 triplet pair energy:              -0.25007753
 MP2 correlation energy:               -0.73853027
 MP2 total energy:                   -197.08624347

 SCS-MP2 correlation energy:           -0.74174708   (PS=  1.200000  PT=  0.333333)
 SCS-MP2 total energy:               -197.08946028

 ITER.      SQ.NORM     CORR.ENERGY   TOTAL ENERGY   ENERGY CHANGE        DEN1      VAR(S)    VAR(P)  DIIS     TIME
   1      1.28821650    -0.80655560  -197.15426880    -0.06802533    -0.04667771  0.17D-02  0.47D-02  1  1     6.92
   2      1.31153069    -0.81148910  -197.15920230    -0.00493350    -0.02353922  0.47D-04  0.32D-03  2  2    12.03
   3      1.31554004    -0.81163896  -197.15935216    -0.00014986    -0.00243439  0.53D-05  0.22D-04  3  3    17.14
   4      1.31658414    -0.81170124  -197.15941444    -0.00006228    -0.00046365  0.25D-06  0.12D-05  4  4    22.26
   5      1.31671009    -0.81170562  -197.15941882    -0.00000438    -0.00005129  0.15D-07  0.93D-07  5  5    27.41
   6      1.31672255    -0.81170320  -197.15941640     0.00000242    -0.00000846  0.68D-09  0.61D-08  6  6    32.52
   7      1.31672112    -0.81170348  -197.15941667    -0.00000028     0.00000063  0.16D-09  0.52D-09  6  1    37.66
   8      1.31672083    -0.81170362  -197.15941682    -0.00000015     0.00000027  0.78D-11  0.30D-10  6  2    42.80
   9      1.31672054    -0.81170367  -197.15941687    -0.00000005     0.00000025  0.11D-11  0.25D-11  6  3    47.94
  10      1.31672043    -0.81170368  -197.15941688    -0.00000001     0.00000009  0.89D-13  0.22D-12  6  4    53.07
  11      1.31672037    -0.81170368  -197.15941688    -0.00000000     0.00000004  0.95D-14  0.24D-13  6  5    58.20
  12      1.31672034    -0.81170368  -197.15941688    -0.00000000     0.00000002  0.90D-15  0.12D-14  6  1    63.33
  13      1.31672033    -0.81170368  -197.15941688    -0.00000000     0.00000000  0.79D-16  0.70D-16  6  6    68.47
  14      1.31672033    -0.81170368  -197.15941688    -0.00000000     0.00000000  0.15D-16  0.96D-17  6  2    73.58
  15      1.31672033    -0.81170368  -197.15941688    -0.00000000     0.00000000  0.13D-17  0.11D-17  6  3    78.72
  16      1.31672033    -0.81170368  -197.15941688     0.00000000    -0.00000000  0.69D-19  0.91D-19  6  4    83.84
  17      1.31672033    -0.81170368  -197.15941688     0.00000000    -0.00000000  0.34D-20  0.85D-20  6  5    88.98
  18      1.31672033    -0.81170368  -197.15941688     0.00000000    -0.00000000  0.38D-21  0.12D-20  6  1    94.11
  19      1.31672033    -0.81170368  -197.15941688     0.00000000    -0.00000000  0.30D-22  0.16D-21  6  6    99.24

 Norm of t1 vector:      0.05469802      S-energy:    -0.00000000      T1 diagnostic:  0.00683725
                                                                       D1 diagnostic:  0.01260495


 Total CPU time for triples:     80.93 sec


 RESULTS
 =======

  Reference energy                   -196.347713198426
  CCSD singlet pair energy             -0.577587632157
  CCSD triplet pair energy             -0.234116050994
  CCSD correlation energy              -0.811703683153

  Triples (T) contribution             -0.023942395752
  Total correlation energy             -0.835646078905

  CCSD total energy                  -197.159416881579
  CCSD[T] energy                     -197.183818620935
  CCSD-T energy                      -197.183110615217
 !CCSD(T) total energy               -197.183359277331

 Timing summary (sec):

 STEP                 CPU(USER)    SYS     CPU(TOT)    WALL
 Transformation          1.96      0.18      2.14      2.14
 CCSD iterations        97.29      2.08     99.37     99.47
 Triples                80.93      1.60     82.53     82.54

 Program statistics:

 Available memory in ccsd:               999998876
 Min. memory needed in ccsd:               3966807
 Max. memory used in ccsd:                 5311887
 Max. memory used in cckext:               4858018 (19 integral passes)



 **********************************************************************************************************************************
 DATASETS  * FILE   NREC   LENGTH (MB)   RECORD NAMES
              1      20      392.21       500      610      700      900      950      970     1000      129      960     1100   
                                          VAR    BASINP    GEOM    SYMINP    ZMAT    AOBASIS   BASIS     P2S    ABASIS      S 
                                         1400     1410     1200     1210     1080     1600     1650     1300     1700     1380   
                                           T        V       H0       H01     AOSYM     SMH    MOLCAS    ERIS     OPER     JKOP   

              2       3        0.89       700     1000     2100   
                                         GEOM     BASIS     RHF  

 PROGRAMS   *        TOTAL   CCSD(T)       RHF       INT
 CPU TIMES  *       188.58    180.19      4.16      4.18
 REAL TIME  *       193.80 SEC
 DISK USED  *         1.02 GB      
 GA USED    *         0.01 MB       (max)       0.00 MB       (current)
 **********************************************************************************************************************************

        CCSD(T)         RHF-SCF 
   -197.18335928   -196.34771320
 **********************************************************************************************************************************
 Variable memory released
