
 Primary working directories    : /tmp/984724.38.gen6.q
 Secondary working directories  : /tmp/984724.38.gen6.q
 Wavefunction directory         : /home/vulcan/mel64643/wfu/
 Main file repository           : /tmp/984724.38.gen6.q/

 ARCHNAME  : Linux/x86_64
 FC        : /opt/intel/compilers_and_libraries_2016.1.150/linux/bin/intel64/ifort
 FCVERSION : 16.0.1
 BLASLIB   : -mkl
 id        : ccgc

 Nodes     nprocs
 n087         1
 ga_uses_ma=false, calling ma_init with nominal heap.
 GA-space will be limited to   8.0 MW (determined by -G option)

 Using customized tuning parameters: mindgm=10; mindgv=16; mindgc=4; mindgr=1; noblas=0; mincuda=1000; minvec=7
 default implementation of scratch files=df  

 ***,Optimization of formic acid
 memory,1000,m
 gthresh,energy=1.0d-12,orbital=1.0d-10,oneint=1.0d-16,twoint=1.0d-16,optgrad=1.0d-6,compress=1.0d-13
 geomtyp=xyz
 
 
 
 bohr
 geometry = {
  C   -3.5039871953   -0.8322282024    0.0010861370
  O   -3.0972308132    1.6211413641    0.0051002323
  O   -1.8891020172   -2.4830083210    0.0021772124
  H   -5.5233127637   -1.2744255161   -0.0035446980
  H   -1.2380599367    1.9533827616   -0.0033189365
  C    3.5039871953    0.8322282024   -0.0010861370
  O    3.0972308132   -1.6211413641   -0.0051002323
  O    1.8891020172    2.4830083210   -0.0021772124
  H    5.5233127637    1.2744255161    0.0035446980
  H    1.2380599367   -1.9533827616    0.0033189365
 }
 
 basis=AVDZ, H=VDZ
 {rhf;maxit,200}
 {ccsd(t);maxit,200}

 Variables initialized (661), CPU time= 0.00 sec
 Commands  initialized (458), CPU time= 0.01 sec, 486 directives.
 Default parameters read. Elapsed time= 0.03 sec

 Checking input...
 Passed
1


                                         ***  PROGRAM SYSTEM MOLPRO  ***
                         Copyright, University College Cardiff Consultants Limited, 2008

                                    Version 2010.1 linked May 16 2016 07:17:05


 **********************************************************************************************************************************
 LABEL *   Optimization of formic acid                                                   
 Linux-4.4.3/n087(x86_64) 64 bit mpp version                                             DATE: 22-Jan-24          TIME: 15:27:29  
 **********************************************************************************************************************************

 SHA1:             9e8077add272b0f3cad6f7df79ec5211205f459d
 **********************************************************************************************************************************

 THRESHOLDS:

 ZERO    =  1.00D-12  ONEINT  =  1.00D-16  TWOINT  =  1.00D-16  PREFAC  =  1.00D-14  LOCALI  =  1.00D-09  EORDER  =  1.00D-04
 ENERGY  =  1.00D-12  ETEST   =  0.00D+00  EDENS   =  0.00D+00  THRDEDEF=  1.00D-06  GRADIENT=  1.00D-02  STEP    =  1.00D-03
 ORBITAL =  1.00D-10  CIVEC   =  1.00D-05  COEFF   =  1.00D-04  PRINTCI =  5.00D-02  PUNCHCI =  9.90D+01  OPTGRAD =  1.00D-06
 OPTENERG=  1.00D-06  OPTSTEP =  3.00D-04  THRGRAD =  1.00D-10  COMPRESS=  1.00D-13  VARMIN  =  1.00D-07  VARMAX  =  1.00D-03
 THRDOUB =  0.00D+00  THRDIV  =  1.00D-05  THRRED  =  1.00D-07  THRPSP  =  1.00D+00  THRDC   =  1.00D-10  THRCS   =  1.00D-10
 THRNRM  =  1.00D-08  THREQ   =  0.00D+00  THRDE   =  1.00D+00  THRREF  =  1.00D-05  SPARFAC =  1.00D+00  THRDLP  =  1.00D-07
 THRDIA  =  1.00D-10  THRDLS  =  1.00D-07  THRGPS  =  0.00D+00  THRKEX  =  0.00D+00  THRDIS  =  2.00D-01  THRVAR  =  1.00D-10
 THRLOC  =  1.00D-06  THRGAP  =  1.00D-06  THRLOCT = -1.00D+00  THRGAPT = -1.00D+00  THRORB  =  1.00D-06  THRMLTP =  0.00D+00
 THRCPQCI=  1.00D-10  KEXTA   =  0.00D+00  THRCOARS=  0.00D+00  SYMTOL  =  1.00D-06  GRADTOL =  1.00D-06  THROVL  =  1.00D-08
 THRORTH =  1.00D-08  GRID    =  1.00D-06  GRIDMAX =  1.00D-03  DTMAX   =  0.00D+00

 SETTING GEOMTYP        =    XYZ
 ZUNIT=BOHR
 

 Variable memory set to 1000000000 words,  buffer space   230000 words

 SETTING BASIS          =    AVDZ,H=VDZ


 Recomputing integrals since basis changed


 Using spherical harmonics

 Library entry C      S aug-cc-pVDZ          selected for orbital group  1
 Library entry C      P aug-cc-pVDZ          selected for orbital group  1
 Library entry C      D aug-cc-pVDZ          selected for orbital group  1
 Library entry O      S aug-cc-pVDZ          selected for orbital group  2
 Library entry O      P aug-cc-pVDZ          selected for orbital group  2
 Library entry O      D aug-cc-pVDZ          selected for orbital group  2
 Library entry H      S cc-pVDZ              selected for orbital group  3
 Library entry H      P cc-pVDZ              selected for orbital group  3

1PROGRAM * SEWARD (Integral evaluation for generally contracted gaussian basis sets)     Author: Roland Lindh, 1990

 Geometry written to block  1 of record 700


 Point group  Ci  



 ATOMIC COORDINATES

 NR  ATOM    CHARGE       X              Y              Z

   1  C       6.00   -3.503987195   -0.832228202    0.001086137
   2  C       6.00    3.503987195    0.832228202   -0.001086137
   3  O       8.00   -3.097230813    1.621141364    0.005100232
   4  O       8.00    3.097230813   -1.621141364   -0.005100232
   5  O       8.00   -1.889102017   -2.483008321    0.002177212
   6  O       8.00    1.889102017    2.483008321   -0.002177212
   7  H       1.00   -5.523312764   -1.274425516   -0.003544698
   8  H       1.00    5.523312764    1.274425516    0.003544698
   9  H       1.00   -1.238059937    1.953382762   -0.003318936
  10  H       1.00    1.238059937   -1.953382762    0.003318936

 Bond lengths in Bohr (Angstrom)

 1-3  2.486863305  1-5  2.309313822  1-7  2.067180607  2-4  2.486863305  2-6  2.309313822
     ( 1.315991383)     ( 1.222036243)     ( 1.093904864)     ( 1.315991383)     ( 1.222036243)

  2- 8  2.067180607   3- 9  1.888642787   4-10  1.888642787
       ( 1.093904864)       ( 0.999426719)       ( 0.999426719)

 Bond angles

  1- 3- 9  109.54509196   2- 4-10  109.54509196   3- 1- 5  126.21591261   3- 1- 7  111.76566678

  4-2-6  126.21591261   4-2-8  111.76566678   5-1-7  122.01842061   6-2-8  122.01842061

 NUCLEAR CHARGE:                   48
 NUMBER OF PRIMITIVE AOS:         250
 NUMBER OF SYMMETRY AOS:          238
 NUMBER OF CONTRACTIONS:          158   (  79Ag  +  79Au  )
 NUMBER OF CORE ORBITALS:           6   (   3Ag  +   3Au  )
 NUMBER OF VALENCE ORBITALS:       28   (  14Ag  +  14Au  )


 NUCLEAR REPULSION ENERGY  235.40078363


 Eigenvalues of metric

         1 0.127E-02 0.143E-02 0.277E-02 0.696E-02 0.734E-02 0.775E-02 0.121E-01 0.127E-01
         2 0.780E-03 0.198E-02 0.422E-02 0.475E-02 0.703E-02 0.843E-02 0.112E-01 0.117E-01


 Contracted 2-electron integrals neglected if value below      1.0D-16
 AO integral compression algorithm  1   Integral accuracy      1.0D-16

     410.255 MB (compressed) written to integral file ( 97.9%)

     Node minimum: 410.255 MB, node maximum: 410.255 MB


 NUMBER OF SORTED TWO-ELECTRON INTEGRALS:   39945560.     BUFFER LENGTH:  32768
 NUMBER OF SEGMENTS:   3  SEGMENT LENGTH:   15999080      RECORD LENGTH: 524288

 Memory used in sort:      16.56 MW

 SORT1 READ    52399632. AND WROTE    39945560. INTEGRALS IN    115 RECORDS. CPU TIME:     0.47 SEC, REAL TIME:     0.73 SEC
 SORT2 READ    39945560. AND WROTE    39945560. INTEGRALS IN   1565 RECORDS. CPU TIME:     0.38 SEC, REAL TIME:     0.55 SEC

 FILE SIZES:   FILE 1:   321.4 MBYTE,  FILE 4:   482.4 MBYTE,   TOTAL:    803.8 MBYTE

 OPERATOR DM      FOR CENTER  0  COORDINATES:    0.000000    0.000000    0.000000


 **********************************************************************************************************************************
 DATASETS  * FILE   NREC   LENGTH (MB)   RECORD NAMES
              1      19      321.59       500      610      700      900      950      970     1000      129      960     1100   
                                          VAR    BASINP    GEOM    SYMINP    ZMAT    AOBASIS   BASIS     P2S    ABASIS      S 
                                         1400     1410     1200     1210     1080     1600     1650     1300     1700   
                                           T        V       H0       H01     AOSYM     SMH    MOLCAS    ERIS     OPER   

 PROGRAMS   *        TOTAL       INT
 CPU TIMES  *         2.87      2.83
 REAL TIME  *         3.82 SEC
 DISK USED  *         1.21 GB      
 GA USED    *         0.00 MB       (max)       0.00 MB       (current)
 **********************************************************************************************************************************

1PROGRAM * RHF-SCF (CLOSED SHELL)       Authors: W. Meyer, H.-J. Werner


 NUMBER OF ELECTRONS:      24+   24-
 CONVERGENCE THRESHOLDS:    1.00E-10 (Density)    1.00E-13 (Energy)
 MAX. NUMBER OF ITERATIONS:      200
 INTERPOLATION TYPE:            DIIS
 INTERPOLATION STEPS:              2 (START)      1 (STEP)
 LEVEL SHIFTS:                  0.00 (CLOSED)  0.00 (OPEN) 



 Orbital guess generated from atomic densities. Full valence occupancy:   17  17

 Molecular orbital dump at record        2100.2

 Initial alpha occupancy:  12  12
 Initial beta  occupancy:  12  12
 Wave function symmetry:    1

 ITERATION    DDIFF          GRAD             ENERGY        2-EL.EN.            DIPOLE MOMENTS         DIIS
    1      0.000D+00      0.000D+00      -377.47427264    746.055880    0.00000    0.00000    0.00000    0
    2      0.000D+00      0.102D-01      -377.56242615    743.261335    0.00000    0.00000    0.00000    1
    3      0.193D-01      0.642D-02      -377.60967395    745.535181    0.00000    0.00000    0.00000    2
    4      0.723D-02      0.917D-03      -377.61128282    745.138039    0.00000    0.00000    0.00000    3
    5      0.140D-02      0.389D-03      -377.61156598    745.175160    0.00000    0.00000    0.00000    4
    6      0.585D-03      0.110D-03      -377.61160999    745.226973    0.00000    0.00000    0.00000    5
    7      0.197D-03      0.488D-04      -377.61162058    745.208918    0.00000    0.00000    0.00000    6
    8      0.114D-03      0.153D-04      -377.61162183    745.214450    0.00000    0.00000    0.00000    7
    9      0.419D-04      0.506D-05      -377.61162194    745.213109    0.00000    0.00000    0.00000    8
   10      0.136D-04      0.139D-05      -377.61162195    745.213343    0.00000    0.00000    0.00000    7
   11      0.380D-05      0.409D-06      -377.61162195    745.213265    0.00000    0.00000    0.00000    8
   12      0.111D-05      0.126D-06      -377.61162195    745.213299    0.00000    0.00000    0.00000    8
   13      0.313D-06      0.510D-07      -377.61162195    745.213279    0.00000    0.00000    0.00000    8
   14      0.924D-07      0.165D-07      -377.61162195    745.213283    0.00000    0.00000    0.00000    8
   15      0.385D-07      0.559D-08      -377.61162195    745.213283    0.00000    0.00000    0.00000    8
   16      0.107D-07      0.175D-08      -377.61162195    745.213283    0.00000    0.00000    0.00000    8
   17      0.309D-08      0.441D-09      -377.61162195    745.213283    0.00000    0.00000    0.00000    8
   18      0.818D-09      0.137D-09      -377.61162195    745.213283    0.00000    0.00000    0.00000    8
   19      0.280D-09      0.425D-10      -377.61162195    745.213283    0.00000    0.00000    0.00000    8
   20      0.909D-10      0.114D-10      -377.61162195    745.213283    0.00000    0.00000    0.00000    7
   21      0.279D-10      0.278D-11      -377.61162195    745.213283    0.00000    0.00000    0.00000    7
   22      0.709D-11      0.109D-11      -377.61162195    745.213283    0.00000    0.00000    0.00000    7
   23      0.259D-11      0.309D-12      -377.61162195    745.213283    0.00000    0.00000    0.00000    7
   24      0.952D-12      0.157D-12      -377.61162195    745.213283    0.00000    0.00000    0.00000    8
   25      0.604D-12      0.622D-13      -377.61162195    745.213283    0.00000    0.00000    0.00000    8
   26      0.376D-12      0.459D-13      -377.61162195    745.213283    0.00000    0.00000    0.00000    9
   27      0.323D-12      0.410D-13      -377.61162195    745.213283    0.00000    0.00000    0.00000    9
   28      0.171D-12      0.409D-13      -377.61162195    745.213283    0.00000    0.00000    0.00000    9
   29      0.130D-12      0.357D-13      -377.61162195    745.213283    0.00000    0.00000    0.00000    9
   30      0.146D-12      0.346D-13      -377.61162195    745.213283    0.00000    0.00000    0.00000    0

 Final occupancy:  12  12

 !RHF STATE 1.1 Energy               -377.611621954070
 Nuclear energy                       235.40078363
 One-electron energy                 -985.61904699
 Two-electron energy                  372.60664141
 Virial quotient                       -1.00167735
 !RHF STATE 1.1 Dipole moment           0.00000000     0.00000000     0.00000000
 Dipole moment /Debye                   0.00000000     0.00000000     0.00000000

 Orbital energies:

         1.1          2.1          3.1          4.1          5.1          6.1          7.1          8.1          9.1         10.1
    -20.626412   -20.587722   -11.419913    -1.489854    -1.377977    -0.921205    -0.735349    -0.697836    -0.635245    -0.622141

        11.1         12.1         13.1         14.1
     -0.506789    -0.498041     0.070584     0.092904

         1.2          2.2          3.2          4.2          5.2          6.2          7.2          8.2          9.2         10.2
    -20.626412   -20.587724   -11.419915    -1.477260    -1.391844    -0.885498    -0.771098    -0.726743    -0.645497    -0.581602

        11.2         12.2         13.2         14.2
     -0.495134    -0.475671     0.069516     0.080714


 **********************************************************************************************************************************
 DATASETS  * FILE   NREC   LENGTH (MB)   RECORD NAMES
              1      19      321.59       500      610      700      900      950      970     1000      129      960     1100   
                                          VAR    BASINP    GEOM    SYMINP    ZMAT    AOBASIS   BASIS     P2S    ABASIS      S 
                                         1400     1410     1200     1210     1080     1600     1650     1300     1700   
                                           T        V       H0       H01     AOSYM     SMH    MOLCAS    ERIS     OPER   

              2       3        0.69       700     1000     2100   
                                         GEOM     BASIS     RHF  

 PROGRAMS   *        TOTAL       RHF       INT
 CPU TIMES  *         7.71      4.84      2.83
 REAL TIME  *         9.59 SEC
 DISK USED  *         1.21 GB      
 GA USED    *         0.00 MB       (max)       0.00 MB       (current)
 **********************************************************************************************************************************


1PROGRAM * CCSD (Closed-shell coupled cluster)     Authors: C. Hampel, H.-J. Werner, 1991, M. Deegan, P.J. Knowles, 1992


 Convergence thresholds:  THRVAR = 1.00D-08  THRDEN = 1.00D-12

 CCSD(T)     terms to be evaluated (factor= 1.000)


 Number of core orbitals:           6 (   3   3 )
 Number of closed-shell orbitals:  18 (   9   9 )
 Number of external orbitals:     134 (  67  67 )

 Molecular orbitals read from record     2100.2  Type=RHF/CANONICAL (state 1.1)

 Number of N-1 electron functions:              18
 Number of N-2 electron functions:             171
 Number of singly external CSFs:              1206
 Number of doubly external CSFs:           1455642
 Total number of CSFs:                     1456849

 Length of J-op  integral file:               0.00 MB
 Length of K-op  integral file:               0.89 MB
 Length of 3-ext integral record:             0.00 MB

 Memory could be reduced to 28.42 Mwords without degradation in triples

 Integral transformation finished. Total CPU:   1.59 sec, npass=  1  Memory used:  16.40 MW

 Reference energy:                   -377.61162195

 MP2 singlet pair energy:              -0.63218482
 MP2 triplet pair energy:              -0.43071707
 MP2 correlation energy:               -1.06290189
 MP2 total energy:                   -378.67452384

 SCS-MP2 correlation energy:           -1.02662352   (PS=  1.200000  PT=  0.333333)
 SCS-MP2 total energy:               -378.63824547

 ITER.      SQ.NORM     CORR.ENERGY   TOTAL ENERGY   ENERGY CHANGE        DEN1      VAR(S)    VAR(P)  DIIS     TIME
   1      1.30300004    -1.08019114  -378.69181309    -0.01728925     0.01559306  0.11D-01  0.60D-02  1  1     4.15
   2      1.32763044    -1.08129527  -378.69291722    -0.00110413    -0.02623779  0.24D-03  0.10D-02  2  2     6.86
   3      1.34083924    -1.08215008  -378.69377203    -0.00085481    -0.00595494  0.21D-03  0.45D-04  3  3     9.58
   4      1.34617367    -1.08188197  -378.69350393     0.00026811    -0.00176874  0.19D-04  0.81D-05  4  4    12.29
   5      1.34826481    -1.08179285  -378.69341480     0.00008913    -0.00046897  0.17D-05  0.73D-06  5  5    15.02
   6      1.34864812    -1.08177254  -378.69339449     0.00002031    -0.00002192  0.14D-06  0.85D-07  6  6    17.75
   7      1.34873071    -1.08176305  -378.69338500     0.00000949    -0.00000601  0.12D-07  0.12D-07  6  2    20.48
   8      1.34873656    -1.08176387  -378.69338582    -0.00000082     0.00000232  0.19D-08  0.12D-08  6  1    23.19
   9      1.34873726    -1.08176369  -378.69338565     0.00000018     0.00000128  0.31D-09  0.17D-09  6  4    25.91
  10      1.34873902    -1.08176352  -378.69338548     0.00000017    -0.00000050  0.72D-10  0.23D-10  6  3    28.64
  11      1.34873853    -1.08176364  -378.69338559    -0.00000012     0.00000023  0.16D-10  0.42D-11  6  5    31.37
  12      1.34873827    -1.08176366  -378.69338561    -0.00000002     0.00000004  0.30D-11  0.11D-11  6  6    34.09
  13      1.34873799    -1.08176369  -378.69338565    -0.00000004     0.00000011  0.50D-12  0.21D-12  6  1    36.81
  14      1.34873789    -1.08176370  -378.69338566    -0.00000001     0.00000002  0.68D-13  0.32D-13  6  2    39.54
  15      1.34873786    -1.08176370  -378.69338566    -0.00000000     0.00000000  0.12D-13  0.51D-14  6  4    42.26
  16      1.34873786    -1.08176370  -378.69338566    -0.00000000    -0.00000000  0.24D-14  0.11D-14  6  3    44.98
  17      1.34873785    -1.08176370  -378.69338566     0.00000000    -0.00000000  0.28D-15  0.18D-15  6  6    47.71
  18      1.34873785    -1.08176370  -378.69338566    -0.00000000     0.00000000  0.38D-16  0.18D-16  6  5    50.43
  19      1.34873785    -1.08176370  -378.69338566    -0.00000000     0.00000000  0.97D-17  0.29D-17  6  1    53.16
  20      1.34873785    -1.08176370  -378.69338566     0.00000000     0.00000000  0.25D-17  0.78D-18  6  2    55.88
  21      1.34873785    -1.08176370  -378.69338566     0.00000000     0.00000000  0.49D-18  0.15D-18  6  4    58.59
  22      1.34873785    -1.08176370  -378.69338566     0.00000000    -0.00000000  0.12D-18  0.34D-19  6  3    61.31
  23      1.34873785    -1.08176370  -378.69338566     0.00000000    -0.00000000  0.31D-19  0.92D-20  6  6    64.03
  24      1.34873785    -1.08176370  -378.69338566     0.00000000    -0.00000000  0.68D-20  0.26D-20  6  5    66.75
  25      1.34873785    -1.08176370  -378.69338566     0.00000000    -0.00000000  0.17D-20  0.59D-21  6  1    69.47

 Norm of t1 vector:      0.15413680      S-energy:     0.00000000      T1 diagnostic:  0.01816520
                                                                       D1 diagnostic:  0.06242970

 Singles amplitudes (print threshold =  0.500E-01):

         I         SYM. A    A   T(IA)

         6         1         5     -0.05265739


 Total CPU time for triples:     68.21 sec


 RESULTS
 =======

  Reference energy                   -377.611621954070
  CCSD singlet pair energy             -0.703146698585
  CCSD triplet pair energy             -0.378617003610
  CCSD correlation energy              -1.081763702194

  Triples (T) contribution             -0.039504590339
  Total correlation energy             -1.121268292533

  CCSD total energy                  -378.693385656264
  CCSD[T] energy                     -378.736542041303
  CCSD-T energy                      -378.731634007846
 !CCSD(T) total energy               -378.732890246603

 Timing summary (sec):

 STEP                 CPU(USER)    SYS     CPU(TOT)    WALL
 Transformation          1.62      0.17      1.79      1.80
 CCSD iterations        67.85      2.38     70.23     70.30
 Triples                68.21      1.85     70.06     70.06

 Program statistics:

 Available memory in ccsd:               999998604
 Min. memory needed in ccsd:               3671436
 Max. memory used in ccsd:                 4983204
 Max. memory used in cckext:               4881048 (25 integral passes)



 **********************************************************************************************************************************
 DATASETS  * FILE   NREC   LENGTH (MB)   RECORD NAMES
              1      20      434.73       500      610      700      900      950      970     1000      129      960     1100   
                                          VAR    BASINP    GEOM    SYMINP    ZMAT    AOBASIS   BASIS     P2S    ABASIS      S 
                                         1400     1410     1200     1210     1080     1600     1650     1300     1700     1380   
                                           T        V       H0       H01     AOSYM     SMH    MOLCAS    ERIS     OPER     JKOP   

              2       3        0.69       700     1000     2100   
                                         GEOM     BASIS     RHF  

 PROGRAMS   *        TOTAL   CCSD(T)       RHF       INT
 CPU TIMES  *       145.41    137.69      4.84      2.83
 REAL TIME  *       151.79 SEC
 DISK USED  *         1.21 GB      
 GA USED    *         0.00 MB       (max)       0.00 MB       (current)
 **********************************************************************************************************************************

        CCSD(T)         RHF-SCF 
   -378.73289025   -377.61162195
 **********************************************************************************************************************************
 Variable memory released
