
 Primary working directories    : /tmp/1093664.102.gen5.q
 Secondary working directories  : /tmp/1093664.102.gen5.q
 Wavefunction directory         : /home/vulcan/mel64643/wfu/
 Main file repository           : /tmp/1093664.102.gen5.q/

 ARCHNAME  : Linux/x86_64
 FC        : /opt/intel/compilers_and_libraries_2016.1.150/linux/bin/intel64/ifort
 FCVERSION : 16.0.1
 BLASLIB   : -mkl
 id        : ccgc

 Nodes     nprocs
 n073         1
 ga_uses_ma=false, calling ma_init with nominal heap.
 GA-space will be limited to   8.0 MW (determined by -G option)

 Using customized tuning parameters: mindgm=10; mindgv=16; mindgc=4; mindgr=1; noblas=0; mincuda=1000; minvec=7
 default implementation of scratch files=df  

 ***,Optimization of h2o_2
 memory,1000,m
 gthresh,energy=1.0d-12,orbital=1.0d-10,oneint=1.0d-16,twoint=1.0d-16,optgrad=1.0d-6,compress=1.0d-13
 geomtyp=xyz
 
 
 
 bohr
 geometry = {
  O   -2.8103606211   -0.2073440496    0.0000000000
  H   -3.5593117260    1.4466018373   -0.0000000000
  H   -1.0084746775    0.1048898721   -0.0000000000
  O    2.6810185576    0.1944713463   -0.0000000000
  H    3.3310582375   -0.6993326260   -1.4443710475
  H    3.3310582375   -0.6993326260    1.4443710475
 }
 
 basis=aug-cc-pvtz, H=cc-pvtz
 {rhf;maxit,200}
 {ccsd(t);maxit,200}

 Variables initialized (661), CPU time= 0.00 sec
 Commands  initialized (458), CPU time= 0.00 sec, 486 directives.
 Default parameters read. Elapsed time= 0.05 sec

 Checking input...
 Passed
1


                                         ***  PROGRAM SYSTEM MOLPRO  ***
                         Copyright, University College Cardiff Consultants Limited, 2008

                                    Version 2010.1 linked May 16 2016 07:17:05


 **********************************************************************************************************************************
 LABEL *   Optimization of h2o_2                                                         
 Linux-4.4.3/n073(x86_64) 64 bit mpp version                                             DATE: 12-Jun-24          TIME: 09:44:35  
 **********************************************************************************************************************************

 SHA1:             9e8077add272b0f3cad6f7df79ec5211205f459d
 **********************************************************************************************************************************

 THRESHOLDS:

 ZERO    =  1.00D-12  ONEINT  =  1.00D-16  TWOINT  =  1.00D-16  PREFAC  =  1.00D-14  LOCALI  =  1.00D-09  EORDER  =  1.00D-04
 ENERGY  =  1.00D-12  ETEST   =  0.00D+00  EDENS   =  0.00D+00  THRDEDEF=  1.00D-06  GRADIENT=  1.00D-02  STEP    =  1.00D-03
 ORBITAL =  1.00D-10  CIVEC   =  1.00D-05  COEFF   =  1.00D-04  PRINTCI =  5.00D-02  PUNCHCI =  9.90D+01  OPTGRAD =  1.00D-06
 OPTENERG=  1.00D-06  OPTSTEP =  3.00D-04  THRGRAD =  1.00D-10  COMPRESS=  1.00D-13  VARMIN  =  1.00D-07  VARMAX  =  1.00D-03
 THRDOUB =  0.00D+00  THRDIV  =  1.00D-05  THRRED  =  1.00D-07  THRPSP  =  1.00D+00  THRDC   =  1.00D-10  THRCS   =  1.00D-10
 THRNRM  =  1.00D-08  THREQ   =  0.00D+00  THRDE   =  1.00D+00  THRREF  =  1.00D-05  SPARFAC =  1.00D+00  THRDLP  =  1.00D-07
 THRDIA  =  1.00D-10  THRDLS  =  1.00D-07  THRGPS  =  0.00D+00  THRKEX  =  0.00D+00  THRDIS  =  2.00D-01  THRVAR  =  1.00D-10
 THRLOC  =  1.00D-06  THRGAP  =  1.00D-06  THRLOCT = -1.00D+00  THRGAPT = -1.00D+00  THRORB  =  1.00D-06  THRMLTP =  0.00D+00
 THRCPQCI=  1.00D-10  KEXTA   =  0.00D+00  THRCOARS=  0.00D+00  SYMTOL  =  1.00D-06  GRADTOL =  1.00D-06  THROVL  =  1.00D-08
 THRORTH =  1.00D-08  GRID    =  1.00D-06  GRIDMAX =  1.00D-03  DTMAX   =  0.00D+00

 SETTING GEOMTYP        =    XYZ
 ZUNIT=BOHR
 

 Variable memory set to 1000000000 words,  buffer space   230000 words

 SETTING BASIS          =    AUG-CC-PVTZ,H=CC-PVTZ


 Recomputing integrals since basis changed


 Using spherical harmonics

 Library entry O      S aug-cc-pVTZ          selected for orbital group  1
 Library entry O      P aug-cc-pVTZ          selected for orbital group  1
 Library entry O      D aug-cc-pVTZ          selected for orbital group  1
 Library entry O      F aug-cc-pVTZ          selected for orbital group  1
 Library entry H      S cc-pVTZ              selected for orbital group  2
 Library entry H      P cc-pVTZ              selected for orbital group  2
 Library entry H      D cc-pVTZ              selected for orbital group  2

1PROGRAM * SEWARD (Integral evaluation for generally contracted gaussian basis sets)     Author: Roland Lindh, 1990

 Geometry written to block  1 of record 700


 Point group  Cs  



 ATOMIC COORDINATES

 NR  ATOM    CHARGE       X              Y              Z

   1  O       8.00   -2.810360621   -0.207344050    0.000000000
   2  H       1.00   -3.559311726    1.446601837    0.000000000
   3  H       1.00   -1.008474677    0.104889872    0.000000000
   4  O       8.00    2.681018558    0.194471346    0.000000000
   5  H       1.00    3.331058238   -0.699332626   -1.444371048
   6  H       1.00    3.331058238   -0.699332626    1.444371048

 Bond lengths in Bohr (Angstrom)

 1-2  1.815616907  1-3  1.828738083  4-5  1.818693171  4-6  1.818693171
     ( 0.960783088)     ( 0.967726515)     ( 0.962410976)     ( 0.962410976)

 Bond angles

  2-1-3  104.53160046   5-4-6  105.15588144

 NUCLEAR CHARGE:                   20
 NUMBER OF PRIMITIVE AOS:         202
 NUMBER OF SYMMETRY AOS:          180
 NUMBER OF CONTRACTIONS:          148   (  94A'  +  54A"  )
 NUMBER OF CORE ORBITALS:           2   (   2A'  +   0A"  )
 NUMBER OF VALENCE ORBITALS:       12   (   9A'  +   3A"  )


 NUCLEAR REPULSION ENERGY   36.55045943


 Eigenvalues of metric

         1 0.531E-03 0.585E-03 0.927E-03 0.263E-02 0.320E-02 0.447E-02 0.474E-02 0.608E-02
         2 0.100E-02 0.624E-02 0.134E-01 0.222E-01 0.257E-01 0.377E-01 0.413E-01 0.486E-01


 Contracted 2-electron integrals neglected if value below      1.0D-16
 AO integral compression algorithm  1   Integral accuracy      1.0D-16

     252.445 MB (compressed) written to integral file ( 84.1%)

     Node minimum: 252.445 MB, node maximum: 252.445 MB


 NUMBER OF SORTED TWO-ELECTRON INTEGRALS:   30965275.     BUFFER LENGTH:  32768
 NUMBER OF SEGMENTS:   2  SEGMENT LENGTH:   15989665      RECORD LENGTH: 524288

 Memory used in sort:      16.55 MW

 SORT1 READ    37483000. AND WROTE    29745932. INTEGRALS IN     87 RECORDS. CPU TIME:     0.44 SEC, REAL TIME:     0.63 SEC
 SORT2 READ    29745932. AND WROTE    30965275. INTEGRALS IN    963 RECORDS. CPU TIME:     0.33 SEC, REAL TIME:     0.47 SEC

 FILE SIZES:   FILE 1:   219.6 MBYTE,  FILE 4:   364.9 MBYTE,   TOTAL:    584.6 MBYTE

 OPERATOR DM      FOR CENTER  0  COORDINATES:    0.000000    0.000000    0.000000


 **********************************************************************************************************************************
 DATASETS  * FILE   NREC   LENGTH (MB)   RECORD NAMES
              1      19      219.77       500      610      700      900      950      970     1000      129      960     1100   
                                          VAR    BASINP    GEOM    SYMINP    ZMAT    AOBASIS   BASIS     P2S    ABASIS      S 
                                         1400     1410     1200     1210     1080     1600     1650     1300     1700   
                                           T        V       H0       H01     AOSYM     SMH    MOLCAS    ERIS     OPER   

 PROGRAMS   *        TOTAL       INT
 CPU TIMES  *         2.64      2.60
 REAL TIME  *         3.34 SEC
 DISK USED  *       837.67 MB      
 GA USED    *         0.00 MB       (max)       0.00 MB       (current)
 **********************************************************************************************************************************

1PROGRAM * RHF-SCF (CLOSED SHELL)       Authors: W. Meyer, H.-J. Werner


 NUMBER OF ELECTRONS:      10+   10-
 CONVERGENCE THRESHOLDS:    1.00E-10 (Density)    1.00E-13 (Energy)
 MAX. NUMBER OF ITERATIONS:      200
 INTERPOLATION TYPE:            DIIS
 INTERPOLATION STEPS:              2 (START)      1 (STEP)
 LEVEL SHIFTS:                  0.00 (CLOSED)  0.00 (OPEN) 



 Orbital guess generated from atomic densities. Full valence occupancy:   11   3

 Molecular orbital dump at record        2100.2

 Initial alpha occupancy:   8   2
 Initial beta  occupancy:   8   2
 Wave function symmetry:    1

 ITERATION    DDIFF          GRAD             ENERGY        2-EL.EN.            DIPOLE MOMENTS         DIIS
    1      0.000D+00      0.000D+00      -152.05715612    191.507326    1.36503    0.09550    0.00000    0
    2      0.000D+00      0.753D-02      -152.10738318    184.864540    1.00543    0.02374    0.00000    1
    3      0.129D-01      0.451D-02      -152.12547737    187.726904    1.06903    0.05367    0.00000    2
    4      0.435D-02      0.459D-03      -152.12585755    187.551126    1.05618    0.05182    0.00000    3
    5      0.647D-03      0.118D-03      -152.12589154    187.570691    1.05176    0.05302    0.00000    4
    6      0.186D-03      0.268D-04      -152.12589368    187.570792    1.05075    0.05237    0.00000    5
    7      0.531D-04      0.119D-04      -152.12589390    187.569778    1.05051    0.05276    0.00000    6
    8      0.156D-04      0.282D-05      -152.12589393    187.570026    1.05038    0.05271    0.00000    7
    9      0.697D-05      0.460D-06      -152.12589393    187.569976    1.05036    0.05271    0.00000    6
   10      0.105D-05      0.889D-07      -152.12589393    187.570007    1.05036    0.05271    0.00000    7
   11      0.200D-06      0.254D-07      -152.12589393    187.569999    1.05036    0.05271    0.00000    7
   12      0.550D-07      0.711D-08      -152.12589393    187.570001    1.05036    0.05271    0.00000    7
   13      0.163D-07      0.136D-08      -152.12589393    187.570000    1.05036    0.05271    0.00000    6
   14      0.305D-08      0.326D-09      -152.12589393    187.570001    1.05036    0.05271    0.00000    6
   15      0.787D-09      0.110D-09      -152.12589393    187.570001    1.05036    0.05271    0.00000    7
   16      0.218D-09      0.518D-10      -152.12589393    187.570001    1.05036    0.05271    0.00000    7
   17      0.812D-10      0.217D-10      -152.12589393    187.570001    1.05036    0.05271    0.00000    0

 Final occupancy:   8   2

 !RHF STATE 1.1 Energy               -152.125893928038
 Nuclear energy                        36.55045943
 One-electron energy                 -282.46135362
 Two-electron energy                   93.78500026
 Virial quotient                       -1.00143124
 !RHF STATE 1.1 Dipole moment           1.05035565     0.05270848     0.00000000
 Dipole moment /Debye                   2.66956292     0.13396282     0.00000000

 Orbital energies:

         1.1          2.1          3.1          4.1          5.1          6.1          7.1          8.1          9.1         10.1
    -20.592259   -20.536294    -1.378051    -1.321056    -0.693045    -0.612690    -0.558911    -0.530516     0.091924     0.125209

         1.2          2.2          3.2          4.2
     -0.741608    -0.481248     0.134453     0.200047


 **********************************************************************************************************************************
 DATASETS  * FILE   NREC   LENGTH (MB)   RECORD NAMES
              1      19      219.77       500      610      700      900      950      970     1000      129      960     1100   
                                          VAR    BASINP    GEOM    SYMINP    ZMAT    AOBASIS   BASIS     P2S    ABASIS      S 
                                         1400     1410     1200     1210     1080     1600     1650     1300     1700   
                                           T        V       H0       H01     AOSYM     SMH    MOLCAS    ERIS     OPER   

              2       3        0.60       700     1000     2100   
                                         GEOM     BASIS     RHF  

 PROGRAMS   *        TOTAL       RHF       INT
 CPU TIMES  *         5.74      3.10      2.60
 REAL TIME  *         6.93 SEC
 DISK USED  *       837.67 MB      
 GA USED    *         0.00 MB       (max)       0.00 MB       (current)
 **********************************************************************************************************************************


1PROGRAM * CCSD (Closed-shell coupled cluster)     Authors: C. Hampel, H.-J. Werner, 1991, M. Deegan, P.J. Knowles, 1992


 Convergence thresholds:  THRVAR = 1.00D-08  THRDEN = 1.00D-12

 CCSD(T)     terms to be evaluated (factor= 1.000)


 Number of core orbitals:           2 (   2   0 )
 Number of closed-shell orbitals:   8 (   6   2 )
 Number of external orbitals:     138 (  86  52 )

 Molecular orbitals read from record     2100.2  Type=RHF/CANONICAL (state 1.1)

 Number of N-1 electron functions:               8
 Number of N-2 electron functions:              36
 Number of singly external CSFs:               620
 Number of doubly external CSFs:            309880
 Total number of CSFs:                      310501

 Length of J-op  integral file:               0.00 MB
 Length of K-op  integral file:               0.85 MB
 Length of 3-ext integral record:             0.00 MB

 Memory could be reduced to 15.13 Mwords without degradation in triples

 Integral transformation finished. Total CPU:   0.57 sec, npass=  1  Memory used:   4.93 MW

 Reference energy:                   -152.12589393

 MP2 singlet pair energy:              -0.34084894
 MP2 triplet pair energy:              -0.19737939
 MP2 correlation energy:               -0.53822833
 MP2 total energy:                   -152.66412226

 SCS-MP2 correlation energy:           -0.53183257   (PS=  1.200000  PT=  0.333333)
 SCS-MP2 total energy:               -152.65772650

 ITER.      SQ.NORM     CORR.ENERGY   TOTAL ENERGY   ENERGY CHANGE        DEN1      VAR(S)    VAR(P)  DIIS     TIME
   1      1.12608981    -0.54662546  -152.67251939    -0.00839713     0.00263136  0.18D-02  0.19D-02  1  1     1.17
   2      1.13338509    -0.54723312  -152.67312705    -0.00060766    -0.00954914  0.21D-04  0.23D-03  2  2     1.84
   3      1.13603238    -0.54736834  -152.67326227    -0.00013522    -0.00172293  0.21D-04  0.94D-05  3  3     2.50
   4      1.13690494    -0.54735606  -152.67324999     0.00001228    -0.00040897  0.86D-06  0.11D-05  4  4     3.17
   5      1.13708368    -0.54735069  -152.67324462     0.00000538    -0.00005182  0.32D-06  0.63D-07  5  5     3.84
   6      1.13714967    -0.54734451  -152.67323843     0.00000618    -0.00001348  0.22D-07  0.54D-08  6  6     4.51
   7      1.13716187    -0.54734409  -152.67323802     0.00000041    -0.00000108  0.18D-08  0.97D-09  6  1     5.17
   8      1.13716443    -0.54734399  -152.67323792     0.00000010     0.00000028  0.28D-09  0.11D-09  6  2     5.84
   9      1.13716548    -0.54734390  -152.67323783     0.00000009     0.00000012  0.20D-10  0.99D-11  6  3     6.51
  10      1.13716565    -0.54734389  -152.67323781     0.00000001     0.00000000  0.44D-11  0.12D-11  6  4     7.17
  11      1.13716560    -0.54734390  -152.67323782    -0.00000001     0.00000004  0.90D-12  0.23D-12  6  5     7.84
  12      1.13716557    -0.54734390  -152.67323782    -0.00000000     0.00000001  0.18D-12  0.33D-13  6  6     8.51
  13      1.13716555    -0.54734390  -152.67323783    -0.00000000     0.00000001  0.23D-13  0.61D-14  6  1     9.18
  14      1.13716554    -0.54734390  -152.67323783    -0.00000000     0.00000000  0.38D-14  0.12D-14  6  2     9.85
  15      1.13716554    -0.54734390  -152.67323783    -0.00000000    -0.00000000  0.50D-15  0.14D-15  6  3    10.52
  16      1.13716554    -0.54734390  -152.67323783    -0.00000000    -0.00000000  0.68D-16  0.26D-16  6  4    11.18
  17      1.13716554    -0.54734390  -152.67323783     0.00000000    -0.00000000  0.91D-17  0.42D-17  6  5    11.85
  18      1.13716554    -0.54734390  -152.67323783    -0.00000000     0.00000000  0.10D-17  0.51D-18  6  6    12.51
  19      1.13716554    -0.54734390  -152.67323783    -0.00000000    -0.00000000  0.16D-18  0.81D-19  6  1    13.19
  20      1.13716554    -0.54734390  -152.67323783     0.00000000    -0.00000000  0.32D-19  0.12D-19  6  2    13.85
  21      1.13716554    -0.54734390  -152.67323783    -0.00000000    -0.00000000  0.59D-20  0.21D-20  6  3    14.52

 Norm of t1 vector:      0.05679351      S-energy:    -0.00000000      T1 diagnostic:  0.01003977
                                                                       D1 diagnostic:  0.02178937


 Total CPU time for triples:      8.56 sec


 RESULTS
 =======

  Reference energy                   -152.125893928038
  CCSD singlet pair energy             -0.371758732126
  CCSD triplet pair energy             -0.175585167890
  CCSD correlation energy              -0.547343900020

  Triples (T) contribution             -0.017582685666
  Total correlation energy             -0.564926585686

  CCSD total energy                  -152.673237828058
  CCSD[T] energy                     -152.691449817244
  CCSD-T energy                      -152.690476032604
 !CCSD(T) total energy               -152.690820513724

 Timing summary (sec):

 STEP                 CPU(USER)    SYS     CPU(TOT)    WALL
 Transformation          0.58      0.10      0.68      0.68
 CCSD iterations        13.94      0.94     14.88     14.92
 Triples                 8.56      0.23      8.79      8.80

 Program statistics:

 Available memory in ccsd:               999999644
 Min. memory needed in ccsd:                962213
 Max. memory used in ccsd:                 1225529
 Max. memory used in cckext:               1401808 (21 integral passes)



 **********************************************************************************************************************************
 DATASETS  * FILE   NREC   LENGTH (MB)   RECORD NAMES
              1      20      267.92       500      610      700      900      950      970     1000      129      960     1100   
                                          VAR    BASINP    GEOM    SYMINP    ZMAT    AOBASIS   BASIS     P2S    ABASIS      S 
                                         1400     1410     1200     1210     1080     1600     1650     1300     1700     1380   
                                           T        V       H0       H01     AOSYM     SMH    MOLCAS    ERIS     OPER     JKOP   

              2       3        0.60       700     1000     2100   
                                         GEOM     BASIS     RHF  

 PROGRAMS   *        TOTAL   CCSD(T)       RHF       INT
 CPU TIMES  *        28.84     23.10      3.10      2.60
 REAL TIME  *        31.36 SEC
 DISK USED  *       837.67 MB      
 GA USED    *         0.00 MB       (max)       0.00 MB       (current)
 **********************************************************************************************************************************

        CCSD(T)         RHF-SCF 
   -152.69082051   -152.12589393
 **********************************************************************************************************************************
 Variable memory released
