
 Primary working directories    : /tmp/1059987.115.gen6.q
 Secondary working directories  : /tmp/1059987.115.gen6.q
 Wavefunction directory         : /home/vulcan/jj04645/wfu/
 Main file repository           : /tmp/1059987.115.gen6.q/

 ARCHNAME  : Linux/x86_64
 FC        : /opt/intel/compilers_and_libraries_2016.1.150/linux/bin/intel64/ifort
 FCVERSION : 16.0.1
 BLASLIB   : -mkl
 id        : ccgc

 Nodes     nprocs
 n090         1
 ga_uses_ma=false, calling ma_init with nominal heap.
 GA-space will be limited to   8.0 MW (determined by -G option)

 Using customized tuning parameters: mindgm=10; mindgv=16; mindgc=4; mindgr=1; noblas=0; mincuda=1000; minvec=7
 default implementation of scratch files=df  

 ***,Optimization of 1_4_cyclohexadiene
 memory,1000,m
 gthresh,energy=1.0d-12,orbital=1.0d-10,oneint=1.0d-16,twoint=1.0d-16,optgrad=1.0d-6,compress=1.0d-13
 geomtyp=xyz
 
 bohr
 geometry = {
  H    4.1020350632   -0.0080200180   -1.6462964802
  C    2.8410811799    0.0003903854    0.0000000000
  C   -1.2630701291    2.3712923215    0.0000000000
  C   -1.2671526605   -2.3634206608    0.0000000000
  C   -2.8410811799    0.0003903854    0.0000000000
  C    1.2671526605   -2.3634206608    0.0000000000
  C    1.2630701291    2.3712923215    0.0000000000
  H   -2.2664672561    4.1600044492    0.0000000000
  H    2.2664672561    4.1600044492    0.0000000000
  H   -4.1020350632   -0.0080200180   -1.6462964802
  H    2.2703827865   -4.1522264593   -0.0000000000
  H   -2.2703827865   -4.1522264593    0.0000000000
  H    4.1020350632   -0.0080200180    1.6462964802
  H   -4.1020350632   -0.0080200180    1.6462964802
 }
 
 basis=VDZ
 {rhf;maxit,200}
 {ccsd(t);maxit,200}

 Variables initialized (661), CPU time= 0.01 sec
 Commands  initialized (458), CPU time= 0.00 sec, 486 directives.
 Default parameters read. Elapsed time= 0.04 sec

 Checking input...
 Passed
1


                                         ***  PROGRAM SYSTEM MOLPRO  ***
                         Copyright, University College Cardiff Consultants Limited, 2008

                                    Version 2010.1 linked May 16 2016 07:17:05


 **********************************************************************************************************************************
 LABEL *   Optimization of 1_4_cyclohexadiene                                            
 Linux-4.4.3/n090(x86_64) 64 bit mpp version                                             DATE: 06-May-24          TIME: 14:33:51  
 **********************************************************************************************************************************

 SHA1:             9e8077add272b0f3cad6f7df79ec5211205f459d
 **********************************************************************************************************************************

 THRESHOLDS:

 ZERO    =  1.00D-12  ONEINT  =  1.00D-16  TWOINT  =  1.00D-16  PREFAC  =  1.00D-14  LOCALI  =  1.00D-09  EORDER  =  1.00D-04
 ENERGY  =  1.00D-12  ETEST   =  0.00D+00  EDENS   =  0.00D+00  THRDEDEF=  1.00D-06  GRADIENT=  1.00D-02  STEP    =  1.00D-03
 ORBITAL =  1.00D-10  CIVEC   =  1.00D-05  COEFF   =  1.00D-04  PRINTCI =  5.00D-02  PUNCHCI =  9.90D+01  OPTGRAD =  1.00D-06
 OPTENERG=  1.00D-06  OPTSTEP =  3.00D-04  THRGRAD =  1.00D-10  COMPRESS=  1.00D-13  VARMIN  =  1.00D-07  VARMAX  =  1.00D-03
 THRDOUB =  0.00D+00  THRDIV  =  1.00D-05  THRRED  =  1.00D-07  THRPSP  =  1.00D+00  THRDC   =  1.00D-10  THRCS   =  1.00D-10
 THRNRM  =  1.00D-08  THREQ   =  0.00D+00  THRDE   =  1.00D+00  THRREF  =  1.00D-05  SPARFAC =  1.00D+00  THRDLP  =  1.00D-07
 THRDIA  =  1.00D-10  THRDLS  =  1.00D-07  THRGPS  =  0.00D+00  THRKEX  =  0.00D+00  THRDIS  =  2.00D-01  THRVAR  =  1.00D-10
 THRLOC  =  1.00D-06  THRGAP  =  1.00D-06  THRLOCT = -1.00D+00  THRGAPT = -1.00D+00  THRORB  =  1.00D-06  THRMLTP =  0.00D+00
 THRCPQCI=  1.00D-10  KEXTA   =  0.00D+00  THRCOARS=  0.00D+00  SYMTOL  =  1.00D-06  GRADTOL =  1.00D-06  THROVL  =  1.00D-08
 THRORTH =  1.00D-08  GRID    =  1.00D-06  GRIDMAX =  1.00D-03  DTMAX   =  0.00D+00

 SETTING GEOMTYP        =    XYZ
 ZUNIT=BOHR
 

 Variable memory set to 1000000000 words,  buffer space   230000 words

 SETTING BASIS          =    VDZ


 Recomputing integrals since basis changed


 Using spherical harmonics

 Library entry H      S cc-pVDZ              selected for orbital group  1
 Library entry H      P cc-pVDZ              selected for orbital group  1
 Library entry C      S cc-pVDZ              selected for orbital group  2
 Library entry C      P cc-pVDZ              selected for orbital group  2
 Library entry C      D cc-pVDZ              selected for orbital group  2

1PROGRAM * SEWARD (Integral evaluation for generally contracted gaussian basis sets)     Author: Roland Lindh, 1990

 Geometry written to block  1 of record 700


 Point group  C2v 



 ATOMIC COORDINATES

 NR  ATOM    CHARGE       X              Y              Z

   1  H       1.00    4.102035063   -0.008020018   -1.646296480
   2  H       1.00   -4.102035063   -0.008020018   -1.646296480
   3  H       1.00    4.102035063   -0.008020018    1.646296480
   4  H       1.00   -4.102035063   -0.008020018    1.646296480
   5  C       6.00    2.841081180    0.000390385    0.000000000
   6  C       6.00   -2.841081180    0.000390385    0.000000000
   7  C       6.00   -1.263070129    2.371292321    0.000000000
   8  C       6.00    1.263070129    2.371292321    0.000000000
   9  C       6.00   -1.267152661   -2.363420661    0.000000000
  10  C       6.00    1.267152661   -2.363420661    0.000000000
  11  H       1.00   -2.266467256    4.160004449    0.000000000
  12  H       1.00    2.266467256    4.160004449    0.000000000
  13  H       1.00    2.270382786   -4.152226459    0.000000000
  14  H       1.00   -2.270382786   -4.152226459    0.000000000

 Bond lengths in Bohr (Angstrom)

 1-5  2.073732753  2-6  2.073732753  3-5  2.073732753  4-6  2.073732753  5-8  2.848033509
     ( 1.097372111)     ( 1.097372111)     ( 1.097372111)     ( 1.097372111)     ( 1.507114423)

  5-10  2.839868597   6- 7  2.848033509   6- 9  2.839868597   7- 8  2.526140258   7-11  2.050925857
       ( 1.502793738)       ( 1.507114423)       ( 1.502793738)       ( 1.336775851)       ( 1.085303221)

  8-12  2.050925857   9-10  2.534305321   9-14  2.050925857  10-13  2.050925857
       ( 1.085303221)       ( 1.341096617)       ( 1.085303221)       ( 1.085303221)

 Bond angles

  1- 5- 3  105.09933125   1- 5- 8  109.89419389   1- 5-10  109.48905154   2- 6- 4  105.09933125

  2- 6- 7  109.89419389   2- 6- 9  109.48905154   3- 5- 8  109.89419389   3- 5-10  109.48905154

  4- 6- 7  109.89419389   4- 6- 9  109.48905154   5- 8- 7  123.64670973   5- 8-12  117.06257984

  5-10- 9  123.65740816   5-10-13  117.05723063   6- 7- 8  123.64670973   6- 7-11  117.06257984

  6- 9-10  123.65740816   6- 9-14  117.05723063   7- 6- 9  112.69588211   7- 8-12  119.29071043

  8- 5-10  112.69588211   8- 7-11  119.29071043   9-10-13  119.28536121  10- 9-14  119.28536121

 NUCLEAR CHARGE:                   44
 NUMBER OF PRIMITIVE AOS:         218
 NUMBER OF SYMMETRY AOS:          212
 NUMBER OF CONTRACTIONS:          124   (  43A1  +  43B1  +  19B2  +  19A2  )
 NUMBER OF CORE ORBITALS:           6   (   3A1  +   3B1  +   0B2  +   0A2  )
 NUMBER OF VALENCE ORBITALS:       32   (  12A1  +  12B1  +   4B2  +   4A2  )


 NUCLEAR REPULSION ENERGY  217.75819391


 Eigenvalues of metric

         1 0.345E-02 0.562E-02 0.182E-01 0.257E-01 0.273E-01 0.360E-01 0.392E-01 0.436E-01
         2 0.670E-03 0.169E-02 0.315E-02 0.432E-02 0.143E-01 0.163E-01 0.259E-01 0.312E-01
         3 0.356E-01 0.382E-01 0.112E+00 0.170E+00 0.200E+00 0.349E+00 0.423E+00 0.537E+00
         4 0.227E-01 0.366E-01 0.768E-01 0.990E-01 0.147E+00 0.243E+00 0.308E+00 0.349E+00


 Contracted 2-electron integrals neglected if value below      1.0D-16
 AO integral compression algorithm  1   Integral accuracy      1.0D-16

     75.497 MB (compressed) written to integral file ( 99.6%)

     Node minimum: 75.497 MB, node maximum: 75.497 MB


 NUMBER OF SORTED TWO-ELECTRON INTEGRALS:    7884547.     BUFFER LENGTH:  32768
 NUMBER OF SEGMENTS:   1  SEGMENT LENGTH:    7884547      RECORD LENGTH: 524288

 Memory used in sort:       8.44 MW

 SORT1 READ     9485832. AND WROTE     7844891. INTEGRALS IN     23 RECORDS. CPU TIME:     0.15 SEC, REAL TIME:     0.19 SEC
 SORT2 READ     7844891. AND WROTE     7884547. INTEGRALS IN    288 RECORDS. CPU TIME:     0.10 SEC, REAL TIME:     0.14 SEC

 FILE SIZES:   FILE 1:    66.3 MBYTE,  FILE 4:    96.5 MBYTE,   TOTAL:    162.8 MBYTE

 OPERATOR DM      FOR CENTER  0  COORDINATES:    0.000000    0.000000    0.000000


 **********************************************************************************************************************************
 DATASETS  * FILE   NREC   LENGTH (MB)   RECORD NAMES
              1      19       66.32       500      610      700      900      950      970     1000      129      960     1100   
                                          VAR    BASINP    GEOM    SYMINP    ZMAT    AOBASIS   BASIS     P2S    ABASIS      S 
                                         1400     1410     1200     1210     1080     1600     1650     1300     1700   
                                           T        V       H0       H01     AOSYM     SMH    MOLCAS    ERIS     OPER   

 PROGRAMS   *        TOTAL       INT
 CPU TIMES  *         1.65      1.61
 REAL TIME  *         1.95 SEC
 DISK USED  *       239.21 MB      
 GA USED    *         0.00 MB       (max)       0.00 MB       (current)
 **********************************************************************************************************************************

1PROGRAM * RHF-SCF (CLOSED SHELL)       Authors: W. Meyer, H.-J. Werner


 NUMBER OF ELECTRONS:      22+   22-
 CONVERGENCE THRESHOLDS:    1.00E-10 (Density)    1.00E-13 (Energy)
 MAX. NUMBER OF ITERATIONS:      200
 INTERPOLATION TYPE:            DIIS
 INTERPOLATION STEPS:              2 (START)      1 (STEP)
 LEVEL SHIFTS:                  0.00 (CLOSED)  0.00 (OPEN) 



 Orbital guess generated from atomic densities. Full valence occupancy:   15  15   4   4

 Molecular orbital dump at record        2100.2

 Initial alpha occupancy:  10   8   3   1
 Initial beta  occupancy:  10   8   3   1
 Wave function symmetry:    1

 ITERATION    DDIFF          GRAD             ENERGY        2-EL.EN.            DIPOLE MOMENTS         DIIS
    1      0.000D+00      0.000D+00      -231.78148781    590.482585    0.00000    0.00152    0.00000    0
    2      0.000D+00      0.837D-02      -231.84384090    585.626354    0.00000    0.00075    0.00000    1
    3      0.169D-01      0.329D-02      -231.85139512    587.951120    0.00000    0.00062    0.00000    2
    4      0.628D-02      0.112D-02      -231.85263813    587.340677    0.00000    0.00061    0.00000    3
    5      0.234D-02      0.114D-03      -231.85265648    587.345787    0.00000    0.00057    0.00000    4
    6      0.430D-03      0.244D-04      -231.85265707    587.342681    0.00000    0.00058    0.00000    5
    7      0.600D-04      0.811D-05      -231.85265713    587.343725    0.00000    0.00057    0.00000    6
    8      0.233D-04      0.158D-05      -231.85265713    587.343609    0.00000    0.00057    0.00000    7
    9      0.548D-05      0.323D-06      -231.85265713    587.343647    0.00000    0.00057    0.00000    6
   10      0.122D-05      0.672D-07      -231.85265713    587.343640    0.00000    0.00057    0.00000    6
   11      0.258D-06      0.993D-08      -231.85265713    587.343643    0.00000    0.00057    0.00000    6
   12      0.289D-07      0.262D-08      -231.85265713    587.343642    0.00000    0.00057    0.00000    6
   13      0.772D-08      0.863D-09      -231.85265713    587.343642    0.00000    0.00057    0.00000    6
   14      0.213D-08      0.203D-09      -231.85265713    587.343642    0.00000    0.00057    0.00000    6
   15      0.627D-09      0.465D-10      -231.85265713    587.343642    0.00000    0.00057    0.00000    6
   16      0.967D-10      0.143D-10      -231.85265713    587.343642    0.00000    0.00057    0.00000    0

 Final occupancy:  10   8   3   1

 !RHF STATE 1.1 Energy               -231.852657134154
 Nuclear energy                       217.75819391
 One-electron energy                 -743.28267205
 Two-electron energy                  293.67182100
 Virial quotient                       -1.00115533
 !RHF STATE 1.1 Dipole moment           0.00000000     0.00056931     0.00000000
 Dipole moment /Debye                   0.00000000     0.00144695     0.00000000

 Orbital energies:

         1.1          2.1          3.1          4.1          5.1          6.1          7.1          8.1          9.1         10.1
    -11.233778   -11.229331   -11.229186    -1.122181    -1.008417    -0.861939    -0.678374    -0.597612    -0.561515    -0.490803

        11.1         12.1
      0.180774     0.223623

         1.2          2.2          3.2          4.2          5.2          6.2          7.2          8.2          9.2         10.2
    -11.233778   -11.227694   -11.227592    -1.004927    -0.784623    -0.654605    -0.531811    -0.445801     0.217554     0.257928

         1.3          2.3          3.3          4.3          5.3
     -0.595265    -0.358815    -0.329739     0.256979     0.660759

         1.4          2.4          3.4
     -0.561729     0.174488     0.193454


 **********************************************************************************************************************************
 DATASETS  * FILE   NREC   LENGTH (MB)   RECORD NAMES
              1      19       66.32       500      610      700      900      950      970     1000      129      960     1100   
                                          VAR    BASINP    GEOM    SYMINP    ZMAT    AOBASIS   BASIS     P2S    ABASIS      S 
                                         1400     1410     1200     1210     1080     1600     1650     1300     1700   
                                           T        V       H0       H01     AOSYM     SMH    MOLCAS    ERIS     OPER   

              2       3        0.59       700     1000     2100   
                                         GEOM     BASIS     RHF  

 PROGRAMS   *        TOTAL       RHF       INT
 CPU TIMES  *         2.00      0.35      1.61
 REAL TIME  *         2.38 SEC
 DISK USED  *       239.21 MB      
 GA USED    *         0.00 MB       (max)       0.00 MB       (current)
 **********************************************************************************************************************************


1PROGRAM * CCSD (Closed-shell coupled cluster)     Authors: C. Hampel, H.-J. Werner, 1991, M. Deegan, P.J. Knowles, 1992


 Convergence thresholds:  THRVAR = 1.00D-08  THRDEN = 1.00D-12

 CCSD(T)     terms to be evaluated (factor= 1.000)


 Number of core orbitals:           6 (   3   3   0   0 )
 Number of closed-shell orbitals:  16 (   7   5   3   1 )
 Number of external orbitals:     102 (  33  35  16  18 )

 Molecular orbitals read from record     2100.2  Type=RHF/CANONICAL (state 1.1)

 Number of N-1 electron functions:              16
 Number of N-2 electron functions:             136
 Number of singly external CSFs:               472
 Number of doubly external CSFs:            343024
 Total number of CSFs:                      343497

 Length of J-op  integral file:               0.00 MB
 Length of K-op  integral file:               0.33 MB
 Length of 3-ext integral record:             0.00 MB

 Memory could be reduced to 6.26 Mwords without degradation in triples

 Integral transformation finished. Total CPU:   0.15 sec, npass=  1  Memory used:   1.93 MW

 Reference energy:                   -231.85265713

 MP2 singlet pair energy:              -0.50639755
 MP2 triplet pair energy:              -0.29378229
 MP2 correlation energy:               -0.80017984
 MP2 total energy:                   -232.65283698

 SCS-MP2 correlation energy:           -0.79047493   (PS=  1.200000  PT=  0.333333)
 SCS-MP2 total energy:               -232.64313207

 ITER.      SQ.NORM     CORR.ENERGY   TOTAL ENERGY   ENERGY CHANGE        DEN1      VAR(S)    VAR(P)  DIIS     TIME
   1      1.31822401    -0.85463317  -232.70729030    -0.05445332    -0.03136096  0.31D-02  0.54D-02  1  1     0.49
   2      1.34642602    -0.86045990  -232.71311704    -0.00582674    -0.02420988  0.68D-04  0.70D-03  2  2     0.86
   3      1.35481335    -0.86077219  -232.71342932    -0.00031228    -0.00386604  0.20D-04  0.69D-04  3  3     1.22
   4      1.35835792    -0.86089312  -232.71355026    -0.00012094    -0.00107832  0.10D-05  0.68D-05  4  4     1.59
   5      1.35919329    -0.86090496  -232.71356210    -0.00001184    -0.00017816  0.50D-07  0.66D-06  5  5     1.95
   6      1.35935076    -0.86089730  -232.71355444     0.00000766    -0.00002579  0.49D-08  0.36D-07  6  6     2.32
   7      1.35936618    -0.86089797  -232.71355510    -0.00000066     0.00000108  0.17D-08  0.32D-08  6  2     2.69
   8      1.35937084    -0.86089783  -232.71355496     0.00000014    -0.00000094  0.56D-10  0.35D-09  6  1     3.05
   9      1.35937088    -0.86089790  -232.71355503    -0.00000007     0.00000044  0.18D-10  0.52D-10  6  3     3.42
  10      1.35937081    -0.86089794  -232.71355507    -0.00000004     0.00000017  0.80D-12  0.82D-11  6  4     3.79
  11      1.35937025    -0.86089797  -232.71355510    -0.00000003     0.00000022  0.85D-13  0.11D-11  6  6     4.16
  12      1.35937014    -0.86089798  -232.71355511    -0.00000001     0.00000005  0.19D-13  0.98D-13  6  5     4.53
  13      1.35937014    -0.86089798  -232.71355511     0.00000000    -0.00000000  0.76D-14  0.15D-13  6  2     4.90
  14      1.35937016    -0.86089797  -232.71355511     0.00000000    -0.00000001  0.55D-15  0.13D-14  6  1     5.25
  15      1.35937017    -0.86089797  -232.71355511     0.00000000    -0.00000000  0.17D-15  0.15D-15  6  3     5.62
  16      1.35937017    -0.86089797  -232.71355511     0.00000000    -0.00000000  0.19D-16  0.24D-16  6  4     5.99
  17      1.35937017    -0.86089797  -232.71355511    -0.00000000     0.00000000  0.34D-17  0.38D-17  6  6     6.35
  18      1.35937017    -0.86089797  -232.71355511    -0.00000000     0.00000000  0.23D-18  0.65D-18  6  5     6.72
  19      1.35937017    -0.86089797  -232.71355511     0.00000000     0.00000000  0.29D-19  0.15D-18  6  2     7.09
  20      1.35937017    -0.86089797  -232.71355511     0.00000000    -0.00000000  0.65D-21  0.26D-19  6  1     7.46
  21      1.35937017    -0.86089797  -232.71355511     0.00000000    -0.00000000  0.14D-21  0.18D-20  6  4     7.82
  22      1.35937017    -0.86089797  -232.71355511     0.00000000    -0.00000000  0.16D-22  0.85D-22  6  3     8.18

 Norm of t1 vector:      0.07885111      S-energy:    -0.00000000      T1 diagnostic:  0.00985639
                                                                       D1 diagnostic:  0.02886136

 Doubles amplitudes (print threshold =  0.500E-01):

         I         J         SYM. A    SYM. B    A         B      T(IJ, AB)

        14        14         4         4         1         1     -0.07464466
        15        14         4         4         2         1      0.06096063
        15        15         4         4         2         2     -0.05808932


 Total CPU time for triples:      5.65 sec


 RESULTS
 =======

  Reference energy                   -231.852657134153
  CCSD singlet pair energy             -0.593574146401
  CCSD triplet pair energy             -0.267323827895
  CCSD correlation energy              -0.860897974302

  Triples (T) contribution             -0.032225637275
  Total correlation energy             -0.893123611577

  CCSD total energy                  -232.713555108455
  CCSD[T] energy                     -232.746514073425
  CCSD-T energy                      -232.745461950616
 !CCSD(T) total energy               -232.745780745730

 Timing summary (sec):

 STEP                 CPU(USER)    SYS     CPU(TOT)    WALL
 Transformation          0.16      0.04      0.20      0.20
 CCSD iterations         8.02      0.45      8.47      8.51
 Triples                 5.65      0.21      5.86      5.86

 Program statistics:

 Available memory in ccsd:               999998876
 Min. memory needed in ccsd:                927875
 Max. memory used in ccsd:                 1233851
 Max. memory used in cckext:               1232687 (22 integral passes)



 **********************************************************************************************************************************
 DATASETS  * FILE   NREC   LENGTH (MB)   RECORD NAMES
              1      20       90.90       500      610      700      900      950      970     1000      129      960     1100   
                                          VAR    BASINP    GEOM    SYMINP    ZMAT    AOBASIS   BASIS     P2S    ABASIS      S 
                                         1400     1410     1200     1210     1080     1600     1650     1300     1700     1380   
                                           T        V       H0       H01     AOSYM     SMH    MOLCAS    ERIS     OPER     JKOP   

              2       3        0.59       700     1000     2100   
                                         GEOM     BASIS     RHF  

 PROGRAMS   *        TOTAL   CCSD(T)       RHF       INT
 CPU TIMES  *        15.83     13.83      0.35      1.61
 REAL TIME  *        16.97 SEC
 DISK USED  *       239.21 MB      
 GA USED    *         0.00 MB       (max)       0.00 MB       (current)
 **********************************************************************************************************************************

        CCSD(T)         RHF-SCF 
   -232.74578075   -231.85265713
 **********************************************************************************************************************************
 Variable memory released
