
 Primary working directories    : /tmp/1047041.681.gen6.q
 Secondary working directories  : /tmp/1047041.681.gen6.q
 Wavefunction directory         : /home/vulcan/mel64643/wfu/
 Main file repository           : /tmp/1047041.681.gen6.q/

 ARCHNAME  : Linux/x86_64
 FC        : /opt/intel/compilers_and_libraries_2016.1.150/linux/bin/intel64/ifort
 FCVERSION : 16.0.1
 BLASLIB   : -mkl
 id        : ccgc

 Nodes     nprocs
 n080         1
 ga_uses_ma=false, calling ma_init with nominal heap.
 GA-space will be limited to   8.0 MW (determined by -G option)

 Using customized tuning parameters: mindgm=10; mindgv=16; mindgc=4; mindgr=1; noblas=0; mincuda=1000; minvec=7
 default implementation of scratch files=df  

 ***,Optimization of ben_hcn
 memory,1000,m
 gthresh,energy=1.0d-12,orbital=1.0d-10,oneint=1.0d-16,twoint=1.0d-16,optgrad=1.0d-6,compress=1.0d-13
 geomtyp=xyz
 
 
 
 bohr
 geometry = {
  C   -1.8868211817    1.3700849980    2.2844988400
  C   -1.8583322877    2.6907866793   -0.0053618576
  C   -1.8734832940    1.3681719135   -2.2942301226
  C   -1.9170860593   -1.2749342550   -2.2931540755
  C   -1.9455611474   -2.5954532295   -0.0034239119
  C   -1.9304029447   -1.2730406620    2.2853525158
  H   -1.8574390538    2.3943228840    4.0577030748
  H   -1.8130935976    4.7332696226   -0.0060948851
  H   -1.8513901097    2.3887517205   -4.0638725131
  H   -1.9342016739   -2.2994048599   -4.0663534035
  H   -1.9786829835   -4.6481199233   -0.0026549961
  H   -1.9401835817   -2.2988356131    4.0636214130
  N    6.6242280110   -0.1956665516    0.0125990614
  C    4.4344824272   -0.0732873509    0.0136711352
  H    2.4147687238    0.0398781755    0.0148002389
 }
 
 basis=aug-cc-pvdz, H=cc-pvdz
 {rhf;maxit,200}
 {ccsd(t)}

 Variables initialized (661), CPU time= 0.01 sec
 Commands  initialized (458), CPU time= 0.00 sec, 486 directives.
 Default parameters read. Elapsed time= 0.04 sec

 Checking input...
 Passed
1


                                         ***  PROGRAM SYSTEM MOLPRO  ***
                         Copyright, University College Cardiff Consultants Limited, 2008

                                    Version 2010.1 linked May 16 2016 07:17:05


 **********************************************************************************************************************************
 LABEL *   Optimization of ben_hcn                                                       
 Linux-4.4.3/n080(x86_64) 64 bit mpp version                                             DATE: 08-Mar-24          TIME: 02:17:52  
 **********************************************************************************************************************************

 SHA1:             9e8077add272b0f3cad6f7df79ec5211205f459d
 **********************************************************************************************************************************

 THRESHOLDS:

 ZERO    =  1.00D-12  ONEINT  =  1.00D-16  TWOINT  =  1.00D-16  PREFAC  =  1.00D-14  LOCALI  =  1.00D-09  EORDER  =  1.00D-04
 ENERGY  =  1.00D-12  ETEST   =  0.00D+00  EDENS   =  0.00D+00  THRDEDEF=  1.00D-06  GRADIENT=  1.00D-02  STEP    =  1.00D-03
 ORBITAL =  1.00D-10  CIVEC   =  1.00D-05  COEFF   =  1.00D-04  PRINTCI =  5.00D-02  PUNCHCI =  9.90D+01  OPTGRAD =  1.00D-06
 OPTENERG=  1.00D-06  OPTSTEP =  3.00D-04  THRGRAD =  1.00D-10  COMPRESS=  1.00D-13  VARMIN  =  1.00D-07  VARMAX  =  1.00D-03
 THRDOUB =  0.00D+00  THRDIV  =  1.00D-05  THRRED  =  1.00D-07  THRPSP  =  1.00D+00  THRDC   =  1.00D-10  THRCS   =  1.00D-10
 THRNRM  =  1.00D-08  THREQ   =  0.00D+00  THRDE   =  1.00D+00  THRREF  =  1.00D-05  SPARFAC =  1.00D+00  THRDLP  =  1.00D-07
 THRDIA  =  1.00D-10  THRDLS  =  1.00D-07  THRGPS  =  0.00D+00  THRKEX  =  0.00D+00  THRDIS  =  2.00D-01  THRVAR  =  1.00D-10
 THRLOC  =  1.00D-06  THRGAP  =  1.00D-06  THRLOCT = -1.00D+00  THRGAPT = -1.00D+00  THRORB  =  1.00D-06  THRMLTP =  0.00D+00
 THRCPQCI=  1.00D-10  KEXTA   =  0.00D+00  THRCOARS=  0.00D+00  SYMTOL  =  1.00D-06  GRADTOL =  1.00D-06  THROVL  =  1.00D-08
 THRORTH =  1.00D-08  GRID    =  1.00D-06  GRIDMAX =  1.00D-03  DTMAX   =  0.00D+00

 SETTING GEOMTYP        =    XYZ
 ZUNIT=BOHR
 

 Variable memory set to 1000000000 words,  buffer space   230000 words

 SETTING BASIS          =    AUG-CC-PVDZ,H=CC-PVDZ


 Recomputing integrals since basis changed


 Using spherical harmonics

 Library entry C      S aug-cc-pVDZ          selected for orbital group  1
 Library entry C      P aug-cc-pVDZ          selected for orbital group  1
 Library entry C      D aug-cc-pVDZ          selected for orbital group  1
 Library entry H      S cc-pVDZ              selected for orbital group  2
 Library entry H      P cc-pVDZ              selected for orbital group  2
 Library entry N      S aug-cc-pVDZ          selected for orbital group  3
 Library entry N      P aug-cc-pVDZ          selected for orbital group  3
 Library entry N      D aug-cc-pVDZ          selected for orbital group  3

1PROGRAM * SEWARD (Integral evaluation for generally contracted gaussian basis sets)     Author: Roland Lindh, 1990

 Geometry written to block  1 of record 700


 Point group  C1  



 ATOMIC COORDINATES

 NR  ATOM    CHARGE       X              Y              Z

   1  C       6.00   -1.886821182    1.370084998    2.284498840
   2  C       6.00   -1.858332288    2.690786679   -0.005361858
   3  C       6.00   -1.873483294    1.368171913   -2.294230123
   4  C       6.00   -1.917086059   -1.274934255   -2.293154075
   5  C       6.00   -1.945561147   -2.595453229   -0.003423912
   6  C       6.00   -1.930402945   -1.273040662    2.285352516
   7  H       1.00   -1.857439054    2.394322884    4.057703075
   8  H       1.00   -1.813093598    4.733269623   -0.006094885
   9  H       1.00   -1.851390110    2.388751721   -4.063872513
  10  H       1.00   -1.934201674   -2.299404860   -4.066353403
  11  H       1.00   -1.978682983   -4.648119923   -0.002654996
  12  H       1.00   -1.940183582   -2.298835613    4.063621413
  13  N       7.00    6.624228011   -0.195666552    0.012599061
  14  C       6.00    4.434482427   -0.073287351    0.013671135
  15  H       1.00    2.414768724    0.039878176    0.014800239

 Bond lengths in Bohr (Angstrom)

 1-2  2.643582146  1-6  2.643485077  1-7  2.047969681  2-3  2.643569047  2-8  2.042984006
     ( 1.398923422)     ( 1.398872055)     ( 1.083738880)     ( 1.398916490)     ( 1.081100574)

  3- 4  2.643466016   3- 9  2.042964865   4- 5  2.643377653   4-10  2.047942583   5- 6  2.643388414
       ( 1.398861968)       ( 1.081090446)       ( 1.398815209)       ( 1.083724540)       ( 1.398820903)

  5-11  2.052934047   6-12  2.052946958  13-14  2.193162908  14-15  2.022881893
       ( 1.086365909)       ( 1.086372742)       ( 1.160571826)       ( 1.070462995)

 Bond angles

  1- 2- 3  119.99746607   1- 2- 8  120.00097959   1- 6- 5  120.00123487   1- 6-12  119.99734187

  2-1-6  119.99850345   2-1-7  119.99820221   2-3-4  119.99920923   2-3-9  119.99939130

  3- 2- 8  120.00050307   3- 4- 5  120.00130471   3- 4-10  119.99742764   4- 3- 9  120.00139938

  4- 5- 6  120.00228165   4- 5-11  119.99937924   5- 4-10  120.00103781   5- 6-12  120.00023701

  6- 1- 7  120.00082583   6- 5-11  119.99833449  13-14-15  179.99091354

 NUCLEAR CHARGE:                   56
 NUMBER OF PRIMITIVE AOS:         345
 NUMBER OF SYMMETRY AOS:          329
 NUMBER OF CONTRACTIONS:          219   ( 219A   )
 NUMBER OF CORE ORBITALS:           8   (   8A   )
 NUMBER OF VALENCE ORBITALS:       39   (  39A   )


 NUCLEAR REPULSION ENERGY  303.39348094


 Eigenvalues of metric

         1 0.864E-05 0.186E-04 0.229E-04 0.534E-04 0.630E-04 0.630E-04 0.929E-04 0.929E-04


 Contracted 2-electron integrals neglected if value below      1.0D-16
 AO integral compression algorithm  1   Integral accuracy      1.0D-16

     2340.946 MB (compressed) written to integral file ( 91.3%)

     Node minimum: 2340.946 MB, node maximum: 2340.946 MB


 NUMBER OF SORTED TWO-ELECTRON INTEGRALS:  290176095.     BUFFER LENGTH:  32768
 NUMBER OF SEGMENTS:  19  SEGMENT LENGTH:   15999762      RECORD LENGTH: 524288

 Memory used in sort:      16.56 MW

 SORT1 READ   320642736. AND WROTE   287605434. INTEGRALS IN    832 RECORDS. CPU TIME:     2.92 SEC, REAL TIME:     4.74 SEC
 SORT2 READ   287605434. AND WROTE   290176095. INTEGRALS IN   8930 RECORDS. CPU TIME:     1.99 SEC, REAL TIME:     3.04 SEC

 FILE SIZES:   FILE 1:  2151.8 MBYTE,  FILE 4:  3489.7 MBYTE,   TOTAL:   5641.5 MBYTE

 OPERATOR DM      FOR CENTER  0  COORDINATES:    0.000000    0.000000    0.000000


 **********************************************************************************************************************************
 DATASETS  * FILE   NREC   LENGTH (MB)   RECORD NAMES
              1      19     2152.39       500      610      700      900      950      970     1000      129      960     1100   
                                          VAR    BASINP    GEOM    SYMINP    ZMAT    AOBASIS   BASIS     P2S    ABASIS      S 
                                         1400     1410     1200     1210     1080     1600     1650     1300     1700   
                                           T        V       H0       H01     AOSYM     SMH    MOLCAS    ERIS     OPER   

 PROGRAMS   *        TOTAL       INT
 CPU TIMES  *        15.75     15.71
 REAL TIME  *        20.25 SEC
 DISK USED  *         7.98 GB      
 GA USED    *         0.01 MB       (max)       0.00 MB       (current)
 **********************************************************************************************************************************

1PROGRAM * RHF-SCF (CLOSED SHELL)       Authors: W. Meyer, H.-J. Werner


 NUMBER OF ELECTRONS:      28+   28-    SPACE SYMMETRY=1    SPIN SYMMETRY: Singlet 
 CONVERGENCE THRESHOLDS:    1.00E-10 (Density)    1.00E-13 (Energy)
 MAX. NUMBER OF ITERATIONS:      200
 INTERPOLATION TYPE:            DIIS
 INTERPOLATION STEPS:              2 (START)      1 (STEP)
 LEVEL SHIFTS:                  0.00 (CLOSED)  0.00 (OPEN) 



 Orbital guess generated from atomic densities. Full valence occupancy:   47

 Molecular orbital dump at record        2100.2

 ITERATION    DDIFF          GRAD             ENERGY        2-EL.EN.            DIPOLE MOMENTS         DIIS
    1      0.000D+00      0.000D+00      -323.54136123    822.123754   -1.89896    0.09476    0.00470    0
    2      0.000D+00      0.292D-02      -323.59780050    819.103399   -1.36872    0.05247   -0.00357    1
    3      0.781D-02      0.179D-02      -323.61439604    820.248546   -1.72962    0.07871   -0.00114    2
    4      0.260D-02      0.576D-03      -323.61673240    820.450231   -1.63887    0.07196   -0.00156    3
    5      0.963D-03      0.133D-03      -323.61686173    820.190252   -1.66280    0.07310   -0.00191    4
    6      0.223D-03      0.229D-04      -323.61686785    820.217113   -1.66415    0.07298   -0.00186    5
    7      0.845D-04      0.434D-05      -323.61686805    820.212231   -1.66450    0.07298   -0.00192    6
    8      0.108D-04      0.123D-05      -323.61686807    820.213224   -1.66482    0.07299   -0.00188    7
    9      0.344D-05      0.265D-06      -323.61686807    820.213254   -1.66478    0.07298   -0.00191    6
   10      0.811D-06      0.619D-07      -323.61686807    820.213237   -1.66479    0.07299   -0.00189    6
   11      0.183D-06      0.319D-07      -323.61686807    820.213249   -1.66479    0.07298   -0.00190    7
   12      0.715D-07      0.662D-08      -323.61686807    820.213245   -1.66478    0.07298   -0.00190    7
   13      0.219D-07      0.228D-08      -323.61686807    820.213247   -1.66478    0.07298   -0.00190    7
   14      0.589D-08      0.685D-09      -323.61686807    820.213246   -1.66478    0.07298   -0.00190    7
   15      0.210D-08      0.288D-09      -323.61686807    820.213246   -1.66478    0.07298   -0.00190    8
   16      0.722D-09      0.923D-10      -323.61686807    820.213246   -1.66478    0.07298   -0.00190    8
   17      0.265D-09      0.418D-10      -323.61686807    820.213246   -1.66478    0.07298   -0.00190    8
   18      0.140D-09      0.206D-10      -323.61686807    820.213246   -1.66478    0.07298   -0.00190    8
   19      0.252D-09      0.882D-11      -323.61686807    820.213246   -1.66478    0.07298   -0.00190    8
   20      0.197D-09      0.312D-11      -323.61686807    820.213246   -1.66478    0.07298   -0.00190    9
   21      0.133D-09      0.130D-11      -323.61686807    820.213246   -1.66478    0.07298   -0.00190    9
   22      0.860D-10      0.829D-12      -323.61686807    820.213246   -1.66478    0.07298   -0.00190    9
   23      0.100D-09      0.626D-12      -323.61686807    820.213246   -1.66478    0.07298   -0.00190    9
   24      0.627D-10      0.658D-12      -323.61686807    820.213246   -1.66478    0.07298   -0.00190    9
   25      0.543D-10      0.487D-12      -323.61686807    820.213246   -1.66478    0.07298   -0.00190    9
   26      0.341D-10      0.503D-12      -323.61686807    820.213246   -1.66478    0.07298   -0.00190    9
   27      0.289D-10      0.446D-12      -323.61686807    820.213246   -1.66478    0.07298   -0.00190    0

 Final occupancy:  28

 !RHF STATE 1.1 Energy               -323.616868070381
 Nuclear energy                       303.39348094
 One-electron energy                -1037.11697217
 Two-electron energy                  410.10662316
 Virial quotient                       -1.00170982
 !RHF STATE 1.1 Dipole moment          -1.66478326     0.07298377    -0.00189687
 Dipole moment /Debye                  -4.23117984     0.18549410    -0.00482104

 Orbital energies:

         1.1          2.1          3.1          4.1          5.1          6.1          7.1          8.1          9.1         10.1
    -15.591649   -11.283865   -11.266293   -11.265713   -11.265662   -11.264548   -11.264501   -11.263885    -1.218335    -1.173919

        11.1         12.1         13.1         14.1         15.1         16.1         17.1         18.1         19.1         20.1
     -1.037789    -1.037788    -0.845722    -0.845719    -0.789910    -0.729363    -0.664877    -0.639192    -0.608563    -0.608558

        21.1         22.1         23.1         24.1         25.1         26.1         27.1         28.1         29.1         30.1
     -0.565229    -0.520373    -0.514853    -0.514850    -0.475690    -0.475686    -0.359669    -0.359664     0.055868     0.060083


 **********************************************************************************************************************************
 DATASETS  * FILE   NREC   LENGTH (MB)   RECORD NAMES
              1      19     2152.39       500      610      700      900      950      970     1000      129      960     1100   
                                          VAR    BASINP    GEOM    SYMINP    ZMAT    AOBASIS   BASIS     P2S    ABASIS      S 
                                         1400     1410     1200     1210     1080     1600     1650     1300     1700   
                                           T        V       H0       H01     AOSYM     SMH    MOLCAS    ERIS     OPER   

              2       3        1.49       700     1000     2100   
                                         GEOM     BASIS     RHF  

 PROGRAMS   *        TOTAL       RHF       INT
 CPU TIMES  *        68.11     52.36     15.71
 REAL TIME  *        77.89 SEC
 DISK USED  *         7.98 GB      
 GA USED    *         0.01 MB       (max)       0.00 MB       (current)
 **********************************************************************************************************************************


1PROGRAM * CCSD (Closed-shell coupled cluster)     Authors: C. Hampel, H.-J. Werner, 1991, M. Deegan, P.J. Knowles, 1992


 Convergence thresholds:  THRVAR = 1.00D-08  THRDEN = 1.00D-12

 CCSD(T)     terms to be evaluated (factor= 1.000)


 Number of core orbitals:           8 (   8 )
 Number of closed-shell orbitals:  20 (  20 )
 Number of external orbitals:     191 ( 191 )

 Molecular orbitals read from record     2100.2  Type=RHF/CANONICAL (state 1.1)

 Number of N-1 electron functions:              20
 Number of N-2 electron functions:             210
 Number of singly external CSFs:              3820
 Number of doubly external CSFs:           7298110
 Total number of CSFs:                     7301931

 Length of J-op  integral file:               0.00 MB
 Length of K-op  integral file:               3.32 MB
 Length of 3-ext integral record:             0.00 MB

 Memory could be reduced to 174.82 Mwords without degradation in triples

 Integral transformation finished. Total CPU:  14.26 sec, npass=  1  Memory used: 128.13 MW

 Reference energy:                   -323.61686807

 MP2 singlet pair energy:              -0.67334355
 MP2 triplet pair energy:              -0.43519836
 MP2 correlation energy:               -1.10854192
 MP2 total energy:                   -324.72540999

 SCS-MP2 correlation energy:           -1.07880236   (PS=  1.200000  PT=  0.333333)
 SCS-MP2 total energy:               -324.69567043

 ITER.      SQ.NORM     CORR.ENERGY   TOTAL ENERGY   ENERGY CHANGE        DEN1      VAR(S)    VAR(P)  DIIS     TIME
   1      1.42873389    -1.14462398  -324.76149205    -0.03608206    -0.00288960  0.51D-02  0.99D-02  1  1    60.64
   2      1.46305648    -1.15049747  -324.76736554    -0.00587350    -0.03103154  0.83D-04  0.13D-02  2  2   107.36
   3      1.47634839    -1.15094518  -324.76781325    -0.00044771    -0.00655958  0.40D-04  0.12D-03  3  3   154.11
   4      1.48204068    -1.15119487  -324.76806295    -0.00024969    -0.00178587  0.22D-05  0.15D-04  4  4   200.90
   5      1.48357003    -1.15123057  -324.76809864    -0.00003570    -0.00036587  0.25D-06  0.14D-05  5  5   247.70
   6      1.48387621    -1.15122206  -324.76809013     0.00000852    -0.00005025  0.24D-07  0.91D-07  6  6   294.51
   7      1.48391099    -1.15122547  -324.76809354    -0.00000341    -0.00000225  0.34D-08  0.80D-08  6  2   341.32
   8      1.48391567    -1.15122582  -324.76809389    -0.00000036    -0.00000042  0.41D-09  0.83D-09  6  1   388.13
   9      1.48391589    -1.15122599  -324.76809406    -0.00000017     0.00000079  0.63D-10  0.78D-10  6  3   434.93
  10      1.48391626    -1.15122605  -324.76809412    -0.00000006     0.00000002  0.10D-10  0.99D-11  6  4   481.69
  11      1.48391599    -1.15122609  -324.76809416    -0.00000004     0.00000022  0.16D-11  0.14D-11  6  5   528.48
  12      1.48391583    -1.15122610  -324.76809417    -0.00000001     0.00000008  0.25D-12  0.27D-12  6  6   575.27
  13      1.48391569    -1.15122610  -324.76809417    -0.00000000     0.00000005  0.14D-13  0.52D-13  6  2   622.06
  14      1.48391563    -1.15122610  -324.76809417    -0.00000000     0.00000002  0.21D-14  0.94D-14  6  1   668.84
  15      1.48391560    -1.15122610  -324.76809417     0.00000000     0.00000001  0.46D-15  0.13D-14  6  3   715.68
  16      1.48391559    -1.15122610  -324.76809417    -0.00000000     0.00000000  0.98D-16  0.19D-15  6  4   762.46
  17      1.48391559    -1.15122610  -324.76809417    -0.00000000     0.00000000  0.19D-16  0.28D-16  6  5   809.28
  18      1.48391559    -1.15122610  -324.76809417    -0.00000000     0.00000000  0.36D-17  0.36D-17  6  6   856.06
  19      1.48391559    -1.15122610  -324.76809417    -0.00000000     0.00000000  0.82D-18  0.60D-18  6  2   902.86
  20      1.48391559    -1.15122610  -324.76809417    -0.00000000     0.00000000  0.18D-18  0.13D-18  6  1   949.70
  21      1.48391559    -1.15122610  -324.76809417    -0.00000000     0.00000000  0.60D-19  0.35D-19  6  3   996.51
  22      1.48391559    -1.15122610  -324.76809417     0.00000000     0.00000000  0.28D-19  0.16D-19  6  4  1043.31

 Norm of t1 vector:      0.09773670      S-energy:     0.00000000      T1 diagnostic:  0.01092730
                                                                       D1 diagnostic:  0.02771759

 Doubles amplitudes (print threshold =  0.500E-01):

         I         J         SYM. A    SYM. B    A         B      T(IJ, AB)

        19        19         1         1         7         7     -0.06073835
        20        20         1         1         8         8     -0.06073900


 Total CPU time for triples:   1003.74 sec


 RESULTS
 =======

  Reference energy                   -323.616868070380
  CCSD singlet pair energy             -0.770020718891
  CCSD triplet pair energy             -0.381205383180
  CCSD correlation energy              -1.151226102071

  Triples (T) contribution             -0.054015719879
  Total correlation energy             -1.205241821949

  CCSD total energy                  -324.768094172451
  CCSD[T] energy                     -324.823442214928
  CCSD-T energy                      -324.821504410265
 !CCSD(T) total energy               -324.822109892329

 Timing summary (sec):

 STEP                 CPU(USER)    SYS     CPU(TOT)    WALL
 Transformation         14.72      0.97     15.69     15.69
 CCSD iterations      1028.61     13.59   1042.20   1042.40
 Triples              1003.74     14.62   1018.36   1018.49

 Program statistics:

 Available memory in ccsd:               999998300
 Min. memory needed in ccsd:              17709720
 Max. memory used in ccsd:                24415330
 Max. memory used in cckext:              20754978 (22 integral passes)



 **********************************************************************************************************************************
 DATASETS  * FILE   NREC   LENGTH (MB)   RECORD NAMES
              1      20     2834.56       500      610      700      900      950      970     1000      129      960     1100   
                                          VAR    BASINP    GEOM    SYMINP    ZMAT    AOBASIS   BASIS     P2S    ABASIS      S 
                                         1400     1410     1200     1210     1080     1600     1650     1300     1700     1380   
                                           T        V       H0       H01     AOSYM     SMH    MOLCAS    ERIS     OPER     JKOP   

              2       3        1.49       700     1000     2100   
                                         GEOM     BASIS     RHF  

 PROGRAMS   *        TOTAL   CCSD(T)       RHF       INT
 CPU TIMES  *      2115.20   2047.08     52.36     15.71
 REAL TIME  *      2154.59 SEC
 DISK USED  *         7.98 GB      
 GA USED    *         0.01 MB       (max)       0.00 MB       (current)
 **********************************************************************************************************************************

        CCSD(T)         RHF-SCF 
   -324.82210989   -323.61686807
 **********************************************************************************************************************************
 Variable memory released
