
    -----------------------------------------------------------------------
          Psi4: An Open-Source Ab Initio Electronic Structure Package
                               Psi4 1.4a2.dev629 

                         Git: Rev {master} 2938fc2 dirty


    D. G. A. Smith, L. A. Burns, A. C. Simmonett, R. M. Parrish,
    M. C. Schieber, R. Galvelis, P. Kraus, H. Kruse, R. Di Remigio,
    A. Alenaizan, A. M. James, S. Lehtola, J. P. Misiewicz, M. Scheurer,
    R. A. Shaw, J. B. Schriber, Y. Xie, Z. L. Glick, D. A. Sirianni,
    J. S. O'Brien, J. M. Waldrop, A. Kumar, E. G. Hohenstein,
    B. P. Pritchard, B. R. Brooks, H. F. Schaefer III, A. Yu. Sokolov,
    K. Patkowski, A. E. DePrince III, U. Bozkaya, R. A. King,
    F. A. Evangelista, J. M. Turney, T. D. Crawford, C. D. Sherrill,
    J. Chem. Phys. 152(18) 184108 (2020). https://doi.org/10.1063/5.0006002

                            Additional Code Authors
    E. T. Seidl, C. L. Janssen, E. F. Valeev, M. L. Leininger,
    J. F. Gonthier, R. M. Richard, H. R. McAlexander, M. Saitow, X. Wang,
    P. Verma, and M. H. Lechner

             Previous Authors, Complete List of Code Contributors,
                       and Citations for Specific Modules
    https://github.com/psi4/psi4/blob/master/codemeta.json
    https://github.com/psi4/psi4/graphs/contributors
    http://psicode.org/psi4manual/master/introduction.html#citing-psifour

    -----------------------------------------------------------------------


    Psi4 started on: Thursday, 06 January 2022 10:10AM

    Process ID: 306
    Host:       n077
    PSIDATADIR: /opt/psi/4/master/share/psi4
    Memory:     500.0 MiB
    Threads:    4
    
  ==> Input File <==

--------------------------------------------------------------------------
import os
memory 14 GB 
 
molecule {
 Al    0.0049072578   -0.0000000000    0.0000006922
 Cl   -0.0016357519    0.0000000000   -3.9257894116
 Cl   -0.0016357530    3.3998343113    1.9628944386
 Cl   -0.0016357530   -3.3998343113    1.9628944386
units bohr
}

basis {

assign 6-31g_2dfp_

[ 6-31g_2dfp_ ]

spherical

!----------------------------------------------------------------------
! Basis Set Exchange
! Version v0.8.13
! https://www.basissetexchange.org
!----------------------------------------------------------------------
!   Basis set: 6-31G(2df,p)
! Description: 6-31G(2df,p)
!        Role: orbital
!     Version: 0  (Data from the original Basis Set Exchange)
!----------------------------------------------------------------------


****
H     0
S    3   1.00
     18.7311370              0.03349460
      2.8253937              0.23472695
      0.6401217              0.81375733
S    1   1.00
      0.1612778              1.00000000
P    1   1.00
      1.5000000              1.0000000
P    1   1.00
      0.3750000              1.0000000
****
B     0
S    6   1.00
   2068.8823000              0.0018663
    310.6495700              0.0142515
     70.6830330              0.0695516
     19.8610800              0.2325729
      6.2993048              0.4670787
      2.1270270              0.3634314
SP   3   1.00
      4.7279710             -0.1303938              0.0745976
      1.1903377             -0.1307889              0.3078467
      0.3594117              1.1309444              0.7434568
SP   1   1.00
      0.1267512              1.0000000              1.0000000
D    1   1.00
      0.8020000              1.0000000
D    1   1.00
      0.2005000              1.0000000
F    1   1.00
      0.5000000              1.0000000
****
C     0
S    6   1.00
   3047.5249000              0.0018347
    457.3695100              0.0140373
    103.9486900              0.0688426
     29.2101550              0.2321844
      9.2866630              0.4679413
      3.1639270              0.3623120
SP   3   1.00
      7.8682724             -0.1193324              0.0689991
      1.8812885             -0.1608542              0.3164240
      0.5442493              1.1434564              0.7443083
SP   1   1.00
      0.1687144              1.0000000              1.0000000
D    1   1.00
      1.2520000              1.0000000
D    1   1.00
      0.3130000              1.0000000
F    1   1.00
      0.8000000              1.0000000
****
N     0
S    6   1.00
   4173.5110000              0.0018348
    627.4579000              0.0139950
    142.9021000              0.0685870
     40.2343300              0.2322410
     12.8202100              0.4690700
      4.3904370              0.3604550
SP   3   1.00
     11.6263580             -0.1149610              0.0675800
      2.7162800             -0.1691180              0.3239070
      0.7722180              1.1458520              0.7408950
SP   1   1.00
      0.2120313              1.0000000              1.0000000
D    1   1.00
      1.8260000              1.0000000
D    1   1.00
      0.4565000              1.0000000
F    1   1.00
      1.0000000              1.0000000
****
O     0
S    6   1.00
   5484.6717000              0.0018311
    825.2349500              0.0139501
    188.0469600              0.0684451
     52.9645000              0.2327143
     16.8975700              0.4701930
      5.7996353              0.3585209
SP   3   1.00
     15.5396160             -0.1107775              0.0708743
      3.5999336             -0.1480263              0.3397528
      1.0137618              1.1307670              0.7271586
SP   1   1.00
      0.2700058              1.0000000              1.0000000
D    1   1.00
      2.5840000              1.0000000
D    1   1.00
      0.6460000              1.0000000
F    1   1.00
      1.4000000              1.0000000
****
F     0
S    6   1.00
   7001.7130900              0.0018196169
   1051.3660900              0.0139160796
    239.2856900              0.0684053245
     67.3974453              0.233185760
     21.5199573              0.471267439
      7.40310130             0.356618546
SP   3   1.00
     20.8479528             -0.108506975            0.0716287243
      4.80830834            -0.146451658            0.3459121030
      1.34406986             1.128688580            0.7224699570
SP   1   1.00
      0.358151393            1.0000000              1.0000000
D    1   1.00
      3.5000000              1.0000000
D    1   1.00
      0.8750000              1.0000000
F    1   1.00
      1.8500000              1.0000000
****
Al     0
S    6   1.00
  13983.1000000              0.00194267
   2098.7500000              0.0148599
    477.7050000              0.0728494
    134.3600000              0.2468300
     42.8709000              0.4872580
     14.5189000              0.3234960
SP   6   1.00
    239.6680000             -0.00292619             0.00460285
     57.4419000             -0.0374080              0.0331990
     18.2859000             -0.1144870              0.1362820
      6.5991400              0.1156350              0.3304760
      2.4904900              0.6125950              0.4491460
      0.9445400              0.3937990              0.2657040
SP   3   1.00
      1.2779000             -0.2276060             -0.0175130
      0.3975900              0.00144583             0.2445330
      0.1600950              1.0927900              0.8049340
SP   1   1.00
      0.0556577              1.0000000              1.0000000
D    1   1.00
      0.6500000              1.0000000
D    1   1.00
      0.1625000              1.0000000
F    1   1.00
      0.2500000              1.0000000
****
Si     0
S    6   1.00
  16115.9000000              0.00195948
   2425.5800000              0.01492880
    553.8670000              0.07284780
    156.3400000              0.24613000
     50.0683000              0.48591400
     17.0178000              0.32500200
SP   6   1.00
    292.7180000             -0.00278094             0.00443826
     69.8731000             -0.03571460             0.03266790
     22.3363000             -0.11498500             0.13472100
      8.1503900              0.09356340             0.32867800
      3.1345800              0.60301700             0.44964000
      1.2254300              0.41895900             0.26137200
SP   3   1.00
      1.7273800             -0.24463000            -0.01779510
      0.5729220              0.00431572             0.25353900
      0.2221920              1.09818000             0.80066900
SP   1   1.00
      0.0778369              1.00000000             1.00000000
D    1   1.00
      0.9000000              1.0000000
D    1   1.00
      0.2250000              1.0000000
F    1   1.00
      0.3200000              1.0000000
****
P     0
S    6   1.00
  19413.3000000              0.0018516
   2909.4200000              0.0142062
    661.3640000              0.0699995
    185.7590000              0.2400790
     59.1943000              0.4847620
     20.0310000              0.3352000
SP   6   1.00
    339.4780000             -0.00278217             0.00456462
     81.0101000             -0.0360499              0.03369360
     25.8780000             -0.1166310              0.13975500
      9.4522100              0.0968328              0.33936200
      3.6656600              0.6144180              0.45092100
      1.4674600              0.4037980              0.23858600
SP   3   1.00
      2.1562300             -0.2529230             -0.01776530
      0.7489970              0.0328517              0.27405800
      0.2831450              1.0812500              0.78542100
SP   1   1.00
      0.0998317              1.0000000              1.00000000
D    1   1.00
      1.1000000              1.0000000
D    1   1.00
      0.2750000              1.0000000
F    1   1.00
      0.4500000              1.0000000
****
S     0
S    6   1.00
  21917.1000000              0.0018690
   3301.4900000              0.0142300
    754.1460000              0.0696960
    212.7110000              0.2384870
     67.9896000              0.4833070
     23.0515000              0.3380740
SP   6   1.00
    423.7350000             -0.0023767              0.0040610
    100.7100000             -0.0316930              0.0306810
     32.1599000             -0.1133170              0.1304520
     11.8079000              0.0560900              0.3272050
      4.6311000              0.5922550              0.4528510
      1.8702500              0.4550060              0.2560420
SP   3   1.00
      2.6158400             -0.2503740             -0.0145110
      0.9221670              0.0669570              0.3102630
      0.3412870              1.0545100              0.7544830
SP   1   1.00
      0.1171670              1.0000000              1.0000000
D    1   1.00
      1.3000000              1.0000000
D    1   1.00
      0.3250000              1.0000000
F    1   1.00
      0.5500000              1.0000000
****
Cl     0
S    6   1.00
  25180.1000000              0.0018330
   3780.3500000              0.0140340
    860.4740000              0.0690970
    242.1450000              0.2374520
     77.3349000              0.4830340
     26.2470000              0.3398560
SP   6   1.00
    491.7650000             -0.0022974              0.0039894
    116.9840000             -0.0307140              0.0303180
     37.4153000             -0.1125280              0.1298800
     13.7834000              0.0450160              0.3279510
      5.4521500              0.5893530              0.4535270
      2.2258800              0.4652060              0.2521540
SP   3   1.00
      3.1864900             -0.2518300             -0.0142990
      1.1442700              0.0615890              0.3235720
      0.4203770              1.0601800              0.7435070
SP   1   1.00
      0.1426570              1.0000000              1.0000000
D    1   1.00
      1.5000000              1.0000000
D    1   1.00
      0.3750000              1.0000000
F    1   1.00
      0.7000000              1.0000000
****
}


set {
reference rhf                          
freeze_core true
e_convergence 10                       
d_convergence 10                      
dft_spherical_points 1202
dft_radial_points 99
}

e = energy('b3lyp')

print_out('Grab this energy {0}'.format(e))
--------------------------------------------------------------------------

  Memory set to  13.039 GiB by Python driver.

Scratch directory: /tmp/

*** tstart() called on n077
*** at Thu Jan  6 10:10:32 2022

   => Loading Basis Set <=

    Name: ANONYMOUSB3BD49AE
    Role: ORBITAL
    Keyword: BASIS
    atoms 1   entry AL         line   132 inputblock 6-31g_2dfp_ 
    atoms 2-4 entry CL         line   244 inputblock 6-31g_2dfp_ 


         ---------------------------------------------------------
                                   SCF
               by Justin Turney, Rob Parrish, Andy Simmonett
                          and Daniel G. A. Smith
                              RKS Reference
                        4 Threads,  13351 MiB Core
         ---------------------------------------------------------

  ==> Geometry <==

    Molecular point group: cs
    Full point group: Cs

    Geometry (in Bohr), charge = 0, multiplicity = 1:

       Center              X                  Y                   Z               Mass       
    ------------   -----------------  -----------------  -----------------  -----------------
         AL          -0.005204447722     0.000000692281     0.000000000000    26.981538530000
         CL           0.001338561978    -3.925789411519     0.000000000000    34.968852682000
         CL           0.001338563078     1.962894438681     3.399834311300    34.968852682000
         CL           0.001338563078     1.962894438681    -3.399834311300    34.968852682000

  Running in cs symmetry.

  Rotational constants: A =      0.07447  B =      0.07447  C =      0.03723 [cm^-1]
  Rotational constants: A =   2232.48134  B =   2232.47989  C =   1116.24158 [MHz]
  Nuclear repulsion =  296.389210990849620

  Charge       = 0
  Multiplicity = 1
  Electrons    = 64
  Nalpha       = 32
  Nbeta        = 32

  ==> Algorithm <==

  SCF Algorithm Type is DF.
  DIIS enabled.
  MOM disabled.
  Fractional occupation disabled.
  Guess Type is SAD.
  Energy threshold   = 1.00e-10
  Density threshold  = 1.00e-10
  Integral threshold = 0.00e+00

  ==> Primary Basis <==

  Basis Set: ANONYMOUSB3BD49AE
    Blend: 6-31G_2DFP_
    Number of shells: 40
    Number of basis function: 120
    Number of Cartesian functions: 140
    Spherical Harmonics?: true
    Max angular momentum: 3

  ==> DFT Potential <==

   => Composite Functional: B3LYP <= 

    B3LYP Hyb-GGA Exchange-Correlation Functional

    P. J. Stephens, F. J. Devlin, C. F. Chabalowski, and M. J. Frisch, J. Phys. Chem. 98, 11623 (1994)

    Deriv               =              1
    GGA                 =           TRUE
    Meta                =          FALSE

    Exchange Hybrid     =           TRUE
    MP2 Hybrid          =          FALSE

   => Exchange Functionals <=

    0.0800   Slater exchange
    0.7200         Becke 88

   => Exact (HF) Exchange <=

    0.2000               HF 

   => Correlation Functionals <=

    0.1900   Vosko, Wilk & Nusair (VWN5_RPA)
    0.8100   Lee, Yang & Parr

   => Molecular Quadrature <=

    Radial Scheme          =       TREUTLER
    Pruning Scheme         =           NONE
    Nuclear Scheme         =       TREUTLER

    BS radius alpha        =              1
    Pruning alpha          =              1
    Radial Points          =             99
    Spherical Points       =           1202
    Total Points           =         448123
    Total Blocks           =           3337
    Max Points             =            256
    Max Functions          =            113
    Weights Tolerance      =       1.00E-15

   => Loading Basis Set <=

    Name: (ANONYMOUSB3BD49AE AUX)
    Role: JKFIT
    Keyword: DF_BASIS_SCF
    atoms 1   entry AL         line   654 file /opt/psi/4/master/share/psi4/basis/def2-universal-jkfit.gbs 
    atoms 2-4 entry CL         line   986 file /opt/psi/4/master/share/psi4/basis/def2-universal-jkfit.gbs 

  ==> Integral Setup <==

  DFHelper Memory: AOs need 0.058 GiB; user supplied 8.672 GiB. Using in-core AOs.

  ==> MemDFJK: Density-Fitted J/K Matrices <==

    J tasked:                   Yes
    K tasked:                   Yes
    wK tasked:                   No
    OpenMP threads:               4
    Memory [MiB]:              8879
    Algorithm:                 Core
    Schwarz Cutoff:           1E-12
    Mask sparsity (%):       4.6389
    Fitting Condition:        1E-10

   => Auxiliary Basis Set <=

  Basis Set: (ANONYMOUSB3BD49AE AUX)
    Blend: DEF2-UNIVERSAL-JKFIT
    Number of shells: 152
    Number of basis function: 512
    Number of Cartesian functions: 620
    Spherical Harmonics?: true
    Max angular momentum: 4

  Cached 100.0% of DFT collocation blocks in 1.107 [GiB].

  Minimum eigenvalue in the overlap matrix is 1.3999823365E-02.
  Reciprocal condition number of the overlap matrix is 3.8517331939E-03.
    Using symmetric orthogonalization.

  ==> Pre-Iterations <==

  SCF Guess: Superposition of Atomic Densities via on-the-fly atomic UHF (no occupation information).

   -------------------------
    Irrep   Nso     Nmo    
   -------------------------
     A'        70      70 
     A"        50      50 
   -------------------------
    Total     120     120
   -------------------------

  ==> Iterations <==

                           Total Energy        Delta E     RMS |[F,P]|

   @DF-RKS iter SAD: -1623.03346773522890   -1.62303e+03   0.00000e+00 
   @DF-RKS iter   1: -1623.16266246950613   -1.29195e-01   4.19994e-03 DIIS
   @DF-RKS iter   2: -1623.18662117700956   -2.39587e-02   3.59755e-03 DIIS
   @DF-RKS iter   3: -1623.24050705426998   -5.38859e-02   2.22838e-04 DIIS
   @DF-RKS iter   4: -1623.24068794501500   -1.80891e-04   9.44035e-05 DIIS
   @DF-RKS iter   5: -1623.24072884402835   -4.08990e-05   3.45697e-06 DIIS
   @DF-RKS iter   6: -1623.24072888923001   -4.52017e-08   3.64580e-07 DIIS
   @DF-RKS iter   7: -1623.24072888982960   -5.99584e-10   1.34103e-07 DIIS
   @DF-RKS iter   8: -1623.24072888990122   -7.16227e-11   4.98400e-08 DIIS
   @DF-RKS iter   9: -1623.24072888991282   -1.15961e-11   2.36054e-09 DIIS
   @DF-RKS iter  10: -1623.24072888991213    6.82121e-13   9.44520e-11 DIIS
  Energy and wave function converged.


  ==> Post-Iterations <==

    Orbital Energies [Eh]
    ---------------------

    Doubly Occupied:                                                      

       1Ap  -101.538020     1App -101.538003     2Ap  -101.538003  
       3Ap   -56.140777     4Ap    -9.469691     2App   -9.469658  
       5Ap    -9.469658     6Ap    -7.228726     3App   -7.228726  
       7Ap    -7.228719     8Ap    -7.225537     4App   -7.225518  
       9Ap    -7.225518     5App   -7.224779    10Ap    -7.224736  
       6App   -7.224736    11Ap    -4.225076    12Ap    -2.781815  
      13Ap    -2.776430     7App   -2.776430    14Ap    -0.842889  
       8App   -0.826834    15Ap    -0.826834    16Ap    -0.466296  
       9App   -0.403116    17Ap    -0.403116    18Ap    -0.369948  
      19Ap    -0.353050    10App   -0.353050    11App   -0.347481  
      20Ap    -0.347481    12App   -0.330650  

    Virtual:                                                              

      21Ap    -0.056424    22Ap    -0.046919    23Ap     0.055801  
      13App    0.055801    24Ap     0.083216    25Ap     0.140886  
      14App    0.140886    26Ap     0.142510    27Ap     0.186358  
      15App    0.186358    28Ap     0.228628    16App    0.257488  
      29Ap     0.257489    30Ap     0.355046    17App    0.373857  
      18App    0.379117    31Ap     0.379117    19App    0.407129  
      32Ap     0.407129    20App    0.414976    33Ap     0.414976  
      21App    0.444639    22App    0.454432    34Ap     0.454433  
      35Ap     0.457394    36Ap     0.519189    23App    0.525676  
      37Ap     0.525676    24App    0.546463    38Ap     0.553489  
      39Ap     0.594128    25App    0.594128    40Ap     0.594883  
      41Ap     0.649785    26App    0.649785    42Ap     0.818328  
      43Ap     0.825551    27App    0.825551    44Ap     0.897926  
      28App    0.897926    45Ap     0.970294    46Ap     0.984480  
      29App    0.984480    30App    0.998136    47Ap     0.998136  
      48Ap     1.197920    31App    1.263060    49Ap     1.263060  
      32App    1.278283    50Ap     1.285612    51Ap     1.348099  
      33App    1.348099    34App    2.031505    52Ap     2.049867  
      35App    2.049867    36App    2.051601    37App    2.051703  
      53Ap     2.051703    54Ap     2.053097    55Ap     2.064399  
      38App    2.064399    56Ap     2.084044    39App    2.084044  
      57Ap     2.088456    58Ap     2.115047    59Ap     2.121338  
      40App    2.121338    41App    2.160001    60Ap     2.160001  
      61Ap     2.160743    42App    2.160743    62Ap     2.202166  
      43App    2.202646    44App    2.328250    63Ap     2.362570  
      45App    2.362570    64Ap     2.412316    46App    2.412316  
      65Ap     2.438365    66Ap     2.575823    47App    2.671178  
      67Ap     2.671178    68Ap     2.678985    48App    2.678986  
      69Ap     2.763598    49App    2.854603    70Ap     2.854603  
      50App    2.928740  

    Final Occupation by Irrep:
             Ap   App 
    DOCC [    20,   12 ]

  @DF-RKS Final Energy: -1623.24072888991213

   => Energetics <=

    Nuclear Repulsion Energy =            296.3892109908496195
    One-Electron Energy =               -2834.6826705271773790
    Two-Electron Energy =                 998.4814568578461831
    DFT Exchange-Correlation Energy =     -83.4287262114307140
    Empirical Dispersion Energy =           0.0000000000000000
    VV10 Nonlocal Energy =                  0.0000000000000000
    Total Energy =                      -1623.2407288899121340

Computation Completed


Properties will be evaluated at   0.000000,   0.000000,   0.000000 [a0]

Properties computed using the SCF density matrix

  Nuclear Dipole Moment: [e a0]
     X:     0.0006      Y:    -0.0000      Z:     0.0000

  Electronic Dipole Moment: [e a0]
     X:    -0.0061      Y:     0.0000      Z:     0.0000

  Dipole Moment: [e a0]
     X:    -0.0054      Y:     0.0000      Z:     0.0000     Total:     0.0054

  Dipole Moment: [D]
     X:    -0.0138      Y:     0.0000      Z:     0.0000     Total:     0.0138


*** tstop() called on n077 at Thu Jan  6 10:10:37 2022
Module time:
	user time   =      17.80 seconds =       0.30 minutes
	system time =       0.37 seconds =       0.01 minutes
	total time  =          5 seconds =       0.08 minutes
Total time:
	user time   =      17.80 seconds =       0.30 minutes
	system time =       0.37 seconds =       0.01 minutes
	total time  =          5 seconds =       0.08 minutes
Grab this energy -1623.2407288899121
    Psi4 stopped on: Thursday, 06 January 2022 10:10AM
    Psi4 wall time for execution: 0:00:04.74

*** Psi4 exiting successfully. Buy a developer a beer!
