
 Primary working directories    : /tmp/942884.36.gen6.q
 Secondary working directories  : /tmp/942884.36.gen6.q
 Wavefunction directory         : /home/vulcan/mel64643/wfu/
 Main file repository           : /tmp/942884.36.gen6.q/

 ARCHNAME  : Linux/x86_64
 FC        : /opt/intel/compilers_and_libraries_2016.1.150/linux/bin/intel64/ifort
 FCVERSION : 16.0.1
 BLASLIB   : -mkl
 id        : ccgc

 Nodes     nprocs
 n084         1
 ga_uses_ma=false, calling ma_init with nominal heap.
 GA-space will be limited to   8.0 MW (determined by -G option)

 Using customized tuning parameters: mindgm=10; mindgv=16; mindgc=4; mindgr=1; noblas=0; mincuda=1000; minvec=7
 default implementation of scratch files=df  

 ***,Optimization of nh3_2
 memory,1000,m
 gthresh,energy=1.0d-12,orbital=1.0d-10,oneint=1.0d-16,twoint=1.0d-16,optgrad=1.0d-6,compress=1.0d-13
 geomtyp=xyz
 
 bohr
 geometry = {
  N   -0.0994202168    3.3727229885    0.0000000000
  H    0.7219115086    4.1862369798   -1.5377545875
  H    0.7219115086    4.1862369798    1.5377545875
  H    0.4295802740    1.5166383958    0.0000000000
  N   -0.1306172267   -2.7691928215    0.0000000000
  H    0.1813479466   -3.8767120961   -1.5346672647
  H   -2.0060617413   -2.3612731325   -0.0000000000
  H    0.1813479466   -3.8767120961    1.5346672647
 }
 
 basis=aug-cc-pvdz
 {rhf;maxit,200}
 {ccsd(t);maxit,200}

 Variables initialized (661), CPU time= 0.01 sec
 Commands  initialized (458), CPU time= 0.00 sec, 486 directives.
 Default parameters read. Elapsed time= 0.04 sec

 Checking input...
 Passed
1


                                         ***  PROGRAM SYSTEM MOLPRO  ***
                         Copyright, University College Cardiff Consultants Limited, 2008

                                    Version 2010.1 linked May 16 2016 07:17:05


 **********************************************************************************************************************************
 LABEL *   Optimization of nh3_2                                                         
 Linux-4.4.3/n084(x86_64) 64 bit mpp version                                             DATE: 23-Oct-23          TIME: 09:48:48  
 **********************************************************************************************************************************

 SHA1:             9e8077add272b0f3cad6f7df79ec5211205f459d
 **********************************************************************************************************************************

 THRESHOLDS:

 ZERO    =  1.00D-12  ONEINT  =  1.00D-16  TWOINT  =  1.00D-16  PREFAC  =  1.00D-14  LOCALI  =  1.00D-09  EORDER  =  1.00D-04
 ENERGY  =  1.00D-12  ETEST   =  0.00D+00  EDENS   =  0.00D+00  THRDEDEF=  1.00D-06  GRADIENT=  1.00D-02  STEP    =  1.00D-03
 ORBITAL =  1.00D-10  CIVEC   =  1.00D-05  COEFF   =  1.00D-04  PRINTCI =  5.00D-02  PUNCHCI =  9.90D+01  OPTGRAD =  1.00D-06
 OPTENERG=  1.00D-06  OPTSTEP =  3.00D-04  THRGRAD =  1.00D-10  COMPRESS=  1.00D-13  VARMIN  =  1.00D-07  VARMAX  =  1.00D-03
 THRDOUB =  0.00D+00  THRDIV  =  1.00D-05  THRRED  =  1.00D-07  THRPSP  =  1.00D+00  THRDC   =  1.00D-10  THRCS   =  1.00D-10
 THRNRM  =  1.00D-08  THREQ   =  0.00D+00  THRDE   =  1.00D+00  THRREF  =  1.00D-05  SPARFAC =  1.00D+00  THRDLP  =  1.00D-07
 THRDIA  =  1.00D-10  THRDLS  =  1.00D-07  THRGPS  =  0.00D+00  THRKEX  =  0.00D+00  THRDIS  =  2.00D-01  THRVAR  =  1.00D-10
 THRLOC  =  1.00D-06  THRGAP  =  1.00D-06  THRLOCT = -1.00D+00  THRGAPT = -1.00D+00  THRORB  =  1.00D-06  THRMLTP =  0.00D+00
 THRCPQCI=  1.00D-10  KEXTA   =  0.00D+00  THRCOARS=  0.00D+00  SYMTOL  =  1.00D-06  GRADTOL =  1.00D-06  THROVL  =  1.00D-08
 THRORTH =  1.00D-08  GRID    =  1.00D-06  GRIDMAX =  1.00D-03  DTMAX   =  0.00D+00

 SETTING GEOMTYP        =    XYZ
 ZUNIT=BOHR
 

 Variable memory set to 1000000000 words,  buffer space   230000 words

 SETTING BASIS          =    AUG-CC-PVDZ


 Recomputing integrals since basis changed


 Using spherical harmonics

 Library entry N      S aug-cc-pVDZ          selected for orbital group  1
 Library entry N      P aug-cc-pVDZ          selected for orbital group  1
 Library entry N      D aug-cc-pVDZ          selected for orbital group  1
 Library entry H      S aug-cc-pVDZ          selected for orbital group  2
 Library entry H      P aug-cc-pVDZ          selected for orbital group  2

1PROGRAM * SEWARD (Integral evaluation for generally contracted gaussian basis sets)     Author: Roland Lindh, 1990

 Geometry written to block  1 of record 700


 Point group  Cs  



 ATOMIC COORDINATES

 NR  ATOM    CHARGE       X              Y              Z

   1  N       7.00   -0.099420217    3.372722989    0.000000000
   2  H       1.00    0.721911509    4.186236980   -1.537754588
   3  H       1.00    0.721911509    4.186236980    1.537754588
   4  H       1.00    0.429580274    1.516638396    0.000000000
   5  N       7.00   -0.130617227   -2.769192821    0.000000000
   6  H       1.00    0.181347947   -3.876712096   -1.534667265
   7  H       1.00    0.181347947   -3.876712096    1.534667265
   8  H       1.00   -2.006061741   -2.361273133    0.000000000

 Bond lengths in Bohr (Angstrom)

 1-2  1.923819115  1-3  1.923819115  1-4  1.929997807  5-6  1.918104488  5-7  1.918104488
     ( 1.018041230)     ( 1.018041230)     ( 1.021310853)     ( 1.015017179)     ( 1.015017179)

 5-8  1.919294297
     ( 1.015646800)

 Bond angles

  2-1-3  106.13117489   2-1-4  106.83708546   3-1-4  106.83708546   6-5-7  106.27849514

  6-5-8  106.35844718   7-5-8  106.35844718

 NUCLEAR CHARGE:                   20
 NUMBER OF PRIMITIVE AOS:         140
 NUMBER OF SYMMETRY AOS:          136
 NUMBER OF CONTRACTIONS:          100   (  64A'  +  36A"  )
 NUMBER OF CORE ORBITALS:           2   (   2A'  +   0A"  )
 NUMBER OF VALENCE ORBITALS:       14   (  10A'  +   4A"  )


 NUCLEAR REPULSION ENERGY   39.72275404


 Eigenvalues of metric

         1 0.121E-02 0.176E-02 0.195E-02 0.246E-02 0.365E-02 0.663E-02 0.924E-02 0.116E-01
         2 0.184E-02 0.214E-02 0.104E-01 0.151E-01 0.208E-01 0.227E-01 0.590E-01 0.619E-01


 Contracted 2-electron integrals neglected if value below      1.0D-16
 AO integral compression algorithm  1   Integral accuracy      1.0D-16

     62.390 MB (compressed) written to integral file ( 95.4%)

     Node minimum: 62.390 MB, node maximum: 62.390 MB


 NUMBER OF SORTED TWO-ELECTRON INTEGRALS:    6542191.     BUFFER LENGTH:  32768
 NUMBER OF SEGMENTS:   1  SEGMENT LENGTH:    6542191      RECORD LENGTH: 524288

 Memory used in sort:       7.10 MW

 SORT1 READ     8155035. AND WROTE     6492840. INTEGRALS IN     19 RECORDS. CPU TIME:     0.07 SEC, REAL TIME:     0.11 SEC
 SORT2 READ     6492840. AND WROTE     6542191. INTEGRALS IN    238 RECORDS. CPU TIME:     0.08 SEC, REAL TIME:     0.11 SEC

 FILE SIZES:   FILE 1:    53.8 MBYTE,  FILE 4:    79.7 MBYTE,   TOTAL:    133.5 MBYTE

 OPERATOR DM      FOR CENTER  0  COORDINATES:    0.000000    0.000000    0.000000


 **********************************************************************************************************************************
 DATASETS  * FILE   NREC   LENGTH (MB)   RECORD NAMES
              1      19       53.83       500      610      700      900      950      970     1000      129      960     1100   
                                          VAR    BASINP    GEOM    SYMINP    ZMAT    AOBASIS   BASIS     P2S    ABASIS      S 
                                         1400     1410     1200     1210     1080     1600     1650     1300     1700   
                                           T        V       H0       H01     AOSYM     SMH    MOLCAS    ERIS     OPER   

 PROGRAMS   *        TOTAL       INT
 CPU TIMES  *         0.54      0.50
 REAL TIME  *         0.83 SEC
 DISK USED  *       196.59 MB      
 GA USED    *         0.00 MB       (max)       0.00 MB       (current)
 **********************************************************************************************************************************

1PROGRAM * RHF-SCF (CLOSED SHELL)       Authors: W. Meyer, H.-J. Werner


 NUMBER OF ELECTRONS:      10+   10-
 CONVERGENCE THRESHOLDS:    1.00E-10 (Density)    1.00E-13 (Energy)
 MAX. NUMBER OF ITERATIONS:      200
 INTERPOLATION TYPE:            DIIS
 INTERPOLATION STEPS:              2 (START)      1 (STEP)
 LEVEL SHIFTS:                  0.00 (CLOSED)  0.00 (OPEN) 



 Orbital guess generated from atomic densities. Full valence occupancy:   12   4

 Molecular orbital dump at record        2100.2

 Initial alpha occupancy:   8   2
 Initial beta  occupancy:   8   2
 Wave function symmetry:    1

 ITERATION    DDIFF          GRAD             ENERGY        2-EL.EN.            DIPOLE MOMENTS         DIIS
    1      0.000D+00      0.000D+00      -112.36602780    160.116159    0.37174   -0.95338    0.00000    0
    2      0.000D+00      0.812D-02      -112.40440070    155.935245    0.20841   -0.72183    0.00000    1
    3      0.158D-01      0.383D-02      -112.41278935    157.695505    0.26146   -0.76538    0.00000    2
    4      0.523D-02      0.647D-03      -112.41323912    157.490963    0.26414   -0.76156    0.00000    3
    5      0.122D-02      0.133D-03      -112.41326199    157.510693    0.26625   -0.76185    0.00000    4
    6      0.224D-03      0.241D-04      -112.41326306    157.512151    0.26698   -0.76253    0.00000    5
    7      0.481D-04      0.596D-05      -112.41326310    157.511875    0.26723   -0.76262    0.00000    6
    8      0.107D-04      0.222D-05      -112.41326311    157.511911    0.26725   -0.76273    0.00000    7
    9      0.514D-05      0.544D-06      -112.41326311    157.511918    0.26727   -0.76274    0.00000    6
   10      0.131D-05      0.133D-06      -112.41326311    157.511905    0.26727   -0.76275    0.00000    6
   11      0.361D-06      0.311D-07      -112.41326311    157.511916    0.26727   -0.76275    0.00000    7
   12      0.908D-07      0.106D-07      -112.41326311    157.511912    0.26727   -0.76275    0.00000    7
   13      0.246D-07      0.317D-08      -112.41326311    157.511913    0.26727   -0.76275    0.00000    7
   14      0.659D-08      0.743D-09      -112.41326311    157.511913    0.26727   -0.76275    0.00000    7
   15      0.162D-08      0.182D-09      -112.41326311    157.511913    0.26727   -0.76275    0.00000    7
   16      0.419D-09      0.598D-10      -112.41326311    157.511913    0.26727   -0.76275    0.00000    7
   17      0.937D-10      0.187D-10      -112.41326311    157.511913    0.26727   -0.76275    0.00000    7
   18      0.443D-10      0.478D-11      -112.41326311    157.511913    0.26727   -0.76275    0.00000    7
   19      0.115D-10      0.136D-11      -112.41326311    157.511913    0.26727   -0.76275    0.00000    7
   20      0.351D-11      0.384D-12      -112.41326311    157.511913    0.26727   -0.76275    0.00000    0

 Final occupancy:   8   2

 !RHF STATE 1.1 Energy               -112.413263113009
 Nuclear energy                        39.72275404
 One-electron energy                 -230.89197373
 Two-electron energy                   78.75595658
 Virial quotient                       -1.00240100
 !RHF STATE 1.1 Dipole moment           0.26727169    -0.76274668     0.00000000
 Dipole moment /Debye                   0.67929238    -1.93858171     0.00000000

 Orbital energies:

         1.1          2.1          3.1          4.1          5.1          6.1          7.1          8.1          9.1         10.1
    -15.560554   -15.529672    -1.152812    -1.118379    -0.637889    -0.603226    -0.440483    -0.407158     0.032454     0.052512

         1.2          2.2          3.2          4.2
     -0.635623    -0.604235     0.054314     0.074400


 **********************************************************************************************************************************
 DATASETS  * FILE   NREC   LENGTH (MB)   RECORD NAMES
              1      19       53.83       500      610      700      900      950      970     1000      129      960     1100   
                                          VAR    BASINP    GEOM    SYMINP    ZMAT    AOBASIS   BASIS     P2S    ABASIS      S 
                                         1400     1410     1200     1210     1080     1600     1650     1300     1700   
                                           T        V       H0       H01     AOSYM     SMH    MOLCAS    ERIS     OPER   

              2       3        0.50       700     1000     2100   
                                         GEOM     BASIS     RHF  

 PROGRAMS   *        TOTAL       RHF       INT
 CPU TIMES  *         1.10      0.56      0.50
 REAL TIME  *         1.51 SEC
 DISK USED  *       196.59 MB      
 GA USED    *         0.00 MB       (max)       0.00 MB       (current)
 **********************************************************************************************************************************


1PROGRAM * CCSD (Closed-shell coupled cluster)     Authors: C. Hampel, H.-J. Werner, 1991, M. Deegan, P.J. Knowles, 1992


 Convergence thresholds:  THRVAR = 1.00D-08  THRDEN = 1.00D-12

 CCSD(T)     terms to be evaluated (factor= 1.000)


 Number of core orbitals:           2 (   2   0 )
 Number of closed-shell orbitals:   8 (   6   2 )
 Number of external orbitals:      90 (  56  34 )

 Molecular orbitals read from record     2100.2  Type=RHF/CANONICAL (state 1.1)

 Number of N-1 electron functions:               8
 Number of N-2 electron functions:              36
 Number of singly external CSFs:               404
 Number of doubly external CSFs:            131896
 Total number of CSFs:                      132301

 Length of J-op  integral file:               0.00 MB
 Length of K-op  integral file:               0.41 MB
 Length of 3-ext integral record:             0.00 MB

 Memory could be reduced to 4.55 Mwords without degradation in triples

 Integral transformation finished. Total CPU:   0.11 sec, npass=  1  Memory used:   1.62 MW

 Reference energy:                   -112.41326311

 MP2 singlet pair energy:              -0.26167165
 MP2 triplet pair energy:              -0.14052807
 MP2 correlation energy:               -0.40219972
 MP2 total energy:                   -112.81546283

 SCS-MP2 correlation energy:           -0.40144567   (PS=  1.200000  PT=  0.333333)
 SCS-MP2 total energy:               -112.81470878

 ITER.      SQ.NORM     CORR.ENERGY   TOTAL ENERGY   ENERGY CHANGE        DEN1      VAR(S)    VAR(P)  DIIS     TIME
   1      1.13806036    -0.42941729  -112.84268041    -0.02721758    -0.01757825  0.13D-02  0.19D-02  1  1     0.24
   2      1.14841498    -0.43164257  -112.84490568    -0.00222527    -0.01015591  0.18D-04  0.21D-03  2  2     0.38
   3      1.15111636    -0.43181306  -112.84507618    -0.00017049    -0.00150866  0.18D-04  0.11D-04  3  3     0.52
   4      1.15192029    -0.43181770  -112.84508081    -0.00000464    -0.00029756  0.14D-05  0.94D-06  4  4     0.65
   5      1.15212863    -0.43181127  -112.84507438     0.00000643    -0.00005796  0.27D-06  0.85D-07  5  5     0.80
   6      1.15218518    -0.43180814  -112.84507125     0.00000312    -0.00000795  0.34D-07  0.75D-08  6  6     0.94
   7      1.15220183    -0.43180746  -112.84507058     0.00000068    -0.00000155  0.44D-08  0.17D-08  6  1     1.08
   8      1.15220723    -0.43180728  -112.84507039     0.00000018    -0.00000001  0.89D-09  0.21D-09  6  2     1.22
   9      1.15220870    -0.43180720  -112.84507032     0.00000008     0.00000032  0.16D-09  0.44D-10  6  4     1.37
  10      1.15220927    -0.43180719  -112.84507030     0.00000001    -0.00000002  0.32D-10  0.67D-11  6  3     1.50
  11      1.15220927    -0.43180720  -112.84507031    -0.00000001     0.00000001  0.57D-11  0.15D-11  6  5     1.64
  12      1.15220921    -0.43180720  -112.84507032    -0.00000000    -0.00000000  0.55D-12  0.25D-12  6  6     1.78
  13      1.15220911    -0.43180721  -112.84507032    -0.00000001     0.00000002  0.32D-13  0.41D-13  6  2     1.93
  14      1.15220908    -0.43180721  -112.84507032    -0.00000000     0.00000001  0.48D-14  0.28D-14  6  1     2.07
  15      1.15220907    -0.43180721  -112.84507032    -0.00000000     0.00000000  0.11D-14  0.32D-15  6  4     2.21
  16      1.15220907    -0.43180721  -112.84507032    -0.00000000     0.00000000  0.20D-15  0.68D-16  6  3     2.36
  17      1.15220907    -0.43180721  -112.84507032    -0.00000000     0.00000000  0.33D-16  0.96D-17  6  6     2.50
  18      1.15220907    -0.43180721  -112.84507032    -0.00000000    -0.00000000  0.50D-17  0.14D-17  6  5     2.64
  19      1.15220907    -0.43180721  -112.84507032     0.00000000    -0.00000000  0.12D-17  0.27D-18  6  2     2.78
  20      1.15220907    -0.43180721  -112.84507032     0.00000000    -0.00000000  0.30D-18  0.76D-19  6  1     2.92
  21      1.15220907    -0.43180721  -112.84507032     0.00000000    -0.00000000  0.41D-19  0.13D-19  6  3     3.06
  22      1.15220907    -0.43180721  -112.84507032     0.00000000     0.00000000  0.50D-20  0.18D-20  6  4     3.20
  23      1.15220907    -0.43180721  -112.84507032     0.00000000    -0.00000000  0.10D-20  0.29D-21  6  6     3.34

 Norm of t1 vector:      0.05633646      S-energy:     0.00000000      T1 diagnostic:  0.00995897
                                                                       D1 diagnostic:  0.02463012


 Total CPU time for triples:      1.29 sec


 RESULTS
 =======

  Reference energy                   -112.413263113009
  CCSD singlet pair energy             -0.303746626862
  CCSD triplet pair energy             -0.128060582325
  CCSD correlation energy              -0.431807209186

  Triples (T) contribution             -0.011436486326
  Total correlation energy             -0.443243695513

  CCSD total energy                  -112.845070322196
  CCSD[T] energy                     -112.856902277890
  CCSD-T energy                      -112.856295756204
 !CCSD(T) total energy               -112.856506808522

 Timing summary (sec):

 STEP                 CPU(USER)    SYS     CPU(TOT)    WALL
 Transformation          0.11      0.02      0.13      0.14
 CCSD iterations         3.23      0.25      3.48      3.50
 Triples                 1.29      0.05      1.34      1.34

 Program statistics:

 Available memory in ccsd:               999999644
 Min. memory needed in ccsd:                424427
 Max. memory used in ccsd:                  534407
 Max. memory used in cckext:                591622 (23 integral passes)



 **********************************************************************************************************************************
 DATASETS  * FILE   NREC   LENGTH (MB)   RECORD NAMES
              1      20       68.23       500      610      700      900      950      970     1000      129      960     1100   
                                          VAR    BASINP    GEOM    SYMINP    ZMAT    AOBASIS   BASIS     P2S    ABASIS      S 
                                         1400     1410     1200     1210     1080     1600     1650     1300     1700     1380   
                                           T        V       H0       H01     AOSYM     SMH    MOLCAS    ERIS     OPER     JKOP   

              2       3        0.50       700     1000     2100   
                                         GEOM     BASIS     RHF  

 PROGRAMS   *        TOTAL   CCSD(T)       RHF       INT
 CPU TIMES  *         5.74      4.64      0.56      0.50
 REAL TIME  *         6.52 SEC
 DISK USED  *       196.59 MB      
 GA USED    *         0.00 MB       (max)       0.00 MB       (current)
 **********************************************************************************************************************************

        CCSD(T)         RHF-SCF 
   -112.85650681   -112.41326311
 **********************************************************************************************************************************
 Variable memory released
