
 Primary working directories    : /tmp/943217.187.gen6.q
 Secondary working directories  : /tmp/943217.187.gen6.q
 Wavefunction directory         : /home/vulcan/mel64643/wfu/
 Main file repository           : /tmp/943217.187.gen6.q/

 ARCHNAME  : Linux/x86_64
 FC        : /opt/intel/compilers_and_libraries_2016.1.150/linux/bin/intel64/ifort
 FCVERSION : 16.0.1
 BLASLIB   : -mkl
 id        : ccgc

 Nodes     nprocs
 n079         1
 ga_uses_ma=false, calling ma_init with nominal heap.
 GA-space will be limited to   8.0 MW (determined by -G option)

 Using customized tuning parameters: mindgm=10; mindgv=16; mindgc=4; mindgr=1; noblas=0; mincuda=1000; minvec=7
 default implementation of scratch files=df  

 ***,Optimization of formic acid
 memory,1000,m
 gthresh,energy=1.0d-12,orbital=1.0d-10,oneint=1.0d-16,twoint=1.0d-16,optgrad=1.0d-6,compress=1.0d-13
 geomtyp=xyz
 
 bohr
 geometry = {
  C   -3.4983766563   -0.8326667423    0.0000000000
  O   -3.0907875438    1.6205679006    0.0000000000
  O   -1.8889912699   -2.4789353648    0.0000000000
  H   -5.5109482483   -1.2726745814    0.0000000000
  H   -1.2384429738    1.9509188181    0.0000000000
  C    3.4983766563    0.8326667423   -0.0000000000
  O    3.0907875438   -1.6205679006   -0.0000000000
  O    1.8889912699    2.4789353648    0.0000000000
  H    5.5109482483    1.2726745814   -0.0000000000
  H    1.2384429738   -1.9509188181    0.0000000000
 }
 
 basis=VDZ
 {rhf;maxit,200}
 {ccsd(t);maxit,200}

 Variables initialized (661), CPU time= 0.01 sec
 Commands  initialized (458), CPU time= 0.00 sec, 486 directives.
 Default parameters read. Elapsed time= 0.05 sec

 Checking input...
 Passed
1


                                         ***  PROGRAM SYSTEM MOLPRO  ***
                         Copyright, University College Cardiff Consultants Limited, 2008

                                    Version 2010.1 linked May 16 2016 07:17:05


 **********************************************************************************************************************************
 LABEL *   Optimization of formic acid                                                   
 Linux-4.4.3/n079(x86_64) 64 bit mpp version                                             DATE: 24-Oct-23          TIME: 11:00:48  
 **********************************************************************************************************************************

 SHA1:             9e8077add272b0f3cad6f7df79ec5211205f459d
 **********************************************************************************************************************************

 THRESHOLDS:

 ZERO    =  1.00D-12  ONEINT  =  1.00D-16  TWOINT  =  1.00D-16  PREFAC  =  1.00D-14  LOCALI  =  1.00D-09  EORDER  =  1.00D-04
 ENERGY  =  1.00D-12  ETEST   =  0.00D+00  EDENS   =  0.00D+00  THRDEDEF=  1.00D-06  GRADIENT=  1.00D-02  STEP    =  1.00D-03
 ORBITAL =  1.00D-10  CIVEC   =  1.00D-05  COEFF   =  1.00D-04  PRINTCI =  5.00D-02  PUNCHCI =  9.90D+01  OPTGRAD =  1.00D-06
 OPTENERG=  1.00D-06  OPTSTEP =  3.00D-04  THRGRAD =  1.00D-10  COMPRESS=  1.00D-13  VARMIN  =  1.00D-07  VARMAX  =  1.00D-03
 THRDOUB =  0.00D+00  THRDIV  =  1.00D-05  THRRED  =  1.00D-07  THRPSP  =  1.00D+00  THRDC   =  1.00D-10  THRCS   =  1.00D-10
 THRNRM  =  1.00D-08  THREQ   =  0.00D+00  THRDE   =  1.00D+00  THRREF  =  1.00D-05  SPARFAC =  1.00D+00  THRDLP  =  1.00D-07
 THRDIA  =  1.00D-10  THRDLS  =  1.00D-07  THRGPS  =  0.00D+00  THRKEX  =  0.00D+00  THRDIS  =  2.00D-01  THRVAR  =  1.00D-10
 THRLOC  =  1.00D-06  THRGAP  =  1.00D-06  THRLOCT = -1.00D+00  THRGAPT = -1.00D+00  THRORB  =  1.00D-06  THRMLTP =  0.00D+00
 THRCPQCI=  1.00D-10  KEXTA   =  0.00D+00  THRCOARS=  0.00D+00  SYMTOL  =  1.00D-06  GRADTOL =  1.00D-06  THROVL  =  1.00D-08
 THRORTH =  1.00D-08  GRID    =  1.00D-06  GRIDMAX =  1.00D-03  DTMAX   =  0.00D+00

 SETTING GEOMTYP        =    XYZ
 ZUNIT=BOHR
 

 Variable memory set to 1000000000 words,  buffer space   230000 words

 SETTING BASIS          =    VDZ


 Recomputing integrals since basis changed


 Using spherical harmonics

 Library entry C      S cc-pVDZ              selected for orbital group  1
 Library entry C      P cc-pVDZ              selected for orbital group  1
 Library entry C      D cc-pVDZ              selected for orbital group  1
 Library entry O      S cc-pVDZ              selected for orbital group  2
 Library entry O      P cc-pVDZ              selected for orbital group  2
 Library entry O      D cc-pVDZ              selected for orbital group  2
 Library entry H      S cc-pVDZ              selected for orbital group  3
 Library entry H      P cc-pVDZ              selected for orbital group  3

1PROGRAM * SEWARD (Integral evaluation for generally contracted gaussian basis sets)     Author: Roland Lindh, 1990

 Geometry written to block  1 of record 700


 Point group  C2h 



 ATOMIC COORDINATES

 NR  ATOM    CHARGE       X              Y              Z

   1  C       6.00   -3.498376656   -0.832666742    0.000000000
   2  C       6.00    3.498376656    0.832666742    0.000000000
   3  O       8.00   -3.090787544    1.620567901    0.000000000
   4  O       8.00    3.090787544   -1.620567901    0.000000000
   5  O       8.00   -1.888991270   -2.478935365    0.000000000
   6  O       8.00    1.888991270    2.478935365    0.000000000
   7  H       1.00   -5.510948248   -1.272674581    0.000000000
   8  H       1.00    5.510948248    1.272674581    0.000000000
   9  H       1.00   -1.238442974    1.950918818    0.000000000
  10  H       1.00    1.238442974   -1.950918818    0.000000000

 Bond lengths in Bohr (Angstrom)

 1-3  2.486863305  1-5  2.302242754  1-7  2.060109539  2-4  2.486863305  2-6  2.302242754
     ( 1.315991383)     ( 1.218294395)     ( 1.090163016)     ( 1.315991383)     ( 1.218294395)

  2- 8  2.060109539   3- 9  1.881571719   4-10  1.881571719
       ( 1.090163016)       ( 0.995684871)       ( 0.995684871)

 Bond angles

  1- 3- 9  109.54509197   2- 4-10  109.54509197   3- 1- 5  126.21591750   3- 1- 7  111.76566433

  4-2-6  126.21591750   4-2-8  111.76566433   5-1-7  122.01841818   6-2-8  122.01841818

 NUCLEAR CHARGE:                   48
 NUMBER OF PRIMITIVE AOS:         190
 NUMBER OF SYMMETRY AOS:          184
 NUMBER OF CONTRACTIONS:          104   (  38Ag  +  14Au  +  38Bu  +  14Bg  )
 NUMBER OF CORE ORBITALS:           6   (   3Ag  +   0Au  +   3Bu  +   0Bg  )
 NUMBER OF VALENCE ORBITALS:       28   (  11Ag  +   3Au  +  11Bu  +   3Bg  )


 NUCLEAR REPULSION ENERGY  235.78364471


 Eigenvalues of metric

         1 0.816E-02 0.138E-01 0.166E-01 0.298E-01 0.372E-01 0.441E-01 0.552E-01 0.931E-01
         2 0.115E+00 0.174E+00 0.194E+00 0.417E+00 0.478E+00 0.556E+00 0.674E+00 0.999E+00
         3 0.870E-02 0.140E-01 0.164E-01 0.305E-01 0.350E-01 0.439E-01 0.527E-01 0.958E-01
         4 0.116E+00 0.175E+00 0.191E+00 0.417E+00 0.477E+00 0.570E+00 0.652E+00 0.999E+00


 Contracted 2-electron integrals neglected if value below      1.0D-16
 AO integral compression algorithm  1   Integral accuracy      1.0D-16

     40.632 MB (compressed) written to integral file (100.0%)

     Node minimum: 40.632 MB, node maximum: 40.632 MB


 NUMBER OF SORTED TWO-ELECTRON INTEGRALS:    4024002.     BUFFER LENGTH:  32768
 NUMBER OF SEGMENTS:   1  SEGMENT LENGTH:    4024002      RECORD LENGTH: 524288

 Memory used in sort:       4.58 MW

 SORT1 READ     4964096. AND WROTE     4024002. INTEGRALS IN     12 RECORDS. CPU TIME:     0.06 SEC, REAL TIME:     0.10 SEC
 SORT2 READ     4024002. AND WROTE     4024002. INTEGRALS IN    155 RECORDS. CPU TIME:     0.07 SEC, REAL TIME:     0.09 SEC

 FILE SIZES:   FILE 1:    35.7 MBYTE,  FILE 4:    50.4 MBYTE,   TOTAL:     86.0 MBYTE

 OPERATOR DM      FOR CENTER  0  COORDINATES:    0.000000    0.000000    0.000000


 **********************************************************************************************************************************
 DATASETS  * FILE   NREC   LENGTH (MB)   RECORD NAMES
              1      19       35.70       500      610      700      900      950      970     1000      129      960     1100   
                                          VAR    BASINP    GEOM    SYMINP    ZMAT    AOBASIS   BASIS     P2S    ABASIS      S 
                                         1400     1410     1200     1210     1080     1600     1650     1300     1700   
                                           T        V       H0       H01     AOSYM     SMH    MOLCAS    ERIS     OPER   

 PROGRAMS   *        TOTAL       INT
 CPU TIMES  *         0.96      0.92
 REAL TIME  *         1.21 SEC
 DISK USED  *       127.45 MB      
 GA USED    *         0.00 MB       (max)       0.00 MB       (current)
 **********************************************************************************************************************************

1PROGRAM * RHF-SCF (CLOSED SHELL)       Authors: W. Meyer, H.-J. Werner


 NUMBER OF ELECTRONS:      24+   24-
 CONVERGENCE THRESHOLDS:    1.00E-10 (Density)    1.00E-13 (Energy)
 MAX. NUMBER OF ITERATIONS:      200
 INTERPOLATION TYPE:            DIIS
 INTERPOLATION STEPS:              2 (START)      1 (STEP)
 LEVEL SHIFTS:                  0.00 (CLOSED)  0.00 (OPEN) 



 Orbital guess generated from atomic densities. Full valence occupancy:   14   3  14   3

 Molecular orbital dump at record        2100.2

 Initial alpha occupancy:  10   2  10   2
 Initial beta  occupancy:  10   2  10   2
 Wave function symmetry:    1

 ITERATION    DDIFF          GRAD             ENERGY        2-EL.EN.            DIPOLE MOMENTS         DIIS
    1      0.000D+00      0.000D+00      -377.45155602    747.544177    0.00000    0.00000    0.00000    0
    2      0.000D+00      0.198D-01      -377.53913454    744.693997    0.00000    0.00000    0.00000    1
    3      0.389D-01      0.122D-01      -377.58487248    746.933873    0.00000    0.00000    0.00000    2
    4      0.141D-01      0.173D-02      -377.58635128    746.655017    0.00000    0.00000    0.00000    3
    5      0.277D-02      0.716D-03      -377.58660825    746.681297    0.00000    0.00000    0.00000    4
    6      0.113D-02      0.206D-03      -377.58665427    746.725014    0.00000    0.00000    0.00000    5
    7      0.395D-03      0.946D-04      -377.58666561    746.710003    0.00000    0.00000    0.00000    6
    8      0.238D-03      0.279D-04      -377.58666661    746.715196    0.00000    0.00000    0.00000    7
    9      0.737D-04      0.936D-05      -377.58666670    746.713743    0.00000    0.00000    0.00000    8
   10      0.253D-04      0.255D-05      -377.58666671    746.713913    0.00000    0.00000    0.00000    7
   11      0.705D-05      0.624D-06      -377.58666671    746.713859    0.00000    0.00000    0.00000    8
   12      0.165D-05      0.174D-06      -377.58666671    746.713880    0.00000    0.00000    0.00000    7
   13      0.454D-06      0.697D-07      -377.58666671    746.713869    0.00000    0.00000    0.00000    8
   14      0.132D-06      0.212D-07      -377.58666671    746.713871    0.00000    0.00000    0.00000    7
   15      0.542D-07      0.631D-08      -377.58666671    746.713871    0.00000    0.00000    0.00000    7
   16      0.112D-07      0.175D-08      -377.58666671    746.713871    0.00000    0.00000    0.00000    7
   17      0.354D-08      0.688D-09      -377.58666671    746.713871    0.00000    0.00000    0.00000    7
   18      0.136D-08      0.204D-09      -377.58666671    746.713871    0.00000    0.00000    0.00000    8
   19      0.498D-09      0.669D-10      -377.58666671    746.713871    0.00000    0.00000    0.00000    8
   20      0.166D-09      0.148D-10      -377.58666671    746.713871    0.00000    0.00000    0.00000    7
   21      0.394D-10      0.274D-11      -377.58666671    746.713871    0.00000    0.00000    0.00000    0

 Final occupancy:  10   2  10   2

 !RHF STATE 1.1 Energy               -377.586666710738
 Nuclear energy                       235.78364471
 One-electron energy                 -986.72724687
 Two-electron energy                  373.35693545
 Virial quotient                       -1.00111679
 !RHF STATE 1.1 Dipole moment           0.00000000     0.00000000     0.00000000
 Dipole moment /Debye                   0.00000000     0.00000000     0.00000000

 Orbital energies:

         1.1          2.1          3.1          4.1          5.1          6.1          7.1          8.1          9.1         10.1
    -20.613178   -20.575561   -11.411028    -1.482972    -1.370850    -0.914655    -0.728837    -0.689299    -0.615612    -0.489682

        11.1         12.1
      0.204832     0.290552

         1.2          2.2          3.2          4.2
     -0.638996    -0.488239     0.162027     0.631550

         1.3          2.3          3.3          4.3          5.3          6.3          7.3          8.3          9.3         10.3
    -20.613176   -20.575561   -11.411029    -1.470171    -1.384904    -0.878642    -0.763939    -0.720032    -0.573983    -0.468000

        11.3         12.3
      0.210342     0.315881

         1.4          2.4          3.4          4.4
     -0.629394    -0.498948     0.167092     0.658187


 **********************************************************************************************************************************
 DATASETS  * FILE   NREC   LENGTH (MB)   RECORD NAMES
              1      19       35.70       500      610      700      900      950      970     1000      129      960     1100   
                                          VAR    BASINP    GEOM    SYMINP    ZMAT    AOBASIS   BASIS     P2S    ABASIS      S 
                                         1400     1410     1200     1210     1080     1600     1650     1300     1700   
                                           T        V       H0       H01     AOSYM     SMH    MOLCAS    ERIS     OPER   

              2       3        0.49       700     1000     2100   
                                         GEOM     BASIS     RHF  

 PROGRAMS   *        TOTAL       RHF       INT
 CPU TIMES  *         1.20      0.24      0.92
 REAL TIME  *         1.52 SEC
 DISK USED  *       127.45 MB      
 GA USED    *         0.00 MB       (max)       0.00 MB       (current)
 **********************************************************************************************************************************


1PROGRAM * CCSD (Closed-shell coupled cluster)     Authors: C. Hampel, H.-J. Werner, 1991, M. Deegan, P.J. Knowles, 1992


 Convergence thresholds:  THRVAR = 1.00D-08  THRDEN = 1.00D-12

 CCSD(T)     terms to be evaluated (factor= 1.000)


 Number of core orbitals:           6 (   3   0   3   0 )
 Number of closed-shell orbitals:  18 (   7   2   7   2 )
 Number of external orbitals:      80 (  28  12  28  12 )

 Molecular orbitals read from record     2100.2  Type=RHF/CANONICAL (state 1.1)

 Number of N-1 electron functions:              18
 Number of N-2 electron functions:             171
 Number of singly external CSFs:               440
 Number of doubly external CSFs:            272720
 Total number of CSFs:                      273161

 Length of J-op  integral file:               0.00 MB
 Length of K-op  integral file:               0.26 MB
 Length of 3-ext integral record:             0.00 MB

 Memory could be reduced to 3.82 Mwords without degradation in triples

 Integral transformation finished. Total CPU:   0.10 sec, npass=  1  Memory used:   1.67 MW

 Reference energy:                   -377.58666671

 MP2 singlet pair energy:              -0.59850719
 MP2 triplet pair energy:              -0.40655958
 MP2 correlation energy:               -1.00506676
 MP2 total energy:                   -378.59173347

 SCS-MP2 correlation energy:           -0.97117903   (PS=  1.200000  PT=  0.333333)
 SCS-MP2 total energy:               -378.55784574

 ITER.      SQ.NORM     CORR.ENERGY   TOTAL ENERGY   ENERGY CHANGE        DEN1      VAR(S)    VAR(P)  DIIS     TIME
   1      1.28095132    -1.02540347  -378.61207018    -0.02033671     0.01021541  0.10D-01  0.55D-02  1  1     0.37
   2      1.30447838    -1.02731125  -378.61397796    -0.00190778    -0.02494182  0.24D-03  0.10D-02  2  2     0.66
   3      1.31734552    -1.02824490  -378.61491162    -0.00093366    -0.00590574  0.20D-03  0.42D-04  3  3     0.94
   4      1.32261122    -1.02801546  -378.61468217     0.00022945    -0.00173321  0.17D-04  0.70D-05  4  4     1.22
   5      1.32463577    -1.02792713  -378.61459384     0.00008833    -0.00045116  0.11D-05  0.66D-06  5  5     1.50
   6      1.32497270    -1.02790724  -378.61457395     0.00001989    -0.00001534  0.10D-06  0.59D-07  6  6     1.79
   7      1.32504034    -1.02789973  -378.61456644     0.00000751    -0.00000441  0.88D-08  0.88D-08  6  2     2.07
   8      1.32504372    -1.02790059  -378.61456730    -0.00000085     0.00000200  0.18D-08  0.93D-09  6  1     2.36
   9      1.32504455    -1.02790026  -378.61456697     0.00000033     0.00000090  0.40D-09  0.18D-09  6  4     2.64
  10      1.32504645    -1.02790010  -378.61456682     0.00000015    -0.00000066  0.11D-09  0.30D-10  6  3     2.93
  11      1.32504595    -1.02790024  -378.61456695    -0.00000013     0.00000025  0.23D-10  0.62D-11  6  5     3.21
  12      1.32504560    -1.02790025  -378.61456696    -0.00000001     0.00000005  0.28D-11  0.12D-11  6  6     3.49
  13      1.32504525    -1.02790030  -378.61456701    -0.00000005     0.00000014  0.28D-12  0.23D-12  6  1     3.78
  14      1.32504512    -1.02790030  -378.61456701    -0.00000000     0.00000003  0.29D-13  0.23D-13  6  2     4.07
  15      1.32504508    -1.02790030  -378.61456701    -0.00000000     0.00000001  0.59D-14  0.28D-14  6  4     4.36
  16      1.32504507    -1.02790030  -378.61456701    -0.00000000     0.00000000  0.79D-15  0.59D-15  6  5     4.64
  17      1.32504506    -1.02790030  -378.61456702    -0.00000000    -0.00000000  0.88D-16  0.48D-16  6  3     4.92
  18      1.32504506    -1.02790030  -378.61456702    -0.00000000     0.00000000  0.15D-16  0.80D-17  6  6     5.21
  19      1.32504506    -1.02790030  -378.61456702    -0.00000000     0.00000000  0.37D-17  0.16D-17  6  1     5.50
  20      1.32504506    -1.02790030  -378.61456702     0.00000000    -0.00000000  0.61D-18  0.29D-18  6  5     5.79
  21      1.32504506    -1.02790030  -378.61456702    -0.00000000     0.00000000  0.97D-19  0.52D-19  6  4     6.07
  22      1.32504506    -1.02790030  -378.61456702     0.00000000    -0.00000000  0.81D-20  0.50D-20  6  2     6.36
  23      1.32504506    -1.02790030  -378.61456702     0.00000000     0.00000000  0.12D-20  0.89D-21  6  3     6.64
  24      1.32504506    -1.02790030  -378.61456702    -0.00000000     0.00000000  0.32D-21  0.19D-21  6  6     6.92

 Norm of t1 vector:      0.15149790      S-energy:     0.00000000      T1 diagnostic:  0.01785420
                                                                       D1 diagnostic:  0.06442901

 Singles amplitudes (print threshold =  0.500E-01):

         I         SYM. A    A   T(IA)

         8         2         1      0.05905689
        17         4         1      0.06089567


 Total CPU time for triples:      3.67 sec


 RESULTS
 =======

  Reference energy                   -377.586666710738
  CCSD singlet pair energy             -0.670243910196
  CCSD triplet pair energy             -0.357656394374
  CCSD correlation energy              -1.027900304568

  Triples (T) contribution             -0.031763964903
  Total correlation energy             -1.059664269471

  CCSD total energy                  -378.614567015306
  CCSD[T] energy                     -378.649572830270
  CCSD-T energy                      -378.645262406820
 !CCSD(T) total energy               -378.646330980209

 Timing summary (sec):

 STEP                 CPU(USER)    SYS     CPU(TOT)    WALL
 Transformation          0.11      0.02      0.13      0.13
 CCSD iterations         6.81      0.35      7.16      7.20
 Triples                 3.67      0.11      3.78      3.79

 Program statistics:

 Available memory in ccsd:               999998604
 Min. memory needed in ccsd:                781956
 Max. memory used in ccsd:                 1028476
 Max. memory used in cckext:               1140120 (24 integral passes)



 **********************************************************************************************************************************
 DATASETS  * FILE   NREC   LENGTH (MB)   RECORD NAMES
              1      20       52.00       500      610      700      900      950      970     1000      129      960     1100   
                                          VAR    BASINP    GEOM    SYMINP    ZMAT    AOBASIS   BASIS     P2S    ABASIS      S 
                                         1400     1410     1200     1210     1080     1600     1650     1300     1700     1380   
                                           T        V       H0       H01     AOSYM     SMH    MOLCAS    ERIS     OPER     JKOP   

              2       3        0.49       700     1000     2100   
                                         GEOM     BASIS     RHF  

 PROGRAMS   *        TOTAL   CCSD(T)       RHF       INT
 CPU TIMES  *        11.80     10.60      0.24      0.92
 REAL TIME  *        12.67 SEC
 DISK USED  *       143.18 MB      
 GA USED    *         0.00 MB       (max)       0.00 MB       (current)
 **********************************************************************************************************************************

        CCSD(T)         RHF-SCF 
   -378.64633098   -377.58666671
 **********************************************************************************************************************************
 Variable memory released
