
 Primary working directories    : /tmp/1047041.1308.gen4.q
 Secondary working directories  : /tmp/1047041.1308.gen4.q
 Wavefunction directory         : /home/vulcan/mel64643/wfu/
 Main file repository           : /tmp/1047041.1308.gen4.q/

 ARCHNAME  : Linux/x86_64
 FC        : /opt/intel/compilers_and_libraries_2016.1.150/linux/bin/intel64/ifort
 FCVERSION : 16.0.1
 BLASLIB   : -mkl
 id        : ccgc

 Nodes     nprocs
 n039         1
 ga_uses_ma=false, calling ma_init with nominal heap.
 GA-space will be limited to   8.0 MW (determined by -G option)

 Using customized tuning parameters: mindgm=10; mindgv=16; mindgc=4; mindgr=1; noblas=0; mincuda=1000; minvec=7
 default implementation of scratch files=df  

 ***,Optimization of ben_hcn
 memory,1000,m
 gthresh,energy=1.0d-12,orbital=1.0d-10,oneint=1.0d-16,twoint=1.0d-16,optgrad=1.0d-6,compress=1.0d-13
 geomtyp=xyz
 
 
 
 bohr
 geometry = {
  C   -1.8845668411    1.3694718983    2.2860977956
  C   -1.8574747802    2.6901909913   -0.0037697947
  C   -1.8748923740    1.3676080848   -2.2926403435
  C   -1.9193647570   -1.2754836079   -2.2915597242
  C   -1.9464430258   -2.5960199538   -0.0018226171
  C   -1.9290183758   -1.2736392608    2.2869560944
  H   -1.8736101612    2.3940561350    4.0593115184
  H   -1.8090190221    4.7375913680    0.0027285088
  H   -1.8563738029    2.3844620486   -4.0702300511
  H   -1.9180545967   -2.3002441439   -4.0646736376
  H   -1.9825909101   -4.6436247151   -0.0082982786
  H   -1.9351466113   -2.2907089700    4.0644876400
  N    6.6241462483   -0.1990543210    0.0073714036
  C    4.4344425568   -0.0759555934    0.0101975238
  H    2.4147677001    0.0378735878    0.0129444762
 }
 
 basis=aug-cc-pvdz, H=cc-pvdz
 {rhf;maxit,200}
 {ccsd(t)}

 Variables initialized (661), CPU time= 0.00 sec
 Commands  initialized (458), CPU time= 0.01 sec, 486 directives.
 Default parameters read. Elapsed time= 0.06 sec

 Checking input...
 Passed
1


                                         ***  PROGRAM SYSTEM MOLPRO  ***
                         Copyright, University College Cardiff Consultants Limited, 2008

                                    Version 2010.1 linked May 16 2016 07:17:05


 **********************************************************************************************************************************
 LABEL *   Optimization of ben_hcn                                                       
 Linux-4.4.3/n039(x86_64) 64 bit mpp version                                             DATE: 09-Mar-24          TIME: 17:39:52  
 **********************************************************************************************************************************

 SHA1:             9e8077add272b0f3cad6f7df79ec5211205f459d
 **********************************************************************************************************************************

 THRESHOLDS:

 ZERO    =  1.00D-12  ONEINT  =  1.00D-16  TWOINT  =  1.00D-16  PREFAC  =  1.00D-14  LOCALI  =  1.00D-09  EORDER  =  1.00D-04
 ENERGY  =  1.00D-12  ETEST   =  0.00D+00  EDENS   =  0.00D+00  THRDEDEF=  1.00D-06  GRADIENT=  1.00D-02  STEP    =  1.00D-03
 ORBITAL =  1.00D-10  CIVEC   =  1.00D-05  COEFF   =  1.00D-04  PRINTCI =  5.00D-02  PUNCHCI =  9.90D+01  OPTGRAD =  1.00D-06
 OPTENERG=  1.00D-06  OPTSTEP =  3.00D-04  THRGRAD =  1.00D-10  COMPRESS=  1.00D-13  VARMIN  =  1.00D-07  VARMAX  =  1.00D-03
 THRDOUB =  0.00D+00  THRDIV  =  1.00D-05  THRRED  =  1.00D-07  THRPSP  =  1.00D+00  THRDC   =  1.00D-10  THRCS   =  1.00D-10
 THRNRM  =  1.00D-08  THREQ   =  0.00D+00  THRDE   =  1.00D+00  THRREF  =  1.00D-05  SPARFAC =  1.00D+00  THRDLP  =  1.00D-07
 THRDIA  =  1.00D-10  THRDLS  =  1.00D-07  THRGPS  =  0.00D+00  THRKEX  =  0.00D+00  THRDIS  =  2.00D-01  THRVAR  =  1.00D-10
 THRLOC  =  1.00D-06  THRGAP  =  1.00D-06  THRLOCT = -1.00D+00  THRGAPT = -1.00D+00  THRORB  =  1.00D-06  THRMLTP =  0.00D+00
 THRCPQCI=  1.00D-10  KEXTA   =  0.00D+00  THRCOARS=  0.00D+00  SYMTOL  =  1.00D-06  GRADTOL =  1.00D-06  THROVL  =  1.00D-08
 THRORTH =  1.00D-08  GRID    =  1.00D-06  GRIDMAX =  1.00D-03  DTMAX   =  0.00D+00

 SETTING GEOMTYP        =    XYZ
 ZUNIT=BOHR
 

 Variable memory set to 1000000000 words,  buffer space   230000 words

 SETTING BASIS          =    AUG-CC-PVDZ,H=CC-PVDZ


 Recomputing integrals since basis changed


 Using spherical harmonics

 Library entry C      S aug-cc-pVDZ          selected for orbital group  1
 Library entry C      P aug-cc-pVDZ          selected for orbital group  1
 Library entry C      D aug-cc-pVDZ          selected for orbital group  1
 Library entry H      S cc-pVDZ              selected for orbital group  2
 Library entry H      P cc-pVDZ              selected for orbital group  2
 Library entry N      S aug-cc-pVDZ          selected for orbital group  3
 Library entry N      P aug-cc-pVDZ          selected for orbital group  3
 Library entry N      D aug-cc-pVDZ          selected for orbital group  3

1PROGRAM * SEWARD (Integral evaluation for generally contracted gaussian basis sets)     Author: Roland Lindh, 1990

 Geometry written to block  1 of record 700


 Point group  C1  



 ATOMIC COORDINATES

 NR  ATOM    CHARGE       X              Y              Z

   1  C       6.00   -1.884566841    1.369471898    2.286097796
   2  C       6.00   -1.857474780    2.690190991   -0.003769795
   3  C       6.00   -1.874892374    1.367608085   -2.292640344
   4  C       6.00   -1.919364757   -1.275483608   -2.291559724
   5  C       6.00   -1.946443026   -2.596019954   -0.001822617
   6  C       6.00   -1.929018376   -1.273639261    2.286956094
   7  H       1.00   -1.873610161    2.394056135    4.059311518
   8  H       1.00   -1.809019022    4.737591368    0.002728509
   9  H       1.00   -1.856373803    2.384462049   -4.070230051
  10  H       1.00   -1.918054597   -2.300244144   -4.064673638
  11  H       1.00   -1.982590910   -4.643624715   -0.008298279
  12  H       1.00   -1.935146611   -2.290708970    4.064487640
  13  N       7.00    6.624146248   -0.199054321    0.007371404
  14  C       6.00    4.434442557   -0.075955593    0.010197524
  15  H       1.00    2.414767700    0.037873588    0.012944476

 Bond lengths in Bohr (Angstrom)

 1-2  2.643582131  1-6  2.643485062  1-7  2.047969681  2-3  2.643569047  2-8  2.047984007
     ( 1.398923414)     ( 1.398872047)     ( 1.083738880)     ( 1.398916490)     ( 1.083746461)

  3- 4  2.643466031   3- 9  2.047964865   4- 5  2.643377668   4-10  2.047942583   5- 6  2.643388414
       ( 1.398861976)       ( 1.083736332)       ( 1.398815216)       ( 1.083724540)       ( 1.398820903)

  5-11  2.047934047   6-12  2.047946958  13-14  2.193162908  14-15  2.022881893
       ( 1.083720023)       ( 1.083726856)       ( 1.160571826)       ( 1.070462995)

 Bond angles

  1- 2- 3  119.99746447   1- 2- 8  119.79816258   1- 6- 5  120.00123434   1- 6-12  119.79451044

  2-1-6  119.99850523   2-1-7  119.99941105   2-3-4  119.99921051   2-3-9  120.20194019

  3- 2- 8  120.20282839   3- 4- 5  120.00130356   3- 4-10  119.99668097   4- 3- 9  119.79880593

  4- 5- 6  120.00228187   4- 5-11  119.79679909   5- 4-10  120.00029113   5- 6-12  120.20254793

  6- 1- 7  120.00203467   6- 5-11  120.20089667  13-14-15  179.99091354

 NUCLEAR CHARGE:                   56
 NUMBER OF PRIMITIVE AOS:         345
 NUMBER OF SYMMETRY AOS:          329
 NUMBER OF CONTRACTIONS:          219   ( 219A   )
 NUMBER OF CORE ORBITALS:           8   (   8A   )
 NUMBER OF VALENCE ORBITALS:       39   (  39A   )


 NUCLEAR REPULSION ENERGY  303.39346297


 Eigenvalues of metric

         1 0.864E-05 0.186E-04 0.229E-04 0.534E-04 0.628E-04 0.633E-04 0.929E-04 0.930E-04


 Contracted 2-electron integrals neglected if value below      1.0D-16
 AO integral compression algorithm  1   Integral accuracy      1.0D-16

     2340.159 MB (compressed) written to integral file ( 91.2%)

     Node minimum: 2340.159 MB, node maximum: 2340.159 MB


 NUMBER OF SORTED TWO-ELECTRON INTEGRALS:  290176095.     BUFFER LENGTH:  32768
 NUMBER OF SEGMENTS:  19  SEGMENT LENGTH:   15999762      RECORD LENGTH: 524288

 Memory used in sort:      16.56 MW

 SORT1 READ   320642736. AND WROTE   287599719. INTEGRALS IN    832 RECORDS. CPU TIME:     3.51 SEC, REAL TIME:     6.65 SEC
 SORT2 READ   287599719. AND WROTE   290176095. INTEGRALS IN   8927 RECORDS. CPU TIME:     2.00 SEC, REAL TIME:     3.20 SEC

 FILE SIZES:   FILE 1:  2151.2 MBYTE,  FILE 4:  3489.7 MBYTE,   TOTAL:   5640.9 MBYTE

 OPERATOR DM      FOR CENTER  0  COORDINATES:    0.000000    0.000000    0.000000


 **********************************************************************************************************************************
 DATASETS  * FILE   NREC   LENGTH (MB)   RECORD NAMES
              1      19     2151.75       500      610      700      900      950      970     1000      129      960     1100   
                                          VAR    BASINP    GEOM    SYMINP    ZMAT    AOBASIS   BASIS     P2S    ABASIS      S 
                                         1400     1410     1200     1210     1080     1600     1650     1300     1700   
                                           T        V       H0       H01     AOSYM     SMH    MOLCAS    ERIS     OPER   

 PROGRAMS   *        TOTAL       INT
 CPU TIMES  *        19.41     19.36
 REAL TIME  *        25.65 SEC
 DISK USED  *         7.98 GB      
 GA USED    *         0.01 MB       (max)       0.00 MB       (current)
 **********************************************************************************************************************************

1PROGRAM * RHF-SCF (CLOSED SHELL)       Authors: W. Meyer, H.-J. Werner


 NUMBER OF ELECTRONS:      28+   28-    SPACE SYMMETRY=1    SPIN SYMMETRY: Singlet 
 CONVERGENCE THRESHOLDS:    1.00E-10 (Density)    1.00E-13 (Energy)
 MAX. NUMBER OF ITERATIONS:      200
 INTERPOLATION TYPE:            DIIS
 INTERPOLATION STEPS:              2 (START)      1 (STEP)
 LEVEL SHIFTS:                  0.00 (CLOSED)  0.00 (OPEN) 



 Orbital guess generated from atomic densities. Full valence occupancy:   47

 Molecular orbital dump at record        2100.2

 ITERATION    DDIFF          GRAD             ENERGY        2-EL.EN.            DIPOLE MOMENTS         DIIS
    1      0.000D+00      0.000D+00      -323.54137047    822.123781   -1.89880    0.10257    0.00209    0
    2      0.000D+00      0.292D-02      -323.59780993    819.103395   -1.36876    0.04985   -0.00069    1
    3      0.781D-02      0.179D-02      -323.61440574    820.248565   -1.72960    0.07898    0.00059    2
    4      0.260D-02      0.576D-03      -323.61674212    820.450251   -1.63887    0.07176    0.00027    3
    5      0.963D-03      0.133D-03      -323.61687145    820.190268   -1.66281    0.07247    0.00025    4
    6      0.223D-03      0.229D-04      -323.61687758    820.217131   -1.66416    0.07243    0.00024    5
    7      0.845D-04      0.434D-05      -323.61687778    820.212248   -1.66451    0.07235    0.00023    6
    8      0.108D-04      0.123D-05      -323.61687780    820.213240   -1.66482    0.07241    0.00024    7
    9      0.345D-05      0.268D-06      -323.61687780    820.213273   -1.66479    0.07236    0.00023    6
   10      0.814D-06      0.715D-07      -323.61687780    820.213252   -1.66479    0.07240    0.00023    6
   11      0.185D-06      0.362D-07      -323.61687780    820.213267   -1.66479    0.07238    0.00023    7
   12      0.837D-07      0.707D-08      -323.61687780    820.213262   -1.66479    0.07238    0.00023    7
   13      0.237D-07      0.261D-08      -323.61687780    820.213265   -1.66479    0.07238    0.00023    7
   14      0.651D-08      0.779D-09      -323.61687780    820.213263   -1.66479    0.07238    0.00023    7
   15      0.214D-08      0.305D-09      -323.61687780    820.213264   -1.66479    0.07238    0.00023    8
   16      0.869D-09      0.109D-09      -323.61687780    820.213264   -1.66479    0.07238    0.00023    8
   17      0.312D-09      0.542D-10      -323.61687780    820.213264   -1.66479    0.07238    0.00023    8
   18      0.249D-09      0.270D-10      -323.61687780    820.213264   -1.66479    0.07238    0.00023    8
   19      0.225D-09      0.939D-11      -323.61687780    820.213264   -1.66479    0.07238    0.00023    8
   20      0.245D-09      0.320D-11      -323.61687780    820.213264   -1.66479    0.07238    0.00023    9
   21      0.132D-09      0.157D-11      -323.61687780    820.213264   -1.66479    0.07238    0.00023    9
   22      0.970D-10      0.902D-12      -323.61687780    820.213264   -1.66479    0.07238    0.00023    9
   23      0.101D-09      0.652D-12      -323.61687780    820.213264   -1.66479    0.07238    0.00023    9
   24      0.676D-10      0.649D-12      -323.61687780    820.213264   -1.66479    0.07238    0.00023    9
   25      0.405D-10      0.493D-12      -323.61687780    820.213264   -1.66479    0.07238    0.00023    9
   26      0.336D-10      0.515D-12      -323.61687780    820.213264   -1.66479    0.07238    0.00023    9
   27      0.269D-10      0.524D-12      -323.61687780    820.213264   -1.66479    0.07238    0.00023    9
   28      0.203D-10      0.547D-12      -323.61687780    820.213264   -1.66479    0.07238    0.00023    9
   29      0.238D-10      0.534D-12      -323.61687780    820.213264   -1.66479    0.07238    0.00023    9
   30      0.166D-10      0.440D-12      -323.61687780    820.213264   -1.66479    0.07238    0.00023    9
   31      0.165D-10      0.459D-12      -323.61687780    820.213264   -1.66479    0.07238    0.00023    9
   32      0.148D-10      0.498D-12      -323.61687780    820.213264   -1.66479    0.07238    0.00023    9
   33      0.119D-10      0.480D-12      -323.61687780    820.213264   -1.66479    0.07238    0.00023    9
   34      0.996D-11      0.493D-12      -323.61687780    820.213264   -1.66479    0.07238    0.00023    9
   35      0.224D-10      0.419D-12      -323.61687780    820.213264   -1.66479    0.07238    0.00023    9
   36      0.153D-10      0.446D-12      -323.61687780    820.213264   -1.66479    0.07238    0.00023    9
   37      0.131D-10      0.429D-12      -323.61687780    820.213264   -1.66479    0.07238    0.00023    9
   38      0.130D-10      0.417D-12      -323.61687780    820.213264   -1.66479    0.07238    0.00023    9
   39      0.880D-11      0.401D-12      -323.61687780    820.213264   -1.66479    0.07238    0.00023    9
   40      0.135D-10      0.429D-12      -323.61687780    820.213264   -1.66479    0.07238    0.00023    9
   41      0.202D-10      0.441D-12      -323.61687780    820.213264   -1.66479    0.07238    0.00023    9
   42      0.919D-11      0.499D-12      -323.61687780    820.213264   -1.66479    0.07238    0.00023    9
   43      0.858D-11      0.401D-12      -323.61687780    820.213264   -1.66479    0.07238    0.00023    9
   44      0.109D-10      0.630D-12      -323.61687780    820.213264   -1.66479    0.07238    0.00023    9
   45      0.107D-10      0.481D-12      -323.61687780    820.213264   -1.66479    0.07238    0.00023    9
   46      0.923D-11      0.446D-12      -323.61687780    820.213264   -1.66479    0.07238    0.00023    9
   47      0.251D-10      0.428D-12      -323.61687780    820.213264   -1.66479    0.07238    0.00023    0

 Final occupancy:  28

 !RHF STATE 1.1 Energy               -323.616877798161
 Nuclear energy                       303.39346297
 One-electron energy                -1037.11697263
 Two-electron energy                  410.10663186
 Virial quotient                       -1.00170998
 !RHF STATE 1.1 Dipole moment          -1.66478673     0.07238455     0.00023357
 Dipole moment /Debye                  -4.23118867     0.18397112     0.00059364

 Orbital energies:

         1.1          2.1          3.1          4.1          5.1          6.1          7.1          8.1          9.1         10.1
    -15.591649   -11.283865   -11.266255   -11.265728   -11.265667   -11.264551   -11.264479   -11.263922    -1.218336    -1.173918

        11.1         12.1         13.1         14.1         15.1         16.1         17.1         18.1         19.1         20.1
     -1.037878    -1.037697    -0.845989    -0.845449    -0.789910    -0.729358    -0.664877    -0.639200    -0.608556    -0.608555

        21.1         22.1         23.1         24.1         25.1         26.1         27.1         28.1         29.1         30.1
     -0.565229    -0.520373    -0.515196    -0.514512    -0.475691    -0.475686    -0.359669    -0.359661     0.055868     0.060059


 **********************************************************************************************************************************
 DATASETS  * FILE   NREC   LENGTH (MB)   RECORD NAMES
              1      19     2151.75       500      610      700      900      950      970     1000      129      960     1100   
                                          VAR    BASINP    GEOM    SYMINP    ZMAT    AOBASIS   BASIS     P2S    ABASIS      S 
                                         1400     1410     1200     1210     1080     1600     1650     1300     1700   
                                           T        V       H0       H01     AOSYM     SMH    MOLCAS    ERIS     OPER   

              2       3        1.49       700     1000     2100   
                                         GEOM     BASIS     RHF  

 PROGRAMS   *        TOTAL       RHF       INT
 CPU TIMES  *       127.88    108.47     19.36
 REAL TIME  *       144.90 SEC
 DISK USED  *         7.98 GB      
 GA USED    *         0.01 MB       (max)       0.00 MB       (current)
 **********************************************************************************************************************************


1PROGRAM * CCSD (Closed-shell coupled cluster)     Authors: C. Hampel, H.-J. Werner, 1991, M. Deegan, P.J. Knowles, 1992


 Convergence thresholds:  THRVAR = 1.00D-08  THRDEN = 1.00D-12

 CCSD(T)     terms to be evaluated (factor= 1.000)


 Number of core orbitals:           8 (   8 )
 Number of closed-shell orbitals:  20 (  20 )
 Number of external orbitals:     191 ( 191 )

 Molecular orbitals read from record     2100.2  Type=RHF/CANONICAL (state 1.1)

 Number of N-1 electron functions:              20
 Number of N-2 electron functions:             210
 Number of singly external CSFs:              3820
 Number of doubly external CSFs:           7298110
 Total number of CSFs:                     7301931

 Length of J-op  integral file:               0.00 MB
 Length of K-op  integral file:               3.32 MB
 Length of 3-ext integral record:             0.00 MB

 Memory could be reduced to 174.82 Mwords without degradation in triples

 Integral transformation finished. Total CPU:  23.06 sec, npass=  1  Memory used: 128.13 MW

 Reference energy:                   -323.61687780

 MP2 singlet pair energy:              -0.67334403
 MP2 triplet pair energy:              -0.43519880
 MP2 correlation energy:               -1.10854283
 MP2 total energy:                   -324.72542063

 SCS-MP2 correlation energy:           -1.07880320   (PS=  1.200000  PT=  0.333333)
 SCS-MP2 total energy:               -324.69568100

 ITER.      SQ.NORM     CORR.ENERGY   TOTAL ENERGY   ENERGY CHANGE        DEN1      VAR(S)    VAR(P)  DIIS     TIME
   1      1.42873404    -1.14462475  -324.76150255    -0.03608192    -0.00288948  0.51D-02  0.99D-02  1  1    96.09
   2      1.46305665    -1.15049824  -324.76737604    -0.00587349    -0.03103161  0.83D-04  0.13D-02  2  2   169.56
   3      1.47634844    -1.15094593  -324.76782373    -0.00044769    -0.00655948  0.40D-04  0.12D-03  3  3   243.07
   4      1.48204064    -1.15119563  -324.76807343    -0.00024970    -0.00178583  0.22D-05  0.15D-04  4  4   316.56
   5      1.48357007    -1.15123133  -324.76810912    -0.00003570    -0.00036591  0.25D-06  0.14D-05  5  5   390.11
   6      1.48387627    -1.15122281  -324.76810061     0.00000852    -0.00005025  0.24D-07  0.91D-07  6  6   463.67
   7      1.48391105    -1.15122622  -324.76810402    -0.00000341    -0.00000225  0.34D-08  0.80D-08  6  2   537.28
   8      1.48391573    -1.15122658  -324.76810437    -0.00000036    -0.00000042  0.41D-09  0.83D-09  6  1   610.83
   9      1.48391595    -1.15122674  -324.76810454    -0.00000017     0.00000079  0.63D-10  0.78D-10  6  3   684.39
  10      1.48391633    -1.15122680  -324.76810460    -0.00000006     0.00000002  0.10D-10  0.99D-11  6  4   757.98
  11      1.48391605    -1.15122684  -324.76810464    -0.00000004     0.00000022  0.16D-11  0.14D-11  6  5   831.54
  12      1.48391589    -1.15122685  -324.76810465    -0.00000001     0.00000008  0.25D-12  0.27D-12  6  6   905.07
  13      1.48391575    -1.15122685  -324.76810465    -0.00000000     0.00000005  0.14D-13  0.52D-13  6  2   978.66
  14      1.48391569    -1.15122686  -324.76810465    -0.00000000     0.00000002  0.22D-14  0.94D-14  6  1  1052.21
  15      1.48391566    -1.15122686  -324.76810465     0.00000000     0.00000001  0.46D-15  0.13D-14  6  3  1125.76
  16      1.48391565    -1.15122686  -324.76810465    -0.00000000     0.00000000  0.98D-16  0.19D-15  6  4  1199.33
  17      1.48391565    -1.15122686  -324.76810465    -0.00000000     0.00000000  0.19D-16  0.28D-16  6  5  1272.89
  18      1.48391565    -1.15122686  -324.76810465    -0.00000000     0.00000000  0.37D-17  0.36D-17  6  6  1346.46
  19      1.48391565    -1.15122686  -324.76810465    -0.00000000     0.00000000  0.83D-18  0.61D-18  6  2  1420.00
  20      1.48391565    -1.15122686  -324.76810465    -0.00000000     0.00000000  0.19D-18  0.13D-18  6  1  1493.59
  21      1.48391565    -1.15122686  -324.76810465    -0.00000000     0.00000000  0.67D-19  0.43D-19  6  3  1567.14
  22      1.48391565    -1.15122686  -324.76810465     0.00000000     0.00000000  0.32D-19  0.19D-19  6  4  1640.68

 Norm of t1 vector:      0.09773676      S-energy:     0.00000000      T1 diagnostic:  0.01092730
                                                                       D1 diagnostic:  0.02771759

 Doubles amplitudes (print threshold =  0.500E-01):

         I         J         SYM. A    SYM. B    A         B      T(IJ, AB)

        19        19         1         1         7         7     -0.05842475
        20        20         1         1         8         8     -0.05838599


 Total CPU time for triples:   1510.83 sec


 RESULTS
 =======

  Reference energy                   -323.616877798159
  CCSD singlet pair energy             -0.770021114980
  CCSD triplet pair energy             -0.381205740184
  CCSD correlation energy              -1.151226855163

  Triples (T) contribution             -0.054015825055
  Total correlation energy             -1.205242680218

  CCSD total energy                  -324.768104653322
  CCSD[T] energy                     -324.823452796206
  CCSD-T energy                      -324.821514999775
 !CCSD(T) total energy               -324.822120478378

 Timing summary (sec):

 STEP                 CPU(USER)    SYS     CPU(TOT)    WALL
 Transformation         23.90      1.18     25.08     25.08
 CCSD iterations      1616.81     15.04   1631.85   1632.25
 Triples              1510.83     14.35   1525.18   1525.48

 Program statistics:

 Available memory in ccsd:               999998300
 Min. memory needed in ccsd:              17709720
 Max. memory used in ccsd:                24415330
 Max. memory used in cckext:              20754978 (22 integral passes)



 **********************************************************************************************************************************
 DATASETS  * FILE   NREC   LENGTH (MB)   RECORD NAMES
              1      20     2833.92       500      610      700      900      950      970     1000      129      960     1100   
                                          VAR    BASINP    GEOM    SYMINP    ZMAT    AOBASIS   BASIS     P2S    ABASIS      S 
                                         1400     1410     1200     1210     1080     1600     1650     1300     1700     1380   
                                           T        V       H0       H01     AOSYM     SMH    MOLCAS    ERIS     OPER     JKOP   

              2       3        1.49       700     1000     2100   
                                         GEOM     BASIS     RHF  

 PROGRAMS   *        TOTAL   CCSD(T)       RHF       INT
 CPU TIMES  *      3279.44   3151.56    108.47     19.36
 REAL TIME  *      3327.86 SEC
 DISK USED  *         7.98 GB      
 GA USED    *         0.01 MB       (max)       0.00 MB       (current)
 **********************************************************************************************************************************

        CCSD(T)         RHF-SCF 
   -324.82212048   -323.61687780
 **********************************************************************************************************************************
 Variable memory released
