
 Primary working directories    : /tmp/1049102.1578.gen4.q
 Secondary working directories  : /tmp/1049102.1578.gen4.q
 Wavefunction directory         : /home/vulcan/mel64643/wfu/
 Main file repository           : /tmp/1049102.1578.gen4.q/

 ARCHNAME  : Linux/x86_64
 FC        : /opt/intel/compilers_and_libraries_2016.1.150/linux/bin/intel64/ifort
 FCVERSION : 16.0.1
 BLASLIB   : -mkl
 id        : ccgc

 Nodes     nprocs
 n061         1
 ga_uses_ma=false, calling ma_init with nominal heap.
 GA-space will be limited to   8.0 MW (determined by -G option)

 Using customized tuning parameters: mindgm=10; mindgv=16; mindgc=4; mindgr=1; noblas=0; mincuda=1000; minvec=7
 default implementation of scratch files=df  

 ***,Optimization of h2o_3
 memory,1000,m
 gthresh,energy=1.0d-12,orbital=1.0d-10,oneint=1.0d-16,twoint=1.0d-16,optgrad=1.0d-6,compress=1.0d-13
 geomtyp=xyz
 
 
 
 bohr
 geometry = {
  C    0.9170083502    1.4105453128   -2.2728711380
  C    0.7498895034    2.7156627082    0.0185137163
  C    1.0063367580    1.4118070018    2.3025097444
  C    1.4217820035   -1.1982489691    2.2952407016
  C    1.5961500413   -2.5018219928    0.0037827460
  C    1.3462804027   -1.1966871848   -2.2801286722
  H    0.7040943807    2.4193054167   -4.0425301260
  H    0.4073373237    4.7346487254    0.0243043039
  H    0.8766207180    2.4236815322    4.0786632387
  H    1.6078025231   -2.2104975122    4.0663538033
  H    1.9211827241   -4.5241814416   -0.0019811630
  H    1.4840640776   -2.2066797958   -4.0570318430
  N   -5.4421068143   -0.3716313651   -0.0705054342
  H   -5.5873559916   -1.5830654578   -1.5512566224
  H   -6.0659228107   -1.3319315477    1.4689157837
  H   -3.5622313225   -0.0826950282    0.1980986380
 }
 
 basis=aug-cc-pvdz, H=cc-pvdz
 {rhf;maxit,200}
 {ccsd(t)}

 Variables initialized (661), CPU time= 0.00 sec
 Commands  initialized (458), CPU time= 0.01 sec, 486 directives.
 Default parameters read. Elapsed time= 0.04 sec

 Checking input...
 Passed
1


                                         ***  PROGRAM SYSTEM MOLPRO  ***
                         Copyright, University College Cardiff Consultants Limited, 2008

                                    Version 2010.1 linked May 16 2016 07:17:05


 **********************************************************************************************************************************
 LABEL *   Optimization of h2o_3                                                         
 Linux-4.4.3/n061(x86_64) 64 bit mpp version                                             DATE: 21-Mar-24          TIME: 09:57:52  
 **********************************************************************************************************************************

 SHA1:             9e8077add272b0f3cad6f7df79ec5211205f459d
 **********************************************************************************************************************************

 THRESHOLDS:

 ZERO    =  1.00D-12  ONEINT  =  1.00D-16  TWOINT  =  1.00D-16  PREFAC  =  1.00D-14  LOCALI  =  1.00D-09  EORDER  =  1.00D-04
 ENERGY  =  1.00D-12  ETEST   =  0.00D+00  EDENS   =  0.00D+00  THRDEDEF=  1.00D-06  GRADIENT=  1.00D-02  STEP    =  1.00D-03
 ORBITAL =  1.00D-10  CIVEC   =  1.00D-05  COEFF   =  1.00D-04  PRINTCI =  5.00D-02  PUNCHCI =  9.90D+01  OPTGRAD =  1.00D-06
 OPTENERG=  1.00D-06  OPTSTEP =  3.00D-04  THRGRAD =  1.00D-10  COMPRESS=  1.00D-13  VARMIN  =  1.00D-07  VARMAX  =  1.00D-03
 THRDOUB =  0.00D+00  THRDIV  =  1.00D-05  THRRED  =  1.00D-07  THRPSP  =  1.00D+00  THRDC   =  1.00D-10  THRCS   =  1.00D-10
 THRNRM  =  1.00D-08  THREQ   =  0.00D+00  THRDE   =  1.00D+00  THRREF  =  1.00D-05  SPARFAC =  1.00D+00  THRDLP  =  1.00D-07
 THRDIA  =  1.00D-10  THRDLS  =  1.00D-07  THRGPS  =  0.00D+00  THRKEX  =  0.00D+00  THRDIS  =  2.00D-01  THRVAR  =  1.00D-10
 THRLOC  =  1.00D-06  THRGAP  =  1.00D-06  THRLOCT = -1.00D+00  THRGAPT = -1.00D+00  THRORB  =  1.00D-06  THRMLTP =  0.00D+00
 THRCPQCI=  1.00D-10  KEXTA   =  0.00D+00  THRCOARS=  0.00D+00  SYMTOL  =  1.00D-06  GRADTOL =  1.00D-06  THROVL  =  1.00D-08
 THRORTH =  1.00D-08  GRID    =  1.00D-06  GRIDMAX =  1.00D-03  DTMAX   =  0.00D+00

 SETTING GEOMTYP        =    XYZ
 ZUNIT=BOHR
 

 Variable memory set to 1000000000 words,  buffer space   230000 words

 SETTING BASIS          =    AUG-CC-PVDZ,H=CC-PVDZ


 Recomputing integrals since basis changed


 Using spherical harmonics

 Library entry C      S aug-cc-pVDZ          selected for orbital group  1
 Library entry C      P aug-cc-pVDZ          selected for orbital group  1
 Library entry C      D aug-cc-pVDZ          selected for orbital group  1
 Library entry H      S cc-pVDZ              selected for orbital group  2
 Library entry H      P cc-pVDZ              selected for orbital group  2
 Library entry N      S aug-cc-pVDZ          selected for orbital group  3
 Library entry N      P aug-cc-pVDZ          selected for orbital group  3
 Library entry N      D aug-cc-pVDZ          selected for orbital group  3

1PROGRAM * SEWARD (Integral evaluation for generally contracted gaussian basis sets)     Author: Roland Lindh, 1990

 Geometry written to block  1 of record 700


 Point group  C1  



 ATOMIC COORDINATES

 NR  ATOM    CHARGE       X              Y              Z

   1  C       6.00    0.917008350    1.410545313   -2.272871138
   2  C       6.00    0.749889503    2.715662708    0.018513716
   3  C       6.00    1.006336758    1.411807002    2.302509744
   4  C       6.00    1.421782003   -1.198248969    2.295240702
   5  C       6.00    1.596150041   -2.501821993    0.003782746
   6  C       6.00    1.346280403   -1.196687185   -2.280128672
   7  H       1.00    0.704094381    2.419305417   -4.042530126
   8  H       1.00    0.407337324    4.734648725    0.024304304
   9  H       1.00    0.876620718    2.423681532    4.078663239
  10  H       1.00    1.607802523   -2.210497512    4.066353803
  11  H       1.00    1.921182724   -4.524181442   -0.001981163
  12  H       1.00    1.484064078   -2.206679796   -4.057031843
  13  N       7.00   -5.442106814   -0.371631365   -0.070505434
  14  H       1.00   -5.587355992   -1.583065458   -1.551256622
  15  H       1.00   -6.065922811   -1.331931548    1.468915784
  16  H       1.00   -3.562231323   -0.082695028    0.198098638

 Bond lengths in Bohr (Angstrom)

 1-2  2.642291558  1-6  2.642345258  1-7  2.048077694  2-3  2.642431220  2-8  2.047847666
     ( 1.398240472)     ( 1.398268889)     ( 1.083796038)     ( 1.398314378)     ( 1.083674313)

  3- 4  2.642922580   3- 9  2.048276727   4- 5  2.642061014   4-10  2.048436566   5- 6  2.642359376
       ( 1.398574394)       ( 1.083901362)       ( 1.398118474)       ( 1.083985945)       ( 1.398276360)

  5-11  2.048320582   6-12  2.048524907  13-14  1.918669843  13-15  1.918629856  13-16  1.920823839
       ( 1.083924569)       ( 1.084032693)       ( 1.015316352)       ( 1.015295192)       ( 1.016456198)

 Bond angles

  1- 2- 3  119.98043592   1- 2- 8  120.00029176   1- 6- 5  120.02334599   1- 6-12  119.98622784

  2-1-6  120.00180477   2-1-7  119.96367635   2-3-4  120.01139834   2-3-9  119.97443928

  3- 2- 8  120.01759531   3- 4- 5  120.00108274   3- 4-10  119.99392385   4- 3- 9  120.01383066

  4- 5- 6  119.98049731   4- 5-11  120.00345132   5- 4-10  120.00498870   5- 6-12  119.99041163

  6- 1- 7  120.03377897   6- 5-11  120.01593736  14-13-15  106.17607511  14-13-16  106.08043219

 15-13-16  106.33745600

 NUCLEAR CHARGE:                   52
 NUMBER OF PRIMITIVE AOS:         322
 NUMBER OF SYMMETRY AOS:          308
 NUMBER OF CONTRACTIONS:          206   ( 206A   )
 NUMBER OF CORE ORBITALS:           7   (   7A   )
 NUMBER OF VALENCE ORBITALS:       37   (  37A   )


 NUCLEAR REPULSION ENERGY  273.70414249


 Eigenvalues of metric

         1 0.861E-05 0.184E-04 0.228E-04 0.532E-04 0.643E-04 0.644E-04 0.107E-03 0.107E-03


 Contracted 2-electron integrals neglected if value below      1.0D-16
 AO integral compression algorithm  1   Integral accuracy      1.0D-16

     1892.680 MB (compressed) written to integral file ( 94.5%)

     Node minimum: 1892.680 MB, node maximum: 1892.680 MB


 NUMBER OF SORTED TWO-ELECTRON INTEGRALS:  227303181.     BUFFER LENGTH:  32768
 NUMBER OF SEGMENTS:  15  SEGMENT LENGTH:   15999503      RECORD LENGTH: 524288

 Memory used in sort:      16.56 MW

 SORT1 READ   250230670. AND WROTE   226406360. INTEGRALS IN    654 RECORDS. CPU TIME:     2.41 SEC, REAL TIME:     4.53 SEC
 SORT2 READ   226406360. AND WROTE   227303181. INTEGRALS IN   7220 RECORDS. CPU TIME:     1.47 SEC, REAL TIME:     2.50 SEC

 FILE SIZES:   FILE 1:  1743.3 MBYTE,  FILE 4:  2743.1 MBYTE,   TOTAL:   4486.4 MBYTE

 OPERATOR DM      FOR CENTER  0  COORDINATES:    0.000000    0.000000    0.000000


 **********************************************************************************************************************************
 DATASETS  * FILE   NREC   LENGTH (MB)   RECORD NAMES
              1      19     1743.81       500      610      700      900      950      970     1000      129      960     1100   
                                          VAR    BASINP    GEOM    SYMINP    ZMAT    AOBASIS   BASIS     P2S    ABASIS      S 
                                         1400     1410     1200     1210     1080     1600     1650     1300     1700   
                                           T        V       H0       H01     AOSYM     SMH    MOLCAS    ERIS     OPER   

 PROGRAMS   *        TOTAL       INT
 CPU TIMES  *        14.78     14.74
 REAL TIME  *        18.97 SEC
 DISK USED  *         6.38 GB      
 GA USED    *         0.01 MB       (max)       0.00 MB       (current)
 **********************************************************************************************************************************

1PROGRAM * RHF-SCF (CLOSED SHELL)       Authors: W. Meyer, H.-J. Werner


 NUMBER OF ELECTRONS:      26+   26-    SPACE SYMMETRY=1    SPIN SYMMETRY: Singlet 
 CONVERGENCE THRESHOLDS:    1.00E-10 (Density)    1.00E-13 (Energy)
 MAX. NUMBER OF ITERATIONS:      200
 INTERPOLATION TYPE:            DIIS
 INTERPOLATION STEPS:              2 (START)      1 (STEP)
 LEVEL SHIFTS:                  0.00 (CLOSED)  0.00 (OPEN) 



 Orbital guess generated from atomic densities. Full valence occupancy:   44

 Molecular orbital dump at record        2100.2

 ITERATION    DDIFF          GRAD             ENERGY        2-EL.EN.            DIPOLE MOMENTS         DIIS
    1      0.000D+00      0.000D+00      -286.85325447    740.870372    0.52122   -0.76669    0.13608    0
    2      0.000D+00      0.322D-02      -286.92081179    735.079371    0.43645   -0.38292    0.06229    1
    3      0.826D-02      0.133D-02      -286.93014177    737.711641    0.45315   -0.52176    0.09227    2
    4      0.218D-02      0.381D-03      -286.93135996    737.191791    0.45178   -0.49473    0.08452    3
    5      0.783D-03      0.527D-04      -286.93138378    737.180554    0.45760   -0.50496    0.08847    4
    6      0.135D-03      0.177D-04      -286.93138622    737.195447    0.45648   -0.49939    0.08640    5
    7      0.511D-04      0.555D-05      -286.93138650    737.192385    0.45713   -0.50161    0.08714    6
    8      0.149D-04      0.129D-05      -286.93138652    737.191376    0.45728   -0.50125    0.08700    7
    9      0.416D-05      0.541D-06      -286.93138652    737.191834    0.45731   -0.50134    0.08703    7
   10      0.147D-05      0.142D-06      -286.93138652    737.191783    0.45732   -0.50135    0.08703    7
   11      0.510D-06      0.401D-07      -286.93138652    737.191768    0.45733   -0.50134    0.08703    7
   12      0.136D-06      0.167D-07      -286.93138652    737.191782    0.45732   -0.50135    0.08703    8
   13      0.573D-07      0.712D-08      -286.93138652    737.191777    0.45732   -0.50135    0.08703    8
   14      0.304D-07      0.343D-08      -286.93138652    737.191779    0.45732   -0.50135    0.08703    8
   15      0.186D-07      0.134D-08      -286.93138652    737.191778    0.45732   -0.50135    0.08703    8
   16      0.698D-08      0.450D-09      -286.93138652    737.191778    0.45732   -0.50135    0.08703    9
   17      0.217D-08      0.124D-09      -286.93138652    737.191778    0.45732   -0.50135    0.08703    9
   18      0.413D-09      0.377D-10      -286.93138652    737.191778    0.45732   -0.50135    0.08703    8
   19      0.210D-09      0.152D-10      -286.93138652    737.191778    0.45732   -0.50135    0.08703    9
   20      0.120D-09      0.814D-11      -286.93138652    737.191778    0.45732   -0.50135    0.08703    9
   21      0.101D-09      0.406D-11      -286.93138652    737.191778    0.45732   -0.50135    0.08703    9
   22      0.202D-09      0.129D-11      -286.93138652    737.191778    0.45732   -0.50135    0.08703    9
   23      0.147D-09      0.856D-12      -286.93138652    737.191778    0.45732   -0.50135    0.08703    9
   24      0.113D-09      0.694D-12      -286.93138652    737.191778    0.45732   -0.50135    0.08703    9
   25      0.827D-10      0.656D-12      -286.93138652    737.191778    0.45732   -0.50135    0.08703    9
   26      0.517D-10      0.546D-12      -286.93138652    737.191778    0.45732   -0.50135    0.08703    9
   27      0.348D-10      0.504D-12      -286.93138652    737.191778    0.45732   -0.50135    0.08703    9
   28      0.305D-10      0.540D-12      -286.93138652    737.191778    0.45732   -0.50135    0.08703    9
   29      0.281D-10      0.658D-12      -286.93138652    737.191778    0.45732   -0.50135    0.08703    9
   30      0.263D-10      0.477D-12      -286.93138652    737.191778    0.45732   -0.50135    0.08703    9
   31      0.683D-11      0.454D-12      -286.93138652    737.191778    0.45732   -0.50135    0.08703    9
   32      0.964D-11      0.487D-12      -286.93138652    737.191778    0.45732   -0.50135    0.08703    9
   33      0.133D-10      0.414D-12      -286.93138652    737.191778    0.45732   -0.50135    0.08703    9
   34      0.180D-10      0.474D-12      -286.93138652    737.191778    0.45732   -0.50135    0.08703    9
   35      0.146D-10      0.490D-12      -286.93138652    737.191778    0.45732   -0.50135    0.08703    9
   36      0.147D-10      0.438D-12      -286.93138652    737.191778    0.45732   -0.50135    0.08703    9
   37      0.209D-10      0.472D-12      -286.93138652    737.191778    0.45732   -0.50135    0.08703    9
   38      0.103D-10      0.431D-12      -286.93138652    737.191778    0.45732   -0.50135    0.08703    9
   39      0.373D-11      0.400D-12      -286.93138652    737.191778    0.45732   -0.50135    0.08703    9
   40      0.132D-10      0.538D-12      -286.93138652    737.191778    0.45732   -0.50135    0.08703    9
   41      0.944D-11      0.398D-12      -286.93138652    737.191778    0.45732   -0.50135    0.08703    9
   42      0.871D-11      0.445D-12      -286.93138652    737.191778    0.45732   -0.50135    0.08703    9
   43      0.193D-10      0.432D-12      -286.93138652    737.191778    0.45732   -0.50135    0.08703    9
   44      0.172D-10      0.395D-12      -286.93138652    737.191778    0.45732   -0.50135    0.08703    9
   45      0.190D-10      0.478D-12      -286.93138652    737.191778    0.45732   -0.50135    0.08703    9
   46      0.169D-10      0.528D-12      -286.93138652    737.191778    0.45732   -0.50135    0.08703    0

 Final occupancy:  26

 !RHF STATE 1.1 Energy               -286.931386522796
 Nuclear energy                       273.70414249
 One-electron energy                 -929.23141813
 Two-electron energy                  368.59588911
 Virial quotient                       -1.00146594
 !RHF STATE 1.1 Dipole moment           0.45732414    -0.50134531     0.08703168
 Dipole moment /Debye                   1.16232588    -1.27420922     0.22119796

 Orbital energies:

         1.1          2.1          3.1          4.1          5.1          6.1          7.1          8.1          9.1         10.1
    -15.535011   -11.250632   -11.250028   -11.249684   -11.248806   -11.248669   -11.247844    -1.157506    -1.125558    -1.022058

        11.1         12.1         13.1         14.1         15.1         16.1         17.1         18.1         19.1         20.1
     -1.021955    -0.830641    -0.830544    -0.714510    -0.650463    -0.623926    -0.611644    -0.609815    -0.593584    -0.593467

        21.1         22.1         23.1         24.1         25.1         26.1         27.1         28.1
     -0.504971    -0.500058    -0.500037    -0.413447    -0.342972    -0.341989     0.063880     0.066417


 **********************************************************************************************************************************
 DATASETS  * FILE   NREC   LENGTH (MB)   RECORD NAMES
              1      19     1743.81       500      610      700      900      950      970     1000      129      960     1100   
                                          VAR    BASINP    GEOM    SYMINP    ZMAT    AOBASIS   BASIS     P2S    ABASIS      S 
                                         1400     1410     1200     1210     1080     1600     1650     1300     1700   
                                           T        V       H0       H01     AOSYM     SMH    MOLCAS    ERIS     OPER   

              2       3        1.40       700     1000     2100   
                                         GEOM     BASIS     RHF  

 PROGRAMS   *        TOTAL       RHF       INT
 CPU TIMES  *        94.24     79.46     14.74
 REAL TIME  *       107.03 SEC
 DISK USED  *         6.38 GB      
 GA USED    *         0.01 MB       (max)       0.00 MB       (current)
 **********************************************************************************************************************************


1PROGRAM * CCSD (Closed-shell coupled cluster)     Authors: C. Hampel, H.-J. Werner, 1991, M. Deegan, P.J. Knowles, 1992


 Convergence thresholds:  THRVAR = 1.00D-08  THRDEN = 1.00D-12

 CCSD(T)     terms to be evaluated (factor= 1.000)


 Number of core orbitals:           7 (   7 )
 Number of closed-shell orbitals:  19 (  19 )
 Number of external orbitals:     180 ( 180 )

 Molecular orbitals read from record     2100.2  Type=RHF/CANONICAL (state 1.1)

 Number of N-1 electron functions:              19
 Number of N-2 electron functions:             190
 Number of singly external CSFs:              3420
 Number of doubly external CSFs:           5849910
 Total number of CSFs:                     5853331

 Length of J-op  integral file:               0.00 MB
 Length of K-op  integral file:               2.96 MB
 Length of 3-ext integral record:             0.00 MB

 Memory could be reduced to 140.12 Mwords without degradation in triples

 Integral transformation finished. Total CPU:  13.94 sec, npass=  1  Memory used: 101.90 MW

 Reference energy:                   -286.93138652

 MP2 singlet pair energy:              -0.62062745
 MP2 triplet pair energy:              -0.38982381
 MP2 correlation energy:               -1.01045126
 MP2 total energy:                   -287.94183778

 SCS-MP2 correlation energy:           -0.98730997   (PS=  1.200000  PT=  0.333333)
 SCS-MP2 total energy:               -287.91869650

 ITER.      SQ.NORM     CORR.ENERGY   TOTAL ENERGY   ENERGY CHANGE        DEN1      VAR(S)    VAR(P)  DIIS     TIME
   1      1.38488063    -1.05474755  -287.98613407    -0.04429629    -0.01721778  0.36D-02  0.80D-02  1  1    50.84
   2      1.41439437    -1.06061048  -287.99199700    -0.00586293    -0.02705361  0.63D-04  0.10D-02  2  2    88.18
   3      1.42352469    -1.06070619  -287.99209271    -0.00009571    -0.00464290  0.27D-04  0.84D-04  3  3   125.58
   4      1.42746173    -1.06087494  -287.99226146    -0.00016875    -0.00121408  0.22D-05  0.11D-04  4  4   163.00
   5      1.42867540    -1.06090588  -287.99229240    -0.00003094    -0.00027326  0.27D-06  0.13D-05  5  5   200.45
   6      1.42897808    -1.06089564  -287.99228217     0.00001024    -0.00004352  0.23D-07  0.79D-07  6  6   237.91
   7      1.42901882    -1.06089728  -287.99228380    -0.00000163    -0.00000103  0.35D-08  0.82D-08  6  2   275.38
   8      1.42902802    -1.06089713  -287.99228366     0.00000014    -0.00000118  0.75D-09  0.76D-09  6  1   312.83
   9      1.42902786    -1.06089727  -287.99228379    -0.00000014     0.00000123  0.21D-09  0.92D-10  6  4   350.31
  10      1.42902905    -1.06089728  -287.99228380    -0.00000001    -0.00000018  0.57D-10  0.15D-10  6  3   387.79
  11      1.42902900    -1.06089730  -287.99228382    -0.00000002     0.00000013  0.14D-10  0.37D-11  6  5   425.21
  12      1.42902895    -1.06089730  -287.99228382    -0.00000000     0.00000003  0.15D-11  0.10D-11  6  6   462.68
  13      1.42902878    -1.06089730  -287.99228383    -0.00000000     0.00000006  0.70D-13  0.20D-12  6  2   500.14
  14      1.42902868    -1.06089730  -287.99228383    -0.00000000     0.00000002  0.81D-14  0.40D-13  6  1   537.60
  15      1.42902862    -1.06089730  -287.99228383    -0.00000000     0.00000001  0.89D-15  0.53D-14  6  3   575.06
  16      1.42902860    -1.06089730  -287.99228383    -0.00000000     0.00000000  0.12D-15  0.37D-15  6  4   612.52
  17      1.42902859    -1.06089730  -287.99228383    -0.00000000     0.00000000  0.32D-16  0.44D-16  6  5   649.97
  18      1.42902859    -1.06089730  -287.99228383    -0.00000000     0.00000000  0.85D-17  0.71D-17  6  6   687.43
  19      1.42902859    -1.06089730  -287.99228383    -0.00000000     0.00000000  0.25D-17  0.80D-18  6  2   724.93
  20      1.42902859    -1.06089730  -287.99228383    -0.00000000     0.00000000  0.83D-18  0.20D-18  6  1   762.39
  21      1.42902859    -1.06089730  -287.99228383    -0.00000000     0.00000000  0.31D-18  0.83D-19  6  3   799.87
  22      1.42902859    -1.06089730  -287.99228383    -0.00000000     0.00000000  0.12D-18  0.39D-19  6  4   837.34
  23      1.42902859    -1.06089730  -287.99228383    -0.00000000     0.00000000  0.56D-19  0.22D-19  6  6   874.80

 Norm of t1 vector:      0.08385534      S-energy:    -0.00000000      T1 diagnostic:  0.00961887
                                                                       D1 diagnostic:  0.02620249

 Doubles amplitudes (print threshold =  0.500E-01):

         I         J         SYM. A    SYM. B    A         B      T(IJ, AB)

        18        18         1         1         6         6     -0.05157491
        19        19         1         1         7         7     -0.05465082


 Total CPU time for triples:    733.39 sec


 RESULTS
 =======

  Reference energy                   -286.931386522796
  CCSD singlet pair energy             -0.711154027081
  CCSD triplet pair energy             -0.349743277811
  CCSD correlation energy              -1.060897304892

  Triples (T) contribution             -0.045600789252
  Total correlation energy             -1.106498094144

  CCSD total energy                  -287.992283827688
  CCSD[T] energy                     -288.038754816023
  CCSD-T energy                      -288.037496097389
 !CCSD(T) total energy               -288.037884616940

 Timing summary (sec):

 STEP                 CPU(USER)    SYS     CPU(TOT)    WALL
 Transformation         14.34      0.83     15.17     15.18
 CCSD iterations       860.48     12.37    872.85    873.09
 Triples               733.39     11.53    744.92    745.01

 Program statistics:

 Available memory in ccsd:               999998456
 Min. memory needed in ccsd:              14392275
 Max. memory used in ccsd:                19775697
 Max. memory used in cckext:              16737545 (23 integral passes)



 **********************************************************************************************************************************
 DATASETS  * FILE   NREC   LENGTH (MB)   RECORD NAMES
              1      20     2287.41       500      610      700      900      950      970     1000      129      960     1100   
                                          VAR    BASINP    GEOM    SYMINP    ZMAT    AOBASIS   BASIS     P2S    ABASIS      S 
                                         1400     1410     1200     1210     1080     1600     1650     1300     1700     1380   
                                           T        V       H0       H01     AOSYM     SMH    MOLCAS    ERIS     OPER     JKOP   

              2       3        1.40       700     1000     2100   
                                         GEOM     BASIS     RHF  

 PROGRAMS   *        TOTAL   CCSD(T)       RHF       INT
 CPU TIMES  *      1702.47   1608.23     79.46     14.74
 REAL TIME  *      1740.41 SEC
 DISK USED  *         6.38 GB      
 GA USED    *         0.01 MB       (max)       0.00 MB       (current)
 **********************************************************************************************************************************

        CCSD(T)         RHF-SCF 
   -288.03788462   -286.93138652
 **********************************************************************************************************************************
 Variable memory released
