
 Primary working directories    : /tmp/880701.233.gen4.q
 Secondary working directories  : /tmp/880701.233.gen4.q
 Wavefunction directory         : /home/vulcan/lo21740/wfu/
 Main file repository           : /tmp/880701.233.gen4.q/

 ARCHNAME  : Linux/x86_64
 FC        : /opt/intel/compilers_and_libraries_2016.1.150/linux/bin/intel64/ifort
 FCVERSION : 16.0.1
 BLASLIB   : -mkl
 id        : ccgc

 Nodes     nprocs
 n021         1
 ga_uses_ma=false, calling ma_init with nominal heap.
 GA-space will be limited to   8.0 MW (determined by -G option)

 Using customized tuning parameters: mindgm=10; mindgv=16; mindgc=4; mindgr=1; noblas=0; mincuda=1000; minvec=7
 default implementation of scratch files=df  

 ***,Optimization of formamide
 memory,1000,m
 gthresh,energy=1.0d-12,orbital=1.0d-10,oneint=1.0d-16,twoint=1.0d-16,optgrad=1.0d-6,compress=1.0d-13
 geomtyp=xyz
 
 bohr
 geometry = {
  C   -3.8267055047    0.0847689366   -0.0010077344
  O   -2.7296417454    2.1396042983    0.0015234796
  N   -2.6803713123   -2.1774072241   -0.0017664414
  H   -3.7393738685   -3.7566083084    0.0013824701
  H   -0.7513151042   -2.3059471969   -0.0004971566
  H   -5.9020522025   -0.0181170078    0.0003663618
  C    3.8248915668   -0.0879123139   -0.0010042190
  O    2.7307800846   -2.1383006672    0.0015138589
  N    2.6823580174    2.1814725330   -0.0017632447
  H    3.7388021328    3.7554888069    0.0013724376
  H    0.7500591768    2.3041934493   -0.0004926792
  H    5.9025687591    0.0187646941    0.0003728672
 }
 
 basis=AVDZ
 {rhf;maxit,200}
 {ccsd(t);maxit,200}

 Variables initialized (661), CPU time= 0.00 sec
 Commands  initialized (458), CPU time= 0.01 sec, 486 directives.
 Default parameters read. Elapsed time= 0.05 sec

 Checking input...
 Passed
1


                                         ***  PROGRAM SYSTEM MOLPRO  ***
                         Copyright, University College Cardiff Consultants Limited, 2008

                                    Version 2010.1 linked May 16 2016 07:17:05


 **********************************************************************************************************************************
 LABEL *   Optimization of formamide                                                     
 Linux-4.4.3/n021(x86_64) 64 bit mpp version                                             DATE: 24-May-23          TIME: 19:14:23  
 **********************************************************************************************************************************

 SHA1:             9e8077add272b0f3cad6f7df79ec5211205f459d
 **********************************************************************************************************************************

 THRESHOLDS:

 ZERO    =  1.00D-12  ONEINT  =  1.00D-16  TWOINT  =  1.00D-16  PREFAC  =  1.00D-14  LOCALI  =  1.00D-09  EORDER  =  1.00D-04
 ENERGY  =  1.00D-12  ETEST   =  0.00D+00  EDENS   =  0.00D+00  THRDEDEF=  1.00D-06  GRADIENT=  1.00D-02  STEP    =  1.00D-03
 ORBITAL =  1.00D-10  CIVEC   =  1.00D-05  COEFF   =  1.00D-04  PRINTCI =  5.00D-02  PUNCHCI =  9.90D+01  OPTGRAD =  1.00D-06
 OPTENERG=  1.00D-06  OPTSTEP =  3.00D-04  THRGRAD =  1.00D-10  COMPRESS=  1.00D-13  VARMIN  =  1.00D-07  VARMAX  =  1.00D-03
 THRDOUB =  0.00D+00  THRDIV  =  1.00D-05  THRRED  =  1.00D-07  THRPSP  =  1.00D+00  THRDC   =  1.00D-10  THRCS   =  1.00D-10
 THRNRM  =  1.00D-08  THREQ   =  0.00D+00  THRDE   =  1.00D+00  THRREF  =  1.00D-05  SPARFAC =  1.00D+00  THRDLP  =  1.00D-07
 THRDIA  =  1.00D-10  THRDLS  =  1.00D-07  THRGPS  =  0.00D+00  THRKEX  =  0.00D+00  THRDIS  =  2.00D-01  THRVAR  =  1.00D-10
 THRLOC  =  1.00D-06  THRGAP  =  1.00D-06  THRLOCT = -1.00D+00  THRGAPT = -1.00D+00  THRORB  =  1.00D-06  THRMLTP =  0.00D+00
 THRCPQCI=  1.00D-10  KEXTA   =  0.00D+00  THRCOARS=  0.00D+00  SYMTOL  =  1.00D-06  GRADTOL =  1.00D-06  THROVL  =  1.00D-08
 THRORTH =  1.00D-08  GRID    =  1.00D-06  GRIDMAX =  1.00D-03  DTMAX   =  0.00D+00

 SETTING GEOMTYP        =    XYZ
 ZUNIT=BOHR
 

 Variable memory set to 1000000000 words,  buffer space   230000 words

 SETTING BASIS          =    AVDZ


 Recomputing integrals since basis changed


 Using spherical harmonics

 Library entry C      S aug-cc-pVDZ          selected for orbital group  1
 Library entry C      P aug-cc-pVDZ          selected for orbital group  1
 Library entry C      D aug-cc-pVDZ          selected for orbital group  1
 Library entry O      S aug-cc-pVDZ          selected for orbital group  2
 Library entry O      P aug-cc-pVDZ          selected for orbital group  2
 Library entry O      D aug-cc-pVDZ          selected for orbital group  2
 Library entry N      S aug-cc-pVDZ          selected for orbital group  3
 Library entry N      P aug-cc-pVDZ          selected for orbital group  3
 Library entry N      D aug-cc-pVDZ          selected for orbital group  3
 Library entry H      S aug-cc-pVDZ          selected for orbital group  4
 Library entry H      P aug-cc-pVDZ          selected for orbital group  4

1PROGRAM * SEWARD (Integral evaluation for generally contracted gaussian basis sets)     Author: Roland Lindh, 1990

 Geometry written to block  1 of record 700


 Point group  C1  



 ATOMIC COORDINATES

 NR  ATOM    CHARGE       X              Y              Z

   1  C       6.00   -3.826705505    0.084768937   -0.001007734
   2  O       8.00   -2.729641745    2.139604298    0.001523480
   3  N       7.00   -2.680371312   -2.177407224   -0.001766441
   4  H       1.00   -3.739373868   -3.756608308    0.001382470
   5  H       1.00   -0.751315104   -2.305947197   -0.000497157
   6  H       1.00   -5.902052203   -0.018117008    0.000366362
   7  C       6.00    3.824891567   -0.087912314   -0.001004219
   8  O       8.00    2.730780085   -2.138300667    0.001513859
   9  N       7.00    2.682358017    2.181472533   -0.001763245
  10  H       1.00    3.738802133    3.755488807    0.001372438
  11  H       1.00    0.750059177    2.304193449   -0.000492679
  12  H       1.00    5.902568759    0.018764694    0.000372867

 Bond lengths in Bohr (Angstrom)

 1-2  2.329356920  1-3  2.536044881  1-6  2.077895888  3-4  1.901413262  3-5  1.933334423
     ( 1.232642594)     ( 1.342017152)     ( 1.099575147)     ( 1.006184563)     ( 1.023076514)

  7- 8  2.324043604   7- 9  2.540765843   7-12  2.080414477   9-10  1.895682260   9-11  1.936192358
       ( 1.229830908)       ( 1.344515378)       ( 1.100907926)       ( 1.003151848)       ( 1.024588868)

 Bond angles

  1-3-4  119.28122212   1-3-5  120.68530422   2-1-3  125.02938017   2-1-6  120.93553627

  3- 1- 6  114.03501069   4- 3- 5  120.03324916   7- 9-10  119.40809755   7- 9-11  120.35717661

  8- 7- 9  125.19188280   8- 7-12  121.02406697   9- 7-12  113.78397740  10- 9-11  120.23450111

 NUCLEAR CHARGE:                   48
 NUMBER OF PRIMITIVE AOS:         288
 NUMBER OF SYMMETRY AOS:          276
 NUMBER OF CONTRACTIONS:          192   ( 192A   )
 NUMBER OF CORE ORBITALS:           6   (   6A   )
 NUMBER OF VALENCE ORBITALS:       30   (  30A   )


 NUCLEAR REPULSION ENERGY  230.50415135


 Eigenvalues of metric

         1 0.232E-03 0.270E-03 0.524E-03 0.529E-03 0.565E-03 0.702E-03 0.713E-03 0.715E-03


 Contracted 2-electron integrals neglected if value below      1.0D-16
 AO integral compression algorithm  1   Integral accuracy      1.0D-16

     1254.359 MB (compressed) written to integral file ( 81.6%)

     Node minimum: 1254.359 MB, node maximum: 1254.359 MB


 NUMBER OF SORTED TWO-ELECTRON INTEGRALS:  171652656.     BUFFER LENGTH:  32768
 NUMBER OF SEGMENTS:  11  SEGMENT LENGTH:   15999503      RECORD LENGTH: 524288

 Memory used in sort:      16.56 MW

 SORT1 READ   192171061. AND WROTE   169203765. INTEGRALS IN    491 RECORDS. CPU TIME:     2.16 SEC, REAL TIME:     3.37 SEC
 SORT2 READ   169203765. AND WROTE   171652656. INTEGRALS IN   4785 RECORDS. CPU TIME:     1.43 SEC, REAL TIME:     2.11 SEC

 FILE SIZES:   FILE 1:  1141.8 MBYTE,  FILE 4:  2059.4 MBYTE,   TOTAL:   3201.2 MBYTE

 OPERATOR DM      FOR CENTER  0  COORDINATES:    0.000000    0.000000    0.000000


 **********************************************************************************************************************************
 DATASETS  * FILE   NREC   LENGTH (MB)   RECORD NAMES
              1      19     1142.22       500      610      700      900      950      970     1000      129      960     1100   
                                          VAR    BASINP    GEOM    SYMINP    ZMAT    AOBASIS   BASIS     P2S    ABASIS      S 
                                         1400     1410     1200     1210     1080     1600     1650     1300     1700   
                                           T        V       H0       H01     AOSYM     SMH    MOLCAS    ERIS     OPER   

 PROGRAMS   *        TOTAL       INT
 CPU TIMES  *        10.98     10.92
 REAL TIME  *        13.70 SEC
 DISK USED  *         4.46 GB      
 GA USED    *         0.00 MB       (max)       0.00 MB       (current)
 **********************************************************************************************************************************

1PROGRAM * RHF-SCF (CLOSED SHELL)       Authors: W. Meyer, H.-J. Werner


 NUMBER OF ELECTRONS:      24+   24-    SPACE SYMMETRY=1    SPIN SYMMETRY: Singlet 
 CONVERGENCE THRESHOLDS:    1.00E-10 (Density)    1.00E-13 (Energy)
 MAX. NUMBER OF ITERATIONS:      200
 INTERPOLATION TYPE:            DIIS
 INTERPOLATION STEPS:              2 (START)      1 (STEP)
 LEVEL SHIFTS:                  0.00 (CLOSED)  0.00 (OPEN) 



 Orbital guess generated from atomic densities. Full valence occupancy:   36

 Molecular orbital dump at record        2100.2

 ITERATION    DDIFF          GRAD             ENERGY        2-EL.EN.            DIPOLE MOMENTS         DIIS
    1      0.000D+00      0.000D+00      -337.80605451    704.692150   -0.00789   -0.02396   -0.00121    0
    2      0.000D+00      0.563D-02      -337.88348251    699.080281   -0.00539   -0.00918    0.00183    1
    3      0.107D-01      0.410D-02      -337.94122637    701.818464   -0.00638   -0.01466    0.00045    2
    4      0.434D-02      0.542D-03      -337.94343731    701.722993   -0.00590   -0.01324    0.00072    3
    5      0.103D-02      0.187D-03      -337.94370537    701.656167   -0.00604   -0.01370    0.00071    4
    6      0.353D-03      0.613D-04      -337.94376660    701.681689   -0.00591   -0.01330    0.00073    5
    7      0.156D-03      0.271D-04      -337.94377760    701.672864   -0.00598   -0.01356    0.00073    6
    8      0.741D-04      0.811D-05      -337.94377855    701.678285   -0.00589   -0.01326    0.00073    7
    9      0.232D-04      0.264D-05      -337.94377863    701.676158   -0.00597   -0.01353    0.00073    8
   10      0.607D-05      0.106D-05      -337.94377864    701.676214   -0.00592   -0.01338    0.00073    7
   11      0.276D-05      0.433D-06      -337.94377864    701.676436   -0.00594   -0.01344    0.00073    8
   12      0.718D-06      0.126D-06      -337.94377864    701.676383   -0.00594   -0.01343    0.00073    9
   13      0.331D-06      0.191D-07      -337.94377864    701.676380   -0.00594   -0.01343    0.00073    8
   14      0.503D-07      0.734D-08      -337.94377864    701.676385   -0.00594   -0.01343    0.00073    7
   15      0.205D-07      0.255D-08      -337.94377864    701.676383   -0.00594   -0.01343    0.00073    8
   16      0.615D-08      0.459D-09      -337.94377864    701.676383   -0.00594   -0.01343    0.00073    8
   17      0.964D-09      0.138D-09      -337.94377864    701.676383   -0.00594   -0.01343    0.00073    7
   18      0.295D-09      0.395D-10      -337.94377864    701.676383   -0.00594   -0.01343    0.00073    7
   19      0.934D-10      0.132D-10      -337.94377864    701.676383   -0.00594   -0.01343    0.00073    7
   20      0.308D-10      0.506D-11      -337.94377864    701.676383   -0.00594   -0.01343    0.00073    8
   21      0.155D-10      0.208D-11      -337.94377864    701.676383   -0.00594   -0.01343    0.00073    8
   22      0.606D-11      0.797D-12      -337.94377864    701.676383   -0.00594   -0.01343    0.00073    8
   23      0.373D-11      0.391D-12      -337.94377864    701.676383   -0.00594   -0.01343    0.00073    8
   24      0.391D-11      0.166D-12      -337.94377864    701.676383   -0.00594   -0.01343    0.00073    9
   25      0.257D-11      0.120D-12      -337.94377864    701.676383   -0.00594   -0.01343    0.00073    9
   26      0.188D-11      0.939D-13      -337.94377864    701.676383   -0.00594   -0.01343    0.00073    0

 Final occupancy:  24

 !RHF STATE 1.1 Energy               -337.943778640442
 Nuclear energy                       230.50415135
 One-electron energy                 -919.28612157
 Two-electron energy                  350.83819158
 Virial quotient                       -1.00173022
 !RHF STATE 1.1 Dipole moment          -0.00593983    -0.01343309     0.00073439
 Dipole moment /Debye                  -0.01509656    -0.03414128     0.00186651

 Orbital energies:

         1.1          2.1          3.1          4.1          5.1          6.1          7.1          8.1          9.1         10.1
    -20.541439   -20.540850   -15.589424   -15.588471   -11.367748   -11.367681    -1.389489    -1.384450    -1.218554    -1.212299

        11.1         12.1         13.1         14.1         15.1         16.1         17.1         18.1         19.1         20.1
     -0.860914    -0.835703    -0.749938    -0.740931    -0.705922    -0.645103    -0.619305    -0.593708    -0.573726    -0.565661

        21.1         22.1         23.1         24.1         25.1         26.1
     -0.454436    -0.429027    -0.420338    -0.409753     0.033379     0.036361


 **********************************************************************************************************************************
 DATASETS  * FILE   NREC   LENGTH (MB)   RECORD NAMES
              1      19     1142.22       500      610      700      900      950      970     1000      129      960     1100   
                                          VAR    BASINP    GEOM    SYMINP    ZMAT    AOBASIS   BASIS     P2S    ABASIS      S 
                                         1400     1410     1200     1210     1080     1600     1650     1300     1700   
                                           T        V       H0       H01     AOSYM     SMH    MOLCAS    ERIS     OPER   

              2       3        1.21       700     1000     2100   
                                         GEOM     BASIS     RHF  

 PROGRAMS   *        TOTAL       RHF       INT
 CPU TIMES  *        50.97     39.99     10.92
 REAL TIME  *        56.92 SEC
 DISK USED  *         4.46 GB      
 GA USED    *         0.00 MB       (max)       0.00 MB       (current)
 **********************************************************************************************************************************


1PROGRAM * CCSD (Closed-shell coupled cluster)     Authors: C. Hampel, H.-J. Werner, 1991, M. Deegan, P.J. Knowles, 1992


 Convergence thresholds:  THRVAR = 1.00D-08  THRDEN = 1.00D-12

 CCSD(T)     terms to be evaluated (factor= 1.000)


 Number of core orbitals:           6 (   6 )
 Number of closed-shell orbitals:  18 (  18 )
 Number of external orbitals:     168 ( 168 )

 Molecular orbitals read from record     2100.2  Type=RHF/CANONICAL (state 1.1)

 Number of N-1 electron functions:              18
 Number of N-2 electron functions:             171
 Number of singly external CSFs:              3024
 Number of doubly external CSFs:           4573800
 Total number of CSFs:                     4576825

 Length of J-op  integral file:               0.00 MB
 Length of K-op  integral file:               2.58 MB
 Length of 3-ext integral record:             0.00 MB

 Memory could be reduced to 108.88 Mwords without degradation in triples

 Integral transformation finished. Total CPU:  12.15 sec, npass=  1  Memory used:  78.69 MW

 Reference energy:                   -337.94377864

 MP2 singlet pair energy:              -0.62275600
 MP2 triplet pair energy:              -0.40616841
 MP2 correlation energy:               -1.02892441
 MP2 total energy:                   -338.97270305

 SCS-MP2 correlation energy:           -1.00003421   (PS=  1.200000  PT=  0.333333)
 SCS-MP2 total energy:               -338.94381285

 ITER.      SQ.NORM     CORR.ENERGY   TOTAL ENERGY   ENERGY CHANGE        DEN1      VAR(S)    VAR(P)  DIIS     TIME
   1      1.31936123    -1.05744617  -339.00122481    -0.02852176     0.00279216  0.10D-01  0.60D-02  1  1    48.47
   2      1.34487721    -1.05932962  -339.00310826    -0.00188345    -0.02595951  0.22D-03  0.11D-02  2  2    85.04
   3      1.35751741    -1.06022266  -339.00400130    -0.00089304    -0.00556468  0.22D-03  0.52D-04  3  3   121.61
   4      1.36273228    -1.05995835  -339.00373699     0.00026431    -0.00169547  0.22D-04  0.96D-05  4  4   158.19
   5      1.36488304    -1.05990085  -339.00367949     0.00005750    -0.00045019  0.27D-05  0.12D-05  5  5   194.82
   6      1.36540493    -1.05987220  -339.00365084     0.00002866    -0.00004978  0.27D-06  0.19D-06  6  6   231.49
   7      1.36553237    -1.05985989  -339.00363853     0.00001231    -0.00000193  0.35D-07  0.23D-07  6  1   268.14
   8      1.36556968    -1.05985869  -339.00363733     0.00000120    -0.00000700  0.75D-08  0.33D-08  6  2   304.80
   9      1.36557119    -1.05985886  -339.00363750    -0.00000017     0.00000266  0.13D-08  0.49D-09  6  3   341.40
  10      1.36557596    -1.05985832  -339.00363696     0.00000055    -0.00000110  0.32D-09  0.69D-10  6  4   378.03
  11      1.36557572    -1.05985857  -339.00363721    -0.00000025     0.00000046  0.59D-10  0.13D-10  6  5   414.66
  12      1.36557572    -1.05985854  -339.00363718     0.00000003     0.00000002  0.44D-11  0.35D-11  6  6   451.27
  13      1.36557544    -1.05985858  -339.00363723    -0.00000004     0.00000012  0.11D-11  0.38D-12  6  1   487.93
  14      1.36557534    -1.05985859  -339.00363723    -0.00000001     0.00000004  0.89D-13  0.73D-13  6  2   524.57
  15      1.36557532    -1.05985859  -339.00363723     0.00000000     0.00000001  0.22D-13  0.12D-13  6  3   561.18
  16      1.36557532    -1.05985859  -339.00363723    -0.00000000     0.00000000  0.48D-14  0.21D-14  6  4   597.79
  17      1.36557532    -1.05985859  -339.00363723     0.00000000    -0.00000000  0.87D-15  0.43D-15  6  5   634.42
  18      1.36557532    -1.05985859  -339.00363723     0.00000000    -0.00000000  0.27D-15  0.80D-16  6  6   671.04
  19      1.36557532    -1.05985859  -339.00363723    -0.00000000    -0.00000000  0.53D-16  0.21D-16  6  1   707.68
  20      1.36557532    -1.05985859  -339.00363723     0.00000000    -0.00000000  0.15D-16  0.55D-17  6  2   744.34
  21      1.36557532    -1.05985859  -339.00363723    -0.00000000     0.00000000  0.37D-17  0.13D-17  6  3   781.00
  22      1.36557532    -1.05985859  -339.00363723    -0.00000000     0.00000000  0.83D-18  0.32D-18  6  4   817.63
  23      1.36557532    -1.05985859  -339.00363723     0.00000000     0.00000000  0.23D-18  0.83D-19  6  5   854.27
  24      1.36557532    -1.05985859  -339.00363723    -0.00000000     0.00000000  0.53D-19  0.22D-19  6  6   890.95
  25      1.36557532    -1.05985859  -339.00363723     0.00000000    -0.00000000  0.14D-19  0.50D-20  6  1   927.57
  26      1.36557532    -1.05985859  -339.00363723     0.00000000    -0.00000000  0.34D-20  0.13D-20  6  2   964.19

 Norm of t1 vector:      0.14831632      S-energy:     0.00000000      T1 diagnostic:  0.01747925
                                                                       D1 diagnostic:  0.05908916


 Total CPU time for triples:    694.93 sec


 RESULTS
 =======

  Reference energy                   -337.943778640444
  CCSD singlet pair energy             -0.699684879408
  CCSD triplet pair energy             -0.360173714533
  CCSD correlation energy              -1.059858593941

  Triples (T) contribution             -0.039945232676
  Total correlation energy             -1.099803826616

  CCSD total energy                  -339.003637234384
  CCSD[T] energy                     -339.046806229006
  CCSD-T energy                      -339.042459044708
 !CCSD(T) total energy               -339.043582467060

 Timing summary (sec):

 STEP                 CPU(USER)    SYS     CPU(TOT)    WALL
 Transformation         12.60      0.68     13.28     13.29
 CCSD iterations       951.61     10.58    962.19    962.41
 Triples               694.93      7.86    702.79    702.88

 Program statistics:

 Available memory in ccsd:               999998604
 Min. memory needed in ccsd:              11370604
 Max. memory used in ccsd:                15561652
 Max. memory used in cckext:              13129806 (26 integral passes)



 **********************************************************************************************************************************
 DATASETS  * FILE   NREC   LENGTH (MB)   RECORD NAMES
              1      20     1562.28       500      610      700      900      950      970     1000      129      960     1100   
                                          VAR    BASINP    GEOM    SYMINP    ZMAT    AOBASIS   BASIS     P2S    ABASIS      S 
                                         1400     1410     1200     1210     1080     1600     1650     1300     1700     1380   
                                           T        V       H0       H01     AOSYM     SMH    MOLCAS    ERIS     OPER     JKOP   

              2       3        1.21       700     1000     2100   
                                         GEOM     BASIS     RHF  

 PROGRAMS   *        TOTAL   CCSD(T)       RHF       INT
 CPU TIMES  *      1710.12   1659.15     39.99     10.92
 REAL TIME  *      1735.60 SEC
 DISK USED  *         4.46 GB      
 GA USED    *         0.00 MB       (max)       0.00 MB       (current)
 **********************************************************************************************************************************

        CCSD(T)         RHF-SCF 
   -339.04358247   -337.94377864
 **********************************************************************************************************************************
 Variable memory released
