
 Primary working directories    : /tmp/880701.452.gen4.q
 Secondary working directories  : /tmp/880701.452.gen4.q
 Wavefunction directory         : /home/vulcan/lo21740/wfu/
 Main file repository           : /tmp/880701.452.gen4.q/

 ARCHNAME  : Linux/x86_64
 FC        : /opt/intel/compilers_and_libraries_2016.1.150/linux/bin/intel64/ifort
 FCVERSION : 16.0.1
 BLASLIB   : -mkl
 id        : ccgc

 Nodes     nprocs
 n058         1
 ga_uses_ma=false, calling ma_init with nominal heap.
 GA-space will be limited to   8.0 MW (determined by -G option)

 Using customized tuning parameters: mindgm=10; mindgv=16; mindgc=4; mindgr=1; noblas=0; mincuda=1000; minvec=7
 default implementation of scratch files=df  

 ***,Optimization of formamide
 memory,1000,m
 gthresh,energy=1.0d-12,orbital=1.0d-10,oneint=1.0d-16,twoint=1.0d-16,optgrad=1.0d-6,compress=1.0d-13
 geomtyp=xyz
 
 bohr
 geometry = {
  C   -3.8257964746    0.0863419998    0.0017906906
  O   -2.7302142610    2.1389509613   -0.0036433465
  N   -2.6813612981   -2.1794399319    0.0007632440
  H   -3.7390877432   -3.7560477548   -0.0017150543
  H   -0.7506820272   -2.3050733234   -0.0009163101
  H   -5.9023063179   -0.0184346460    0.0056634666
  C    3.8258018524   -0.0863407211   -0.0012406849
  O    2.7302158116   -2.1389538982   -0.0035059082
  N    2.6813648963    2.1794402972   -0.0030587208
  H    3.7390830678    3.7560473802    0.0020381334
  H    0.7506846122    2.3050716957   -0.0034170033
  H    5.9022978815    0.0184379412    0.0072414935
 }
 
 basis=AVDZ
 {rhf;maxit,200}
 {ccsd(t);maxit,200}

 Variables initialized (661), CPU time= 0.00 sec
 Commands  initialized (458), CPU time= 0.01 sec, 486 directives.
 Default parameters read. Elapsed time= 0.05 sec

 Checking input...
 Passed
1


                                         ***  PROGRAM SYSTEM MOLPRO  ***
                         Copyright, University College Cardiff Consultants Limited, 2008

                                    Version 2010.1 linked May 16 2016 07:17:05


 **********************************************************************************************************************************
 LABEL *   Optimization of formamide                                                     
 Linux-4.4.3/n058(x86_64) 64 bit mpp version                                             DATE: 24-May-23          TIME: 22:59:53  
 **********************************************************************************************************************************

 SHA1:             9e8077add272b0f3cad6f7df79ec5211205f459d
 **********************************************************************************************************************************

 THRESHOLDS:

 ZERO    =  1.00D-12  ONEINT  =  1.00D-16  TWOINT  =  1.00D-16  PREFAC  =  1.00D-14  LOCALI  =  1.00D-09  EORDER  =  1.00D-04
 ENERGY  =  1.00D-12  ETEST   =  0.00D+00  EDENS   =  0.00D+00  THRDEDEF=  1.00D-06  GRADIENT=  1.00D-02  STEP    =  1.00D-03
 ORBITAL =  1.00D-10  CIVEC   =  1.00D-05  COEFF   =  1.00D-04  PRINTCI =  5.00D-02  PUNCHCI =  9.90D+01  OPTGRAD =  1.00D-06
 OPTENERG=  1.00D-06  OPTSTEP =  3.00D-04  THRGRAD =  1.00D-10  COMPRESS=  1.00D-13  VARMIN  =  1.00D-07  VARMAX  =  1.00D-03
 THRDOUB =  0.00D+00  THRDIV  =  1.00D-05  THRRED  =  1.00D-07  THRPSP  =  1.00D+00  THRDC   =  1.00D-10  THRCS   =  1.00D-10
 THRNRM  =  1.00D-08  THREQ   =  0.00D+00  THRDE   =  1.00D+00  THRREF  =  1.00D-05  SPARFAC =  1.00D+00  THRDLP  =  1.00D-07
 THRDIA  =  1.00D-10  THRDLS  =  1.00D-07  THRGPS  =  0.00D+00  THRKEX  =  0.00D+00  THRDIS  =  2.00D-01  THRVAR  =  1.00D-10
 THRLOC  =  1.00D-06  THRGAP  =  1.00D-06  THRLOCT = -1.00D+00  THRGAPT = -1.00D+00  THRORB  =  1.00D-06  THRMLTP =  0.00D+00
 THRCPQCI=  1.00D-10  KEXTA   =  0.00D+00  THRCOARS=  0.00D+00  SYMTOL  =  1.00D-06  GRADTOL =  1.00D-06  THROVL  =  1.00D-08
 THRORTH =  1.00D-08  GRID    =  1.00D-06  GRIDMAX =  1.00D-03  DTMAX   =  0.00D+00

 SETTING GEOMTYP        =    XYZ
 ZUNIT=BOHR
 

 Variable memory set to 1000000000 words,  buffer space   230000 words

 SETTING BASIS          =    AVDZ


 Recomputing integrals since basis changed


 Using spherical harmonics

 Library entry C      S aug-cc-pVDZ          selected for orbital group  1
 Library entry C      P aug-cc-pVDZ          selected for orbital group  1
 Library entry C      D aug-cc-pVDZ          selected for orbital group  1
 Library entry O      S aug-cc-pVDZ          selected for orbital group  2
 Library entry O      P aug-cc-pVDZ          selected for orbital group  2
 Library entry O      D aug-cc-pVDZ          selected for orbital group  2
 Library entry N      S aug-cc-pVDZ          selected for orbital group  3
 Library entry N      P aug-cc-pVDZ          selected for orbital group  3
 Library entry N      D aug-cc-pVDZ          selected for orbital group  3
 Library entry H      S aug-cc-pVDZ          selected for orbital group  4
 Library entry H      P aug-cc-pVDZ          selected for orbital group  4

1PROGRAM * SEWARD (Integral evaluation for generally contracted gaussian basis sets)     Author: Roland Lindh, 1990

 Geometry written to block  1 of record 700


 Point group  C1  



 ATOMIC COORDINATES

 NR  ATOM    CHARGE       X              Y              Z

   1  C       6.00   -3.825796475    0.086342000    0.001790691
   2  O       8.00   -2.730214261    2.138950961   -0.003643347
   3  N       7.00   -2.681361298   -2.179439932    0.000763244
   4  H       1.00   -3.739087743   -3.756047755   -0.001715054
   5  H       1.00   -0.750682027   -2.305073323   -0.000916310
   6  H       1.00   -5.902306318   -0.018434646    0.005663467
   7  C       6.00    3.825801852   -0.086340721   -0.001240685
   8  O       8.00    2.730215812   -2.138953898   -0.003505908
   9  N       7.00    2.681364896    2.179440297   -0.003058721
  10  H       1.00    3.739083068    3.756047380    0.002038133
  11  H       1.00    0.750684612    2.305071696   -0.003417003
  12  H       1.00    5.902297882    0.018437941    0.007241493

 Bond lengths in Bohr (Angstrom)

 1-2  2.326700123  1-3  2.538405147  1-6  2.079155183  3-4  1.898547761  3-5  1.934763297
     ( 1.231236677)     ( 1.343266151)     ( 1.100241537)     ( 1.004668205)     ( 1.023832642)

  7- 8  2.326700402   7- 9  2.538405577   7-12  2.079155183   9-10  1.898547761   9-11  1.934763483
       ( 1.231236825)       ( 1.343266379)       ( 1.100241537)       ( 1.004668206)       ( 1.023832740)

 Bond angles

  1-3-4  119.34472558   1-3-5  120.52123012   2-1-3  125.11058955   2-1-6  120.97983849

  3- 1- 6  113.90953092   4- 3- 5  120.13394088   7- 9-10  119.34461997   7- 9-11  120.52120612

  8- 7- 9  125.11061126   8- 7-12  120.97977308   9- 7-12  113.90946550  10- 9-11  120.13383528

 NUCLEAR CHARGE:                   48
 NUMBER OF PRIMITIVE AOS:         288
 NUMBER OF SYMMETRY AOS:          276
 NUMBER OF CONTRACTIONS:          192   ( 192A   )
 NUMBER OF CORE ORBITALS:           6   (   6A   )
 NUMBER OF VALENCE ORBITALS:       30   (  30A   )


 NUCLEAR REPULSION ENERGY  230.50400189


 Eigenvalues of metric

         1 0.232E-03 0.270E-03 0.524E-03 0.529E-03 0.565E-03 0.702E-03 0.713E-03 0.715E-03


 Contracted 2-electron integrals neglected if value below      1.0D-16
 AO integral compression algorithm  1   Integral accuracy      1.0D-16

     1280.573 MB (compressed) written to integral file ( 83.3%)

     Node minimum: 1280.573 MB, node maximum: 1280.573 MB


 NUMBER OF SORTED TWO-ELECTRON INTEGRALS:  171652656.     BUFFER LENGTH:  32768
 NUMBER OF SEGMENTS:  11  SEGMENT LENGTH:   15999503      RECORD LENGTH: 524288

 Memory used in sort:      16.56 MW

 SORT1 READ   192171061. AND WROTE   169360867. INTEGRALS IN    491 RECORDS. CPU TIME:     2.00 SEC, REAL TIME:     3.25 SEC
 SORT2 READ   169360867. AND WROTE   171652656. INTEGRALS IN   4885 RECORDS. CPU TIME:     1.40 SEC, REAL TIME:     1.98 SEC

 FILE SIZES:   FILE 1:  1165.4 MBYTE,  FILE 4:  2059.4 MBYTE,   TOTAL:   3224.8 MBYTE

 OPERATOR DM      FOR CENTER  0  COORDINATES:    0.000000    0.000000    0.000000


 **********************************************************************************************************************************
 DATASETS  * FILE   NREC   LENGTH (MB)   RECORD NAMES
              1      19     1165.81       500      610      700      900      950      970     1000      129      960     1100   
                                          VAR    BASINP    GEOM    SYMINP    ZMAT    AOBASIS   BASIS     P2S    ABASIS      S 
                                         1400     1410     1200     1210     1080     1600     1650     1300     1700   
                                           T        V       H0       H01     AOSYM     SMH    MOLCAS    ERIS     OPER   

 PROGRAMS   *        TOTAL       INT
 CPU TIMES  *        10.47     10.43
 REAL TIME  *        13.12 SEC
 DISK USED  *         4.51 GB      
 GA USED    *         0.00 MB       (max)       0.00 MB       (current)
 **********************************************************************************************************************************

1PROGRAM * RHF-SCF (CLOSED SHELL)       Authors: W. Meyer, H.-J. Werner


 NUMBER OF ELECTRONS:      24+   24-    SPACE SYMMETRY=1    SPIN SYMMETRY: Singlet 
 CONVERGENCE THRESHOLDS:    1.00E-10 (Density)    1.00E-13 (Energy)
 MAX. NUMBER OF ITERATIONS:      200
 INTERPOLATION TYPE:            DIIS
 INTERPOLATION STEPS:              2 (START)      1 (STEP)
 LEVEL SHIFTS:                  0.00 (CLOSED)  0.00 (OPEN) 



 Orbital guess generated from atomic densities. Full valence occupancy:   36

 Molecular orbital dump at record        2100.2

 ITERATION    DDIFF          GRAD             ENERGY        2-EL.EN.            DIPOLE MOMENTS         DIIS
    1      0.000D+00      0.000D+00      -337.80607049    704.691889   -0.00000    0.00000    0.00679    0
    2      0.000D+00      0.563D-02      -337.88349852    699.080091   -0.00001   -0.00000    0.00312    1
    3      0.107D-01      0.410D-02      -337.94124091    701.818246   -0.00000    0.00000    0.00477    2
    4      0.434D-02      0.542D-03      -337.94345180    701.722769   -0.00000    0.00000    0.00479    3
    5      0.103D-02      0.187D-03      -337.94371984    701.655945   -0.00000    0.00000    0.00477    4
    6      0.353D-03      0.613D-04      -337.94378106    701.681477   -0.00000    0.00000    0.00478    5
    7      0.156D-03      0.271D-04      -337.94379206    701.672633   -0.00000    0.00000    0.00478    6
    8      0.741D-04      0.806D-05      -337.94379301    701.678153   -0.00000    0.00000    0.00477    7
    9      0.234D-04      0.243D-05      -337.94379308    701.675681   -0.00000    0.00000    0.00477    8
   10      0.610D-05      0.844D-06      -337.94379309    701.676231   -0.00000    0.00000    0.00477    7
   11      0.255D-05      0.203D-06      -337.94379309    701.676157   -0.00000    0.00000    0.00477    8
   12      0.589D-06      0.306D-07      -337.94379309    701.676163   -0.00000    0.00000    0.00477    7
   13      0.862D-07      0.717D-08      -337.94379309    701.676164   -0.00000    0.00000    0.00477    7
   14      0.220D-07      0.130D-08      -337.94379309    701.676164   -0.00000    0.00000    0.00477    6
   15      0.339D-08      0.497D-09      -337.94379309    701.676164   -0.00000    0.00000    0.00477    6
   16      0.101D-08      0.201D-09      -337.94379309    701.676164   -0.00000    0.00000    0.00477    7
   17      0.366D-09      0.525D-10      -337.94379309    701.676164   -0.00000    0.00000    0.00477    7
   18      0.115D-09      0.203D-10      -337.94379309    701.676164   -0.00000    0.00000    0.00477    7
   19      0.403D-10      0.766D-11      -337.94379309    701.676164   -0.00000    0.00000    0.00477    8
   20      0.189D-10      0.270D-11      -337.94379309    701.676164   -0.00000    0.00000    0.00477    8
   21      0.683D-11      0.918D-12      -337.94379309    701.676164   -0.00000    0.00000    0.00477    8
   22      0.564D-11      0.381D-12      -337.94379309    701.676164   -0.00000    0.00000    0.00477    8
   23      0.438D-11      0.173D-12      -337.94379309    701.676164   -0.00000    0.00000    0.00477    9
   24      0.314D-11      0.136D-12      -337.94379309    701.676164   -0.00000    0.00000    0.00477    9
   25      0.221D-11      0.106D-12      -337.94379309    701.676164   -0.00000    0.00000    0.00477    9
   26      0.155D-11      0.846D-13      -337.94379309    701.676164   -0.00000    0.00000    0.00477    9
   27      0.934D-12      0.929D-13      -337.94379309    701.676164   -0.00000    0.00000    0.00477    0

 Final occupancy:  24

 !RHF STATE 1.1 Energy               -337.943793093714
 Nuclear energy                       230.50400189
 One-electron energy                 -919.28587719
 Two-electron energy                  350.83808221
 Virial quotient                       -1.00173045
 !RHF STATE 1.1 Dipole moment          -0.00000405     0.00000141     0.00477458
 Dipole moment /Debye                  -0.00001029     0.00000359     0.01213497

 Orbital energies:

         1.1          2.1          3.1          4.1          5.1          6.1          7.1          8.1          9.1         10.1
    -20.541144   -20.541144   -15.588948   -15.588947   -11.367715   -11.367714    -1.389330    -1.384602    -1.218526    -1.212329

        11.1         12.1         13.1         14.1         15.1         16.1         17.1         18.1         19.1         20.1
     -0.860900    -0.835713    -0.749936    -0.740931    -0.705917    -0.645100    -0.619299    -0.593722    -0.573718    -0.565660

        21.1         22.1         23.1         24.1         25.1         26.1
     -0.454438    -0.429030    -0.420340    -0.409755     0.033384     0.036357


 **********************************************************************************************************************************
 DATASETS  * FILE   NREC   LENGTH (MB)   RECORD NAMES
              1      19     1165.81       500      610      700      900      950      970     1000      129      960     1100   
                                          VAR    BASINP    GEOM    SYMINP    ZMAT    AOBASIS   BASIS     P2S    ABASIS      S 
                                         1400     1410     1200     1210     1080     1600     1650     1300     1700   
                                           T        V       H0       H01     AOSYM     SMH    MOLCAS    ERIS     OPER   

              2       3        1.21       700     1000     2100   
                                         GEOM     BASIS     RHF  

 PROGRAMS   *        TOTAL       RHF       INT
 CPU TIMES  *        50.94     40.47     10.43
 REAL TIME  *        57.02 SEC
 DISK USED  *         4.51 GB      
 GA USED    *         0.00 MB       (max)       0.00 MB       (current)
 **********************************************************************************************************************************


1PROGRAM * CCSD (Closed-shell coupled cluster)     Authors: C. Hampel, H.-J. Werner, 1991, M. Deegan, P.J. Knowles, 1992


 Convergence thresholds:  THRVAR = 1.00D-08  THRDEN = 1.00D-12

 CCSD(T)     terms to be evaluated (factor= 1.000)


 Number of core orbitals:           6 (   6 )
 Number of closed-shell orbitals:  18 (  18 )
 Number of external orbitals:     168 ( 168 )

 Molecular orbitals read from record     2100.2  Type=RHF/CANONICAL (state 1.1)

 Number of N-1 electron functions:              18
 Number of N-2 electron functions:             171
 Number of singly external CSFs:              3024
 Number of doubly external CSFs:           4573800
 Total number of CSFs:                     4576825

 Length of J-op  integral file:               0.00 MB
 Length of K-op  integral file:               2.58 MB
 Length of 3-ext integral record:             0.00 MB

 Memory could be reduced to 108.88 Mwords without degradation in triples

 Integral transformation finished. Total CPU:   9.95 sec, npass=  1  Memory used:  78.69 MW

 Reference energy:                   -337.94379309

 MP2 singlet pair energy:              -0.62275605
 MP2 triplet pair energy:              -0.40616841
 MP2 correlation energy:               -1.02892446
 MP2 total energy:                   -338.97271755

 SCS-MP2 correlation energy:           -1.00003427   (PS=  1.200000  PT=  0.333333)
 SCS-MP2 total energy:               -338.94382736

 ITER.      SQ.NORM     CORR.ENERGY   TOTAL ENERGY   ENERGY CHANGE        DEN1      VAR(S)    VAR(P)  DIIS     TIME
   1      1.31936103    -1.05744616  -339.00123925    -0.02852170     0.00279212  0.10D-01  0.60D-02  1  1    35.51
   2      1.34487535    -1.05932957  -339.00312266    -0.00188341    -0.02595794  0.22D-03  0.11D-02  2  2    61.32
   3      1.35751906    -1.06022261  -339.00401571    -0.00089304    -0.00556720  0.22D-03  0.52D-04  3  3    87.15
   4      1.36273319    -1.05995823  -339.00375132     0.00026439    -0.00169506  0.22D-04  0.96D-05  4  4   112.98
   5      1.36488269    -1.05990083  -339.00369393     0.00005739    -0.00044954  0.27D-05  0.12D-05  5  5   138.81
   6      1.36540431    -1.05987218  -339.00366527     0.00002865    -0.00004974  0.27D-06  0.19D-06  6  6   164.62
   7      1.36553170    -1.05985987  -339.00365296     0.00001232    -0.00000197  0.35D-07  0.23D-07  6  1   190.49
   8      1.36556894    -1.05985867  -339.00365177     0.00000119    -0.00000699  0.75D-08  0.33D-08  6  2   216.33
   9      1.36557045    -1.05985884  -339.00365194    -0.00000017     0.00000266  0.13D-08  0.49D-09  6  3   242.19
  10      1.36557521    -1.05985830  -339.00365139     0.00000054    -0.00000109  0.32D-09  0.68D-10  6  4   268.02
  11      1.36557497    -1.05985855  -339.00365165    -0.00000025     0.00000046  0.58D-10  0.13D-10  6  5   293.89
  12      1.36557497    -1.05985853  -339.00365162     0.00000003     0.00000002  0.44D-11  0.35D-11  6  6   319.74
  13      1.36557469    -1.05985857  -339.00365166    -0.00000004     0.00000012  0.11D-11  0.38D-12  6  1   345.59
  14      1.36557459    -1.05985858  -339.00365167    -0.00000001     0.00000004  0.88D-13  0.73D-13  6  2   371.43
  15      1.36557457    -1.05985858  -339.00365167     0.00000000     0.00000001  0.22D-13  0.12D-13  6  3   397.27
  16      1.36557457    -1.05985858  -339.00365167    -0.00000000     0.00000000  0.49D-14  0.21D-14  6  4   423.08
  17      1.36557457    -1.05985858  -339.00365167     0.00000000    -0.00000000  0.92D-15  0.43D-15  6  5   448.92
  18      1.36557457    -1.05985858  -339.00365167     0.00000000    -0.00000000  0.30D-15  0.83D-16  6  6   474.73
  19      1.36557457    -1.05985858  -339.00365167    -0.00000000    -0.00000000  0.63D-16  0.22D-16  6  1   500.57
  20      1.36557457    -1.05985858  -339.00365167     0.00000000    -0.00000000  0.18D-16  0.62D-17  6  2   526.44
  21      1.36557457    -1.05985858  -339.00365167    -0.00000000     0.00000000  0.45D-17  0.16D-17  6  3   552.26
  22      1.36557457    -1.05985858  -339.00365167    -0.00000000     0.00000000  0.11D-17  0.39D-18  6  4   578.09
  23      1.36557457    -1.05985858  -339.00365167     0.00000000     0.00000000  0.27D-18  0.10D-18  6  5   603.93
  24      1.36557457    -1.05985858  -339.00365167    -0.00000000     0.00000000  0.60D-19  0.26D-19  6  6   629.80
  25      1.36557457    -1.05985858  -339.00365167     0.00000000    -0.00000000  0.16D-19  0.57D-20  6  1   655.67
  26      1.36557457    -1.05985858  -339.00365167     0.00000000    -0.00000000  0.38D-20  0.16D-20  6  4   681.53

 Norm of t1 vector:      0.14831477      S-energy:     0.00000000      T1 diagnostic:  0.01747906
                                                                       D1 diagnostic:  0.05907858


 Total CPU time for triples:    496.07 sec


 RESULTS
 =======

  Reference energy                   -337.943793093714
  CCSD singlet pair energy             -0.699684887006
  CCSD triplet pair energy             -0.360173691395
  CCSD correlation energy              -1.059858578401

  Triples (T) contribution             -0.039945198577
  Total correlation energy             -1.099803776978

  CCSD total energy                  -339.003651672116
  CCSD[T] energy                     -339.046820588650
  CCSD-T energy                      -339.042473458348
 !CCSD(T) total energy               -339.043596870693

 Timing summary (sec):

 STEP                 CPU(USER)    SYS     CPU(TOT)    WALL
 Transformation         10.24      0.62     10.86     10.87
 CCSD iterations       671.30      9.95    681.25    681.42
 Triples               496.07      8.01    504.08    504.14

 Program statistics:

 Available memory in ccsd:               999998604
 Min. memory needed in ccsd:              11370604
 Max. memory used in ccsd:                15561652
 Max. memory used in cckext:              13129806 (26 integral passes)



 **********************************************************************************************************************************
 DATASETS  * FILE   NREC   LENGTH (MB)   RECORD NAMES
              1      20     1585.87       500      610      700      900      950      970     1000      129      960     1100   
                                          VAR    BASINP    GEOM    SYMINP    ZMAT    AOBASIS   BASIS     P2S    ABASIS      S 
                                         1400     1410     1200     1210     1080     1600     1650     1300     1700     1380   
                                           T        V       H0       H01     AOSYM     SMH    MOLCAS    ERIS     OPER     JKOP   

              2       3        1.21       700     1000     2100   
                                         GEOM     BASIS     RHF  

 PROGRAMS   *        TOTAL   CCSD(T)       RHF       INT
 CPU TIMES  *      1228.56   1177.62     40.47     10.43
 REAL TIME  *      1253.54 SEC
 DISK USED  *         4.51 GB      
 GA USED    *         0.00 MB       (max)       0.00 MB       (current)
 **********************************************************************************************************************************

        CCSD(T)         RHF-SCF 
   -339.04359687   -337.94379309
 **********************************************************************************************************************************
 Variable memory released
