
 Primary working directories    : /tmp/1011018.517.gen4.q
 Secondary working directories  : /tmp/1011018.517.gen4.q
 Wavefunction directory         : /home/vulcan/mel64643/wfu/
 Main file repository           : /tmp/1011018.517.gen4.q/

 ARCHNAME  : Linux/x86_64
 FC        : /opt/intel/compilers_and_libraries_2016.1.150/linux/bin/intel64/ifort
 FCVERSION : 16.0.1
 BLASLIB   : -mkl
 id        : ccgc

 Nodes     nprocs
 n021         1
 ga_uses_ma=false, calling ma_init with nominal heap.
 GA-space will be limited to   8.0 MW (determined by -G option)

 Using customized tuning parameters: mindgm=10; mindgv=16; mindgc=4; mindgr=1; noblas=0; mincuda=1000; minvec=7
 default implementation of scratch files=df  

 ***,Optimization of ethene_ethyne
 memory,1000,m
 gthresh,energy=1.0d-12,orbital=1.0d-10,oneint=1.0d-16,twoint=1.0d-16,optgrad=1.0d-6,compress=1.0d-13
 geomtyp=xyz
 
 
 
 bohr
 geometry = {
  C   -0.0014715423   -1.2649867533   -3.9685847633
  C   -0.0014255150    1.2647666464   -3.9751124530
  H    1.7464006552   -2.3334245886   -3.9634585330
  H   -1.7492602804   -2.3334208111   -3.9866429234
  H   -1.7492803924    2.3332116001   -3.9835749172
  H    1.7463901567    2.3332078226   -3.9603904631
  C    0.0026642952    0.0001993255    5.4004215563
  C    0.0016600824    0.0001237856    3.1120294019
  H    0.0007756760    0.0000572579    1.0966511251
  H    0.0035468645    0.0002657150    7.4116134206
  X    2.0000000000    0.0000000000    5.4004221540
  X    0.0000000000    2.0000000000    5.4004221540
  X    2.0000000000    0.0000000000    3.1120297780
  X    0.0000000000    2.0000000000    3.1120297780
 }
 
 basis=aug-cc-pvdz, H=cc-pvdz
 {rhf;maxit,200}
 {mp2}

 Variables initialized (661), CPU time= 0.00 sec
 Commands  initialized (458), CPU time= 0.00 sec, 486 directives.
 Default parameters read. Elapsed time= 0.06 sec

 Checking input...
 Passed
1


                                         ***  PROGRAM SYSTEM MOLPRO  ***
                         Copyright, University College Cardiff Consultants Limited, 2008

                                    Version 2010.1 linked May 16 2016 07:17:05


 **********************************************************************************************************************************
 LABEL *   Optimization of ethene_ethyne                                                 
 Linux-4.4.3/n021(x86_64) 64 bit mpp version                                             DATE: 25-Feb-24          TIME: 03:35:07  
 **********************************************************************************************************************************

 SHA1:             9e8077add272b0f3cad6f7df79ec5211205f459d
 **********************************************************************************************************************************

 THRESHOLDS:

 ZERO    =  1.00D-12  ONEINT  =  1.00D-16  TWOINT  =  1.00D-16  PREFAC  =  1.00D-14  LOCALI  =  1.00D-09  EORDER  =  1.00D-04
 ENERGY  =  1.00D-12  ETEST   =  0.00D+00  EDENS   =  0.00D+00  THRDEDEF=  1.00D-06  GRADIENT=  1.00D-02  STEP    =  1.00D-03
 ORBITAL =  1.00D-10  CIVEC   =  1.00D-05  COEFF   =  1.00D-04  PRINTCI =  5.00D-02  PUNCHCI =  9.90D+01  OPTGRAD =  1.00D-06
 OPTENERG=  1.00D-06  OPTSTEP =  3.00D-04  THRGRAD =  1.00D-10  COMPRESS=  1.00D-13  VARMIN  =  1.00D-07  VARMAX  =  1.00D-03
 THRDOUB =  0.00D+00  THRDIV  =  1.00D-05  THRRED  =  1.00D-07  THRPSP  =  1.00D+00  THRDC   =  1.00D-10  THRCS   =  1.00D-10
 THRNRM  =  1.00D-08  THREQ   =  0.00D+00  THRDE   =  1.00D+00  THRREF  =  1.00D-05  SPARFAC =  1.00D+00  THRDLP  =  1.00D-07
 THRDIA  =  1.00D-10  THRDLS  =  1.00D-07  THRGPS  =  0.00D+00  THRKEX  =  0.00D+00  THRDIS  =  2.00D-01  THRVAR  =  1.00D-10
 THRLOC  =  1.00D-06  THRGAP  =  1.00D-06  THRLOCT = -1.00D+00  THRGAPT = -1.00D+00  THRORB  =  1.00D-06  THRMLTP =  0.00D+00
 THRCPQCI=  1.00D-10  KEXTA   =  0.00D+00  THRCOARS=  0.00D+00  SYMTOL  =  1.00D-06  GRADTOL =  1.00D-06  THROVL  =  1.00D-08
 THRORTH =  1.00D-08  GRID    =  1.00D-06  GRIDMAX =  1.00D-03  DTMAX   =  0.00D+00

 SETTING GEOMTYP        =    XYZ
 ZUNIT=BOHR
 

 Variable memory set to 1000000000 words,  buffer space   230000 words

 SETTING BASIS          =    AUG-CC-PVDZ,H=CC-PVDZ


 Recomputing integrals since basis changed


 Using spherical harmonics

 Library entry C      S aug-cc-pVDZ          selected for orbital group  1
 Library entry C      P aug-cc-pVDZ          selected for orbital group  1
 Library entry C      D aug-cc-pVDZ          selected for orbital group  1
 Library entry H      S cc-pVDZ              selected for orbital group  2
 Library entry H      P cc-pVDZ              selected for orbital group  2

1PROGRAM * SEWARD (Integral evaluation for generally contracted gaussian basis sets)     Author: Roland Lindh, 1990

 Geometry written to block  1 of record 700


 Point group  C1  



 ATOMIC COORDINATES

 NR  ATOM    CHARGE       X              Y              Z

   1  C       6.00   -0.001471542   -1.264986753   -3.968584763
   2  C       6.00   -0.001425515    1.264766646   -3.975112453
   3  H       1.00    1.746400655   -2.333424589   -3.963458533
   4  H       1.00   -1.749260280   -2.333420811   -3.986642923
   5  H       1.00   -1.749280392    2.333211600   -3.983574917
   6  H       1.00    1.746390157    2.333207823   -3.960390463
   7  C       6.00    0.002664295    0.000199325    5.400421556
   8  C       6.00    0.001660082    0.000123786    3.112029402
   9  H       1.00    0.000775676    0.000057258    1.096651125
  10  H       1.00    0.003546865    0.000265715    7.411613421

 Bond lengths in Bohr (Angstrom)

 1-2  2.529761822  1-3  2.048570942  1-4  2.048570942  2-5  2.048570942  2-6  2.048570942
     ( 1.338692300)     ( 1.084057054)     ( 1.084057054)     ( 1.084057054)     ( 1.084057054)

  7- 8  2.288392376   7-10  2.011192059   8- 9  2.015378472
       ( 1.210965091)       ( 1.064277001)       ( 1.066492355)

 Bond angles

  1-2-5  121.43625561   1-2-6  121.43625560   2-1-3  121.43574007   2-1-4  121.43574005

  3- 1- 4  117.12591002   5- 2- 6  117.12642556   7- 8- 9  180.00000000   8- 7-10  180.00000000

 NUCLEAR CHARGE:                   30
 NUMBER OF PRIMITIVE AOS:         190
 NUMBER OF SYMMETRY AOS:          182
 NUMBER OF CONTRACTIONS:          122   ( 122A   )
 NUMBER OF CORE ORBITALS:           4   (   4A   )
 NUMBER OF VALENCE ORBITALS:       22   (  22A   )


 NUCLEAR REPULSION ENERGY   85.49452947


 Eigenvalues of metric

         1 0.820E-04 0.172E-03 0.227E-03 0.269E-03 0.292E-02 0.483E-02 0.498E-02 0.575E-02


 Contracted 2-electron integrals neglected if value below      1.0D-16
 AO integral compression algorithm  1   Integral accuracy      1.0D-16

     210.502 MB (compressed) written to integral file ( 80.3%)

     Node minimum: 210.502 MB, node maximum: 210.502 MB


 NUMBER OF SORTED TWO-ELECTRON INTEGRALS:   28151256.     BUFFER LENGTH:  32768
 NUMBER OF SEGMENTS:   2  SEGMENT LENGTH:   15997996      RECORD LENGTH: 524288

 Memory used in sort:      16.56 MW

 SORT1 READ    32800823. AND WROTE    27311606. INTEGRALS IN     80 RECORDS. CPU TIME:     0.34 SEC, REAL TIME:     0.52 SEC
 SORT2 READ    27311606. AND WROTE    28151256. INTEGRALS IN    803 RECORDS. CPU TIME:     0.28 SEC, REAL TIME:     0.42 SEC

 FILE SIZES:   FILE 1:   184.8 MBYTE,  FILE 4:   335.6 MBYTE,   TOTAL:    520.4 MBYTE

 OPERATOR DM      FOR CENTER  0  COORDINATES:    0.000000    0.000000    0.000000


 **********************************************************************************************************************************
 DATASETS  * FILE   NREC   LENGTH (MB)   RECORD NAMES
              1      19      184.96       500      610      700      900      950      970     1000      129      960     1100   
                                          VAR    BASINP    GEOM    SYMINP    ZMAT    AOBASIS   BASIS     P2S    ABASIS      S 
                                         1400     1410     1200     1210     1080     1600     1650     1300     1700   
                                           T        V       H0       H01     AOSYM     SMH    MOLCAS    ERIS     OPER   

 PROGRAMS   *        TOTAL       INT
 CPU TIMES  *         2.33      2.26
 REAL TIME  *         2.93 SEC
 DISK USED  *       731.78 MB      
 GA USED    *         0.00 MB       (max)       0.00 MB       (current)
 **********************************************************************************************************************************

1PROGRAM * RHF-SCF (CLOSED SHELL)       Authors: W. Meyer, H.-J. Werner


 NUMBER OF ELECTRONS:      15+   15-    SPACE SYMMETRY=1    SPIN SYMMETRY: Singlet 
 CONVERGENCE THRESHOLDS:    1.00E-10 (Density)    1.00E-13 (Energy)
 MAX. NUMBER OF ITERATIONS:      200
 INTERPOLATION TYPE:            DIIS
 INTERPOLATION STEPS:              2 (START)      1 (STEP)
 LEVEL SHIFTS:                  0.00 (CLOSED)  0.00 (OPEN) 



 Orbital guess generated from atomic densities. Full valence occupancy:   26

 Molecular orbital dump at record        2100.2

 ITERATION    DDIFF          GRAD             ENERGY        2-EL.EN.            DIPOLE MOMENTS         DIIS
    1      0.000D+00      0.000D+00      -154.83514752    273.381474   -0.00002    0.00006   -0.05893    0
    2      0.000D+00      0.346D-02      -154.86717456    271.032635   -0.00021    0.00014   -0.14635    1
    3      0.840D-02      0.108D-02      -154.87010698    271.929682   -0.00022    0.00009   -0.12239    2
    4      0.210D-02      0.311D-03      -154.87049728    271.718086   -0.00025    0.00015   -0.14222    3
    5      0.868D-03      0.644D-04      -154.87050955    271.734974   -0.00026    0.00014   -0.13497    4
    6      0.155D-03      0.290D-04      -154.87051162    271.735476   -0.00026    0.00015   -0.14002    5
    7      0.494D-04      0.635D-05      -154.87051176    271.734905   -0.00026    0.00015   -0.13973    6
    8      0.153D-04      0.146D-05      -154.87051177    271.734816   -0.00026    0.00015   -0.13994    7
    9      0.391D-05      0.356D-06      -154.87051177    271.734854   -0.00026    0.00016   -0.13998    7
   10      0.120D-05      0.519D-07      -154.87051177    271.734852   -0.00026    0.00016   -0.13999    7
   11      0.214D-06      0.131D-07      -154.87051177    271.734855   -0.00026    0.00016   -0.13999    6
   12      0.436D-07      0.605D-08      -154.87051177    271.734854   -0.00026    0.00016   -0.13999    6
   13      0.153D-07      0.357D-08      -154.87051177    271.734854   -0.00026    0.00016   -0.13999    7
   14      0.132D-07      0.158D-08      -154.87051177    271.734854   -0.00026    0.00016   -0.13999    7
   15      0.691D-08      0.576D-09      -154.87051177    271.734854   -0.00026    0.00016   -0.13999    8
   16      0.249D-08      0.185D-09      -154.87051177    271.734854   -0.00026    0.00016   -0.13999    8
   17      0.456D-09      0.742D-10      -154.87051177    271.734854   -0.00026    0.00016   -0.13999    8
   18      0.176D-09      0.301D-10      -154.87051177    271.734854   -0.00026    0.00016   -0.13999    9
   19      0.894D-10      0.713D-11      -154.87051177    271.734854   -0.00026    0.00016   -0.13999    9
   20      0.235D-10      0.179D-11      -154.87051177    271.734854   -0.00026    0.00016   -0.13999    9
   21      0.852D-11      0.463D-12      -154.87051177    271.734854   -0.00026    0.00016   -0.13999    8
   22      0.467D-11      0.148D-12      -154.87051177    271.734854   -0.00026    0.00016   -0.13999    8
   23      0.253D-11      0.634D-13      -154.87051177    271.734854   -0.00026    0.00016   -0.13999    8
   24      0.208D-11      0.549D-13      -154.87051177    271.734854   -0.00026    0.00016   -0.13999    0

 Final occupancy:  15

 !RHF STATE 1.1 Energy               -154.870511770776
 Nuclear energy                        85.49452947
 One-electron energy                 -376.23246832
 Two-electron energy                  135.86742708
 Virial quotient                       -1.00220605
 !RHF STATE 1.1 Dipole moment          -0.00026082     0.00015693    -0.13999144
 Dipole moment /Debye                  -0.00066290     0.00039886    -0.35579945

 Orbital energies:

         1.1          2.1          3.1          4.1          5.1          6.1          7.1          8.1          9.1         10.1
    -11.250392   -11.248777   -11.248304   -11.244662    -1.044543    -1.024293    -0.802733    -0.760433    -0.671742    -0.651425

        11.1         12.1         13.1         14.1         15.1         16.1         17.1
     -0.595069    -0.515847    -0.402054    -0.402051    -0.386483     0.065093     0.065135


 **********************************************************************************************************************************
 DATASETS  * FILE   NREC   LENGTH (MB)   RECORD NAMES
              1      19      184.96       500      610      700      900      950      970     1000      129      960     1100   
                                          VAR    BASINP    GEOM    SYMINP    ZMAT    AOBASIS   BASIS     P2S    ABASIS      S 
                                         1400     1410     1200     1210     1080     1600     1650     1300     1700   
                                           T        V       H0       H01     AOSYM     SMH    MOLCAS    ERIS     OPER   

              2       3        0.79       700     1000     2100   
                                         GEOM     BASIS     RHF  

 PROGRAMS   *        TOTAL       RHF       INT
 CPU TIMES  *         8.04      5.71      2.26
 REAL TIME  *         9.23 SEC
 DISK USED  *       731.78 MB      
 GA USED    *         0.00 MB       (max)       0.00 MB       (current)
 **********************************************************************************************************************************


1PROGRAM * MP2 (Closed-shell)     Authors: C. Hampel, H.-J. Werner, 1991, M. Deegan, P.J. Knowles, 1992


 Convergence thresholds:  THRVAR = 1.00D-08  THRDEN = 1.00D-12

 Number of core orbitals:           4 (   4 )
 Number of closed-shell orbitals:  11 (  11 )
 Number of external orbitals:     107 ( 107 )

 Molecular orbitals read from record     2100.2  Type=RHF/CANONICAL (state 1.1)

 Number of N-1 electron functions:              11
 Number of N-2 electron functions:              66
 Number of singly external CSFs:              1177
 Number of doubly external CSFs:            693253
 Total number of CSFs:                      694431

 Length of J-op  integral file:               0.00 MB
 Length of K-op  integral file:               1.06 MB

 Integral transformation finished. Total CPU:   0.53 sec, npass=  1  Memory used:   1.98 MW

 Memory needed for MP2:                      0.07 MW

 SCS-MP2 correlation energy:           -0.548021391024   (PS=  1.200000  PT=  0.333333)
 SCS-MP2 total energy:               -155.418533161799


  Reference energy                   -154.870511770776
  MP2 singlet pair energy              -0.357829678028
  MP2 triplet pair energy              -0.190648570805
  MP2 correlation energy               -0.548478248834

 !MP2 total energy                   -155.418990019609


 **********************************************************************************************************************************
 DATASETS  * FILE   NREC   LENGTH (MB)   RECORD NAMES
              1      20      197.09       500      610      700      900      950      970     1000      129      960     1100   
                                          VAR    BASINP    GEOM    SYMINP    ZMAT    AOBASIS   BASIS     P2S    ABASIS      S 
                                         1400     1410     1200     1210     1080     1600     1650     1300     1700     1380   
                                           T        V       H0       H01     AOSYM     SMH    MOLCAS    ERIS     OPER     JKOP   

              2       3        0.79       700     1000     2100   
                                         GEOM     BASIS     RHF  

 PROGRAMS   *        TOTAL       MP2       RHF       INT
 CPU TIMES  *         8.65      0.60      5.71      2.26
 REAL TIME  *         9.90 SEC
 DISK USED  *       731.78 MB      
 GA USED    *         0.00 MB       (max)       0.00 MB       (current)
 **********************************************************************************************************************************

        MP2             RHF-SCF 
   -155.41899002   -154.87051177
 **********************************************************************************************************************************
 Variable memory released
