
 Primary working directories    : /tmp/1051568.110.gen6.q
 Secondary working directories  : /tmp/1051568.110.gen6.q
 Wavefunction directory         : /home/vulcan/mel64643/wfu/
 Main file repository           : /tmp/1051568.110.gen6.q/

 ARCHNAME  : Linux/x86_64
 FC        : /opt/intel/compilers_and_libraries_2016.1.150/linux/bin/intel64/ifort
 FCVERSION : 16.0.1
 BLASLIB   : -mkl
 id        : ccgc

 Nodes     nprocs
 n079         1
 ga_uses_ma=false, calling ma_init with nominal heap.
 GA-space will be limited to   8.0 MW (determined by -G option)

 Using customized tuning parameters: mindgm=10; mindgv=16; mindgc=4; mindgr=1; noblas=0; mincuda=1000; minvec=7
 default implementation of scratch files=df  

 ***,Optimization of min3
 memory,1000,m
 gthresh,energy=1.0d-12,orbital=1.0d-10,oneint=1.0d-16,twoint=1.0d-16,optgrad=1.0d-6,compress=1.0d-13
 geomtyp=xyz
 
 
 
  bohr
  geometry = {
  C    0.0000000000   -0.0000000000   -2.6751110581
  C    0.0000000000    2.2637049900   -1.3251387481
  C    0.0000000000   -2.2637049900   -1.3251387481
  C    0.0000000000    2.1576972600    1.3121611219
  C    0.0000000000   -2.1576972600    1.3121611219
  N    0.0000000000    0.0000000000    2.6448311719
  H    0.0000000000   -0.0000000000   -4.7215760781
  H    0.0000000000    4.0671844832   -2.2896027035
  H    0.0000000000   -4.0671844832   -2.2896027035
  H    0.0000000000    3.8871685100    2.4122014119
  H    0.0000000000   -3.8871685100    2.4122014119
 }
 
 basis=cc-pvdz
 {rhf;maxit,200}
 {mp4}

 Variables initialized (661), CPU time= 0.01 sec
 Commands  initialized (458), CPU time= 0.00 sec, 486 directives.
 Default parameters read. Elapsed time= 0.04 sec

 Checking input...
 Passed
1


                                         ***  PROGRAM SYSTEM MOLPRO  ***
                         Copyright, University College Cardiff Consultants Limited, 2008

                                    Version 2010.1 linked May 16 2016 07:17:05


 **********************************************************************************************************************************
 LABEL *   Optimization of min3                                                          
 Linux-4.4.3/n079(x86_64) 64 bit mpp version                                             DATE: 14-Apr-24          TIME: 15:22:51  
 **********************************************************************************************************************************

 SHA1:             9e8077add272b0f3cad6f7df79ec5211205f459d
 **********************************************************************************************************************************

 THRESHOLDS:

 ZERO    =  1.00D-12  ONEINT  =  1.00D-16  TWOINT  =  1.00D-16  PREFAC  =  1.00D-14  LOCALI  =  1.00D-09  EORDER  =  1.00D-04
 ENERGY  =  1.00D-12  ETEST   =  0.00D+00  EDENS   =  0.00D+00  THRDEDEF=  1.00D-06  GRADIENT=  1.00D-02  STEP    =  1.00D-03
 ORBITAL =  1.00D-10  CIVEC   =  1.00D-05  COEFF   =  1.00D-04  PRINTCI =  5.00D-02  PUNCHCI =  9.90D+01  OPTGRAD =  1.00D-06
 OPTENERG=  1.00D-06  OPTSTEP =  3.00D-04  THRGRAD =  1.00D-10  COMPRESS=  1.00D-13  VARMIN  =  1.00D-07  VARMAX  =  1.00D-03
 THRDOUB =  0.00D+00  THRDIV  =  1.00D-05  THRRED  =  1.00D-07  THRPSP  =  1.00D+00  THRDC   =  1.00D-10  THRCS   =  1.00D-10
 THRNRM  =  1.00D-08  THREQ   =  0.00D+00  THRDE   =  1.00D+00  THRREF  =  1.00D-05  SPARFAC =  1.00D+00  THRDLP  =  1.00D-07
 THRDIA  =  1.00D-10  THRDLS  =  1.00D-07  THRGPS  =  0.00D+00  THRKEX  =  0.00D+00  THRDIS  =  2.00D-01  THRVAR  =  1.00D-10
 THRLOC  =  1.00D-06  THRGAP  =  1.00D-06  THRLOCT = -1.00D+00  THRGAPT = -1.00D+00  THRORB  =  1.00D-06  THRMLTP =  0.00D+00
 THRCPQCI=  1.00D-10  KEXTA   =  0.00D+00  THRCOARS=  0.00D+00  SYMTOL  =  1.00D-06  GRADTOL =  1.00D-06  THROVL  =  1.00D-08
 THRORTH =  1.00D-08  GRID    =  1.00D-06  GRIDMAX =  1.00D-03  DTMAX   =  0.00D+00

 SETTING GEOMTYP        =    XYZ
 ZUNIT=BOHR
 

 Variable memory set to 1000000000 words,  buffer space   230000 words

 SETTING BASIS          =    CC-PVDZ


 Recomputing integrals since basis changed


 Using spherical harmonics

 Library entry C      S cc-pVDZ              selected for orbital group  1
 Library entry C      P cc-pVDZ              selected for orbital group  1
 Library entry C      D cc-pVDZ              selected for orbital group  1
 Library entry N      S cc-pVDZ              selected for orbital group  2
 Library entry N      P cc-pVDZ              selected for orbital group  2
 Library entry N      D cc-pVDZ              selected for orbital group  2
 Library entry H      S cc-pVDZ              selected for orbital group  3
 Library entry H      P cc-pVDZ              selected for orbital group  3

1PROGRAM * SEWARD (Integral evaluation for generally contracted gaussian basis sets)     Author: Roland Lindh, 1990

 Geometry written to block  1 of record 700


 Point group  C2v 



 ATOMIC COORDINATES

 NR  ATOM    CHARGE       X              Y              Z

   1  C       6.00    0.000000000    0.000000000   -2.675111058
   2  C       6.00    0.000000000    2.263704990   -1.325138748
   3  C       6.00    0.000000000   -2.263704990   -1.325138748
   4  C       6.00    0.000000000    2.157697260    1.312161122
   5  C       6.00    0.000000000   -2.157697260    1.312161122
   6  N       7.00    0.000000000    0.000000000    2.644831172
   7  H       1.00    0.000000000    0.000000000   -4.721576078
   8  H       1.00    0.000000000    4.067184483   -2.289602703
   9  H       1.00    0.000000000   -4.067184483   -2.289602703
  10  H       1.00    0.000000000    3.887168510    2.412201412
  11  H       1.00    0.000000000   -3.887168510    2.412201412

 Bond lengths in Bohr (Angstrom)

 1-2  2.635675534  1-3  2.635675534  1-7  2.046465020  2-4  2.639429530  2-8  2.045172121
     ( 1.394739423)     ( 1.394739423)     ( 1.082942648)     ( 1.396725952)     ( 1.082258475)

  3- 5  2.639429530   3- 9  2.045172121   4- 6  2.536073131   4-10  2.049673009   5- 6  2.536073131
       ( 1.396725952)       ( 1.082258475)       ( 1.342032102)       ( 1.084640242)       ( 1.342032102)

  5-11  2.049673009
       ( 1.084640242)

 Bond angles

  1-2-4  118.50816168   1-2-8  121.05308152   1-3-5  118.50816168   1-3-9  121.05308152

  2- 1- 3  118.38008366   2- 1- 7  120.80995817   2- 4- 6  124.00273954   2- 4-10  120.15684180

  3- 1- 7  120.80995817   3- 5- 6  124.00273954   3- 5-11  120.15684180   4- 2- 8  120.43875680

  4- 6- 5  116.59811390   5- 3- 9  120.43875680   6- 4-10  115.84041866   6- 5-11  115.84041866

 NUCLEAR CHARGE:                   42
 NUMBER OF PRIMITIVE AOS:         197
 NUMBER OF SYMMETRY AOS:          191
 NUMBER OF CONTRACTIONS:          109   (  45A1  +  17B1  +  35B2  +  12A2  )
 NUMBER OF CORE ORBITALS:           6   (   4A1  +   0B1  +   2B2  +   0A2  )
 NUMBER OF VALENCE ORBITALS:       29   (  13A1  +   4B1  +  10B2  +   2A2  )


 NUCLEAR REPULSION ENERGY  205.77976940


 Eigenvalues of metric

         1 0.714E-03 0.379E-02 0.585E-02 0.153E-01 0.188E-01 0.245E-01 0.257E-01 0.287E-01
         2 0.543E-01 0.113E+00 0.174E+00 0.209E+00 0.297E+00 0.399E+00 0.423E+00 0.428E+00
         3 0.239E-02 0.279E-02 0.730E-02 0.152E-01 0.233E-01 0.305E-01 0.336E-01 0.519E-01
         4 0.103E+00 0.170E+00 0.299E+00 0.371E+00 0.440E+00 0.516E+00 0.538E+00 0.141E+01


 Contracted 2-electron integrals neglected if value below      1.0D-16
 AO integral compression algorithm  1   Integral accuracy      1.0D-16

     45.613 MB (compressed) written to integral file (100.0%)

     Node minimum: 45.613 MB, node maximum: 45.613 MB


 NUMBER OF SORTED TWO-ELECTRON INTEGRALS:    4859454.     BUFFER LENGTH:  32768
 NUMBER OF SEGMENTS:   1  SEGMENT LENGTH:    4859454      RECORD LENGTH: 524288

 Memory used in sort:       5.42 MW

 SORT1 READ     5684777. AND WROTE     4830487. INTEGRALS IN     14 RECORDS. CPU TIME:     0.10 SEC, REAL TIME:     0.13 SEC
 SORT2 READ     4830487. AND WROTE     4859454. INTEGRALS IN    174 RECORDS. CPU TIME:     0.07 SEC, REAL TIME:     0.09 SEC

 FILE SIZES:   FILE 1:    41.8 MBYTE,  FILE 4:    58.8 MBYTE,   TOTAL:    100.6 MBYTE

 OPERATOR DM      FOR CENTER  0  COORDINATES:    0.000000    0.000000    0.000000


 **********************************************************************************************************************************
 DATASETS  * FILE   NREC   LENGTH (MB)   RECORD NAMES
              1      19       41.87       500      610      700      900      950      970     1000      129      960     1100   
                                          VAR    BASINP    GEOM    SYMINP    ZMAT    AOBASIS   BASIS     P2S    ABASIS      S 
                                         1400     1410     1200     1210     1080     1600     1650     1300     1700   
                                           T        V       H0       H01     AOSYM     SMH    MOLCAS    ERIS     OPER   

 PROGRAMS   *        TOTAL       INT
 CPU TIMES  *         1.25      1.21
 REAL TIME  *         1.51 SEC
 DISK USED  *       147.02 MB      
 GA USED    *         0.00 MB       (max)       0.00 MB       (current)
 **********************************************************************************************************************************

1PROGRAM * RHF-SCF (CLOSED SHELL)       Authors: W. Meyer, H.-J. Werner


 NUMBER OF ELECTRONS:      21+   21-
 CONVERGENCE THRESHOLDS:    1.00E-10 (Density)    1.00E-13 (Energy)
 MAX. NUMBER OF ITERATIONS:      200
 INTERPOLATION TYPE:            DIIS
 INTERPOLATION STEPS:              2 (START)      1 (STEP)
 LEVEL SHIFTS:                  0.00 (CLOSED)  0.00 (OPEN) 



 Orbital guess generated from atomic densities. Full valence occupancy:   17   4  12   2

 Molecular orbital dump at record        2100.2

 Initial alpha occupancy:  11   2   7   1
 Initial beta  occupancy:  11   2   7   1
 Wave function symmetry:    1

 ITERATION    DDIFF          GRAD             ENERGY        2-EL.EN.            DIPOLE MOMENTS         DIIS
    1      0.000D+00      0.000D+00      -246.66537420    576.443457    0.00000    0.00000   -1.02528    0
    2      0.000D+00      0.815D-02      -246.70996809    575.031947    0.00000    0.00000   -0.90308    1
    3      0.167D-01      0.255D-02      -246.71386305    575.839678    0.00000    0.00000   -0.85435    2
    4      0.532D-02      0.107D-02      -246.71450166    575.604552    0.00000    0.00000   -0.88394    3
    5      0.203D-02      0.150D-03      -246.71451824    575.592116    0.00000    0.00000   -0.87598    4
    6      0.329D-03      0.500D-04      -246.71452049    575.601322    0.00000    0.00000   -0.87682    5
    7      0.107D-03      0.180D-04      -246.71452094    575.599575    0.00000    0.00000   -0.87648    6
    8      0.482D-04      0.707D-05      -246.71452107    575.599140    0.00000    0.00000   -0.87607    7
    9      0.287D-04      0.282D-05      -246.71452109    575.599507    0.00000    0.00000   -0.87622    7
   10      0.108D-04      0.147D-05      -246.71452109    575.599335    0.00000    0.00000   -0.87610    8
   11      0.365D-05      0.495D-06      -246.71452109    575.599281    0.00000    0.00000   -0.87613    8
   12      0.195D-05      0.185D-06      -246.71452109    575.599334    0.00000    0.00000   -0.87612    8
   13      0.532D-06      0.505D-07      -246.71452109    575.599320    0.00000    0.00000   -0.87612    9
   14      0.159D-06      0.941D-08      -246.71452109    575.599321    0.00000    0.00000   -0.87612    9
   15      0.305D-07      0.323D-08      -246.71452109    575.599321    0.00000    0.00000   -0.87612    8
   16      0.117D-07      0.894D-09      -246.71452109    575.599321    0.00000    0.00000   -0.87612    8
   17      0.224D-08      0.271D-09      -246.71452109    575.599321    0.00000    0.00000   -0.87612    7
   18      0.625D-09      0.691D-10      -246.71452109    575.599321    0.00000    0.00000   -0.87612    7
   19      0.253D-09      0.203D-10      -246.71452109    575.599321    0.00000    0.00000   -0.87612    7
   20      0.554D-10      0.563D-11      -246.71452109    575.599321    0.00000    0.00000   -0.87612    7
   21      0.181D-10      0.343D-11      -246.71452109    575.599321    0.00000    0.00000   -0.87612    7
   22      0.782D-11      0.719D-12      -246.71452109    575.599321    0.00000    0.00000   -0.87612    7
   23      0.293D-11      0.250D-12      -246.71452109    575.599321    0.00000    0.00000   -0.87612    0

 Final occupancy:  11   2   7   1

 !RHF STATE 1.1 Energy               -246.714521091251
 Nuclear energy                       205.77976940
 One-electron energy                 -740.29395078
 Two-electron energy                  287.79966030
 Virial quotient                       -1.00137352
 !RHF STATE 1.1 Dipole moment           0.00000000     0.00000000    -0.87612087
 Dipole moment /Debye                   0.00000000     0.00000000    -2.22673129

 Orbital energies:

         1.1          2.1          3.1          4.1          5.1          6.1          7.1          8.1          9.1         10.1
    -15.567646   -11.278386   -11.263955   -11.246178    -1.253921    -1.087415    -0.856193    -0.717446    -0.652072    -0.573399

        11.1         12.1         13.1
     -0.415780     0.182846     0.228904

         1.2          2.2          3.2          4.2
     -0.536200    -0.379676     0.115639     0.338815

         1.3          2.3          3.3          4.3          5.3          6.3          7.3          8.3          9.3
    -11.278401   -11.246225    -1.030981    -0.853183    -0.655578    -0.594571    -0.515737     0.214531     0.252675

         1.4          2.4          3.4
     -0.344372     0.130291     0.719200


 **********************************************************************************************************************************
 DATASETS  * FILE   NREC   LENGTH (MB)   RECORD NAMES
              1      19       41.87       500      610      700      900      950      970     1000      129      960     1100   
                                          VAR    BASINP    GEOM    SYMINP    ZMAT    AOBASIS   BASIS     P2S    ABASIS      S 
                                         1400     1410     1200     1210     1080     1600     1650     1300     1700   
                                           T        V       H0       H01     AOSYM     SMH    MOLCAS    ERIS     OPER   

              2       3        0.52       700     1000     2100   
                                         GEOM     BASIS     RHF  

 PROGRAMS   *        TOTAL       RHF       INT
 CPU TIMES  *         1.58      0.33      1.21
 REAL TIME  *         1.92 SEC
 DISK USED  *       147.02 MB      
 GA USED    *         0.00 MB       (max)       0.00 MB       (current)
 **********************************************************************************************************************************


1PROGRAM * MP4 (Closed-shell)     Authors: C. Hampel, H.-J. Werner, 1991, M. Deegan, P.J. Knowles, 1992


 Convergence thresholds:  THRVAR = 1.00D-08  THRDEN = 1.00D-12

 MP4(T)     terms to be evaluated (factor= 0.000)


 Number of core orbitals:           6 (   4   0   2   0 )
 Number of closed-shell orbitals:  15 (   7   2   5   1 )
 Number of external orbitals:      88 (  34  15  28  11 )

 Molecular orbitals read from record     2100.2  Type=RHF/CANONICAL (state 1.1)

 Number of N-1 electron functions:              15
 Number of N-2 electron functions:             120
 Number of singly external CSFs:               419
 Number of doubly external CSFs:            231695
 Total number of CSFs:                      232115

 Length of J-op  integral file:               0.00 MB
 Length of K-op  integral file:               0.28 MB

 Memory could be reduced to 3.95 Mwords without degradation in triples

 Integral transformation finished. Total CPU:   0.09 sec, npass=  1  Memory used:   1.54 MW

 Reference energy:                   -246.71452109

                        CORR.ENERGY   TOTAL ENERGY   ENERGY CHANGE
 MP2:                   -0.80902345  -247.52354454    -0.80902345

 SCS-MP2 correlation energy:           -0.78378371   (PS=  1.200000  PT=  0.333333)
 SCS-MP2 total energy:               -247.49830480

 MP3(D):                -0.83543730  -247.54995839    -0.02641385
 MP4(DQ):               -0.83411674  -247.54863783     0.00132056
 MP4(SDQ):              -0.84099499  -247.55551608    -0.00687825

 Norm of t1 vector:      0.07228551      S-energy:    -0.00687825      T1 diagnostic:  0.00933202


 Total CPU time for triples:      2.71 sec


 RESULTS
 =======

  Reference energy                   -246.714521091251
  MP4(SDQ) singlet pair energy         -0.538041744848
  MP4(SDQ) triplet pair energy         -0.296074992823
  MP4(SDQ) correlation energy          -0.840994988223

  Triples (T) contribution             -0.040823634730
  Total correlation energy             -0.881818622953

  MP4(SDTQ) total energy             -247.555516079474
 !MP4(SDTQ(T) total energy           -247.596339714203

 Timing summary (sec):

 STEP                 CPU(USER)    SYS     CPU(TOT)    WALL
 Transformation          0.10      0.02      0.12      0.13
 CCSD iterations         0.28      0.01      0.29      0.29
 Triples                 2.71      0.08      2.79      2.79

 Program statistics:

 Available memory in ccsd:               999999000
 Min. memory needed in ccsd:                653198
 Max. memory used in ccsd:                  857076
 Max. memory used in cckext:                910149 ( 1 integral passes)



 **********************************************************************************************************************************
 DATASETS  * FILE   NREC   LENGTH (MB)   RECORD NAMES
              1      20       57.61       500      610      700      900      950      970     1000      129      960     1100   
                                          VAR    BASINP    GEOM    SYMINP    ZMAT    AOBASIS   BASIS     P2S    ABASIS      S 
                                         1400     1410     1200     1210     1080     1600     1650     1300     1700     1380   
                                           T        V       H0       H01     AOSYM     SMH    MOLCAS    ERIS     OPER     JKOP   

              2       3        0.52       700     1000     2100   
                                         GEOM     BASIS     RHF  

 PROGRAMS   *        TOTAL       MP4       RHF       INT
 CPU TIMES  *         4.69      3.10      0.33      1.21
 REAL TIME  *         5.17 SEC
 DISK USED  *       147.02 MB      
 GA USED    *         0.00 MB       (max)       0.00 MB       (current)
 **********************************************************************************************************************************

        MP4             RHF-SCF 
   -247.59633971   -246.71452109
 **********************************************************************************************************************************
 Variable memory released
