
    -----------------------------------------------------------------------
          Psi4: An Open-Source Ab Initio Electronic Structure Package
                               Psi4 1.4a2.dev629 

                         Git: Rev {master} 2938fc2 dirty


    D. G. A. Smith, L. A. Burns, A. C. Simmonett, R. M. Parrish,
    M. C. Schieber, R. Galvelis, P. Kraus, H. Kruse, R. Di Remigio,
    A. Alenaizan, A. M. James, S. Lehtola, J. P. Misiewicz, M. Scheurer,
    R. A. Shaw, J. B. Schriber, Y. Xie, Z. L. Glick, D. A. Sirianni,
    J. S. O'Brien, J. M. Waldrop, A. Kumar, E. G. Hohenstein,
    B. P. Pritchard, B. R. Brooks, H. F. Schaefer III, A. Yu. Sokolov,
    K. Patkowski, A. E. DePrince III, U. Bozkaya, R. A. King,
    F. A. Evangelista, J. M. Turney, T. D. Crawford, C. D. Sherrill,
    J. Chem. Phys. 152(18) 184108 (2020). https://doi.org/10.1063/5.0006002

                            Additional Code Authors
    E. T. Seidl, C. L. Janssen, E. F. Valeev, M. L. Leininger,
    J. F. Gonthier, R. M. Richard, H. R. McAlexander, M. Saitow, X. Wang,
    P. Verma, and M. H. Lechner

             Previous Authors, Complete List of Code Contributors,
                       and Citations for Specific Modules
    https://github.com/psi4/psi4/blob/master/codemeta.json
    https://github.com/psi4/psi4/graphs/contributors
    http://psicode.org/psi4manual/master/introduction.html#citing-psifour

    -----------------------------------------------------------------------


    Psi4 started on: Wednesday, 17 November 2021 12:00PM

    Process ID: 6558
    Host:       n046
    PSIDATADIR: /opt/psi/4/master/share/psi4
    Memory:     500.0 MiB
    Threads:    4
    
  ==> Input File <==

--------------------------------------------------------------------------
import os
memory 14 GB 
 
molecule {
 C   -2.3742934701    0.3378447045    0.0000000000
 C    0.1988541192   -0.8562230593    0.0000000000
 C    2.3729671447    0.4354273784    0.0000000000
 H    0.2624107511   -2.9143536901    0.0000000000
 H    4.1804675434   -0.5201791685   -0.0000000000
 H    2.3909650516    2.4863835886   -0.0000000000
 H   -2.2429590883    2.4006172770    0.0000000000
 H   -3.4574677007   -0.2397289303   -1.6616955994
 H   -3.4574677007   -0.2397289303    1.6616955994
units bohr
}

basis {

assign 6-31g_2dfp_

[ 6-31g_2dfp_ ]

spherical

!----------------------------------------------------------------------
! Basis Set Exchange
! Version v0.8.13
! https://www.basissetexchange.org
!----------------------------------------------------------------------
!   Basis set: 6-31G(2df,p)
! Description: 6-31G(2df,p)
!        Role: orbital
!     Version: 0  (Data from the original Basis Set Exchange)
!----------------------------------------------------------------------


****
H     0
S    3   1.00
     18.7311370              0.03349460
      2.8253937              0.23472695
      0.6401217              0.81375733
S    1   1.00
      0.1612778              1.00000000
P    1   1.00
      1.5000000              1.0000000
P    1   1.00
      0.3750000              1.0000000
****
B     0
S    6   1.00
   2068.8823000              0.0018663
    310.6495700              0.0142515
     70.6830330              0.0695516
     19.8610800              0.2325729
      6.2993048              0.4670787
      2.1270270              0.3634314
SP   3   1.00
      4.7279710             -0.1303938              0.0745976
      1.1903377             -0.1307889              0.3078467
      0.3594117              1.1309444              0.7434568
SP   1   1.00
      0.1267512              1.0000000              1.0000000
D    1   1.00
      0.8020000              1.0000000
D    1   1.00
      0.2005000              1.0000000
F    1   1.00
      0.5000000              1.0000000
****
C     0
S    6   1.00
   3047.5249000              0.0018347
    457.3695100              0.0140373
    103.9486900              0.0688426
     29.2101550              0.2321844
      9.2866630              0.4679413
      3.1639270              0.3623120
SP   3   1.00
      7.8682724             -0.1193324              0.0689991
      1.8812885             -0.1608542              0.3164240
      0.5442493              1.1434564              0.7443083
SP   1   1.00
      0.1687144              1.0000000              1.0000000
D    1   1.00
      1.2520000              1.0000000
D    1   1.00
      0.3130000              1.0000000
F    1   1.00
      0.8000000              1.0000000
****
N     0
S    6   1.00
   4173.5110000              0.0018348
    627.4579000              0.0139950
    142.9021000              0.0685870
     40.2343300              0.2322410
     12.8202100              0.4690700
      4.3904370              0.3604550
SP   3   1.00
     11.6263580             -0.1149610              0.0675800
      2.7162800             -0.1691180              0.3239070
      0.7722180              1.1458520              0.7408950
SP   1   1.00
      0.2120313              1.0000000              1.0000000
D    1   1.00
      1.8260000              1.0000000
D    1   1.00
      0.4565000              1.0000000
F    1   1.00
      1.0000000              1.0000000
****
O     0
S    6   1.00
   5484.6717000              0.0018311
    825.2349500              0.0139501
    188.0469600              0.0684451
     52.9645000              0.2327143
     16.8975700              0.4701930
      5.7996353              0.3585209
SP   3   1.00
     15.5396160             -0.1107775              0.0708743
      3.5999336             -0.1480263              0.3397528
      1.0137618              1.1307670              0.7271586
SP   1   1.00
      0.2700058              1.0000000              1.0000000
D    1   1.00
      2.5840000              1.0000000
D    1   1.00
      0.6460000              1.0000000
F    1   1.00
      1.4000000              1.0000000
****
F     0
S    6   1.00
   7001.7130900              0.0018196169
   1051.3660900              0.0139160796
    239.2856900              0.0684053245
     67.3974453              0.233185760
     21.5199573              0.471267439
      7.40310130             0.356618546
SP   3   1.00
     20.8479528             -0.108506975            0.0716287243
      4.80830834            -0.146451658            0.3459121030
      1.34406986             1.128688580            0.7224699570
SP   1   1.00
      0.358151393            1.0000000              1.0000000
D    1   1.00
      3.5000000              1.0000000
D    1   1.00
      0.8750000              1.0000000
F    1   1.00
      1.8500000              1.0000000
****
Al     0
S    6   1.00
  13983.1000000              0.00194267
   2098.7500000              0.0148599
    477.7050000              0.0728494
    134.3600000              0.2468300
     42.8709000              0.4872580
     14.5189000              0.3234960
SP   6   1.00
    239.6680000             -0.00292619             0.00460285
     57.4419000             -0.0374080              0.0331990
     18.2859000             -0.1144870              0.1362820
      6.5991400              0.1156350              0.3304760
      2.4904900              0.6125950              0.4491460
      0.9445400              0.3937990              0.2657040
SP   3   1.00
      1.2779000             -0.2276060             -0.0175130
      0.3975900              0.00144583             0.2445330
      0.1600950              1.0927900              0.8049340
SP   1   1.00
      0.0556577              1.0000000              1.0000000
D    1   1.00
      0.6500000              1.0000000
D    1   1.00
      0.1625000              1.0000000
F    1   1.00
      0.2500000              1.0000000
****
Si     0
S    6   1.00
  16115.9000000              0.00195948
   2425.5800000              0.01492880
    553.8670000              0.07284780
    156.3400000              0.24613000
     50.0683000              0.48591400
     17.0178000              0.32500200
SP   6   1.00
    292.7180000             -0.00278094             0.00443826
     69.8731000             -0.03571460             0.03266790
     22.3363000             -0.11498500             0.13472100
      8.1503900              0.09356340             0.32867800
      3.1345800              0.60301700             0.44964000
      1.2254300              0.41895900             0.26137200
SP   3   1.00
      1.7273800             -0.24463000            -0.01779510
      0.5729220              0.00431572             0.25353900
      0.2221920              1.09818000             0.80066900
SP   1   1.00
      0.0778369              1.00000000             1.00000000
D    1   1.00
      0.9000000              1.0000000
D    1   1.00
      0.2250000              1.0000000
F    1   1.00
      0.3200000              1.0000000
****
P     0
S    6   1.00
  19413.3000000              0.0018516
   2909.4200000              0.0142062
    661.3640000              0.0699995
    185.7590000              0.2400790
     59.1943000              0.4847620
     20.0310000              0.3352000
SP   6   1.00
    339.4780000             -0.00278217             0.00456462
     81.0101000             -0.0360499              0.03369360
     25.8780000             -0.1166310              0.13975500
      9.4522100              0.0968328              0.33936200
      3.6656600              0.6144180              0.45092100
      1.4674600              0.4037980              0.23858600
SP   3   1.00
      2.1562300             -0.2529230             -0.01776530
      0.7489970              0.0328517              0.27405800
      0.2831450              1.0812500              0.78542100
SP   1   1.00
      0.0998317              1.0000000              1.00000000
D    1   1.00
      1.1000000              1.0000000
D    1   1.00
      0.2750000              1.0000000
F    1   1.00
      0.4500000              1.0000000
****
S     0
S    6   1.00
  21917.1000000              0.0018690
   3301.4900000              0.0142300
    754.1460000              0.0696960
    212.7110000              0.2384870
     67.9896000              0.4833070
     23.0515000              0.3380740
SP   6   1.00
    423.7350000             -0.0023767              0.0040610
    100.7100000             -0.0316930              0.0306810
     32.1599000             -0.1133170              0.1304520
     11.8079000              0.0560900              0.3272050
      4.6311000              0.5922550              0.4528510
      1.8702500              0.4550060              0.2560420
SP   3   1.00
      2.6158400             -0.2503740             -0.0145110
      0.9221670              0.0669570              0.3102630
      0.3412870              1.0545100              0.7544830
SP   1   1.00
      0.1171670              1.0000000              1.0000000
D    1   1.00
      1.3000000              1.0000000
D    1   1.00
      0.3250000              1.0000000
F    1   1.00
      0.5500000              1.0000000
****
Cl     0
S    6   1.00
  25180.1000000              0.0018330
   3780.3500000              0.0140340
    860.4740000              0.0690970
    242.1450000              0.2374520
     77.3349000              0.4830340
     26.2470000              0.3398560
SP   6   1.00
    491.7650000             -0.0022974              0.0039894
    116.9840000             -0.0307140              0.0303180
     37.4153000             -0.1125280              0.1298800
     13.7834000              0.0450160              0.3279510
      5.4521500              0.5893530              0.4535270
      2.2258800              0.4652060              0.2521540
SP   3   1.00
      3.1864900             -0.2518300             -0.0142990
      1.1442700              0.0615890              0.3235720
      0.4203770              1.0601800              0.7435070
SP   1   1.00
      0.1426570              1.0000000              1.0000000
D    1   1.00
      1.5000000              1.0000000
D    1   1.00
      0.3750000              1.0000000
F    1   1.00
      0.7000000              1.0000000
****
}


set {
reference rhf                          
freeze_core true
e_convergence 10                       
d_convergence 10                      
dft_spherical_points 1202
dft_radial_points 99
}

e = energy('b3lyp')

print_out('Grab this energy {0}'.format(e))
--------------------------------------------------------------------------

  Memory set to  13.039 GiB by Python driver.

Scratch directory: /tmp/

*** tstart() called on n046
*** at Wed Nov 17 12:00:03 2021

   => Loading Basis Set <=

    Name: ANONYMOUS16FD7183
    Role: ORBITAL
    Keyword: BASIS
    atoms 1-3 entry C          line    48 inputblock 6-31g_2dfp_ 
    atoms 4-9 entry H          line    15 inputblock 6-31g_2dfp_ 


         ---------------------------------------------------------
                                   SCF
               by Justin Turney, Rob Parrish, Andy Simmonett
                          and Daniel G. A. Smith
                              RKS Reference
                        4 Threads,  13351 MiB Core
         ---------------------------------------------------------

  ==> Geometry <==

    Molecular point group: cs
    Full point group: Cs

    Geometry (in Bohr), charge = 0, multiplicity = 1:

       Center              X                  Y                   Z               Mass       
    ------------   -----------------  -----------------  -----------------  -----------------
         C           -2.374961689953     0.338196400273     0.000000000000    12.000000000000
         C            0.198185899347    -0.855871363527     0.000000000000    12.000000000000
         C            2.372298924847     0.435779074173     0.000000000000    12.000000000000
         H            0.261742531247    -2.914001994327     0.000000000000     1.007825032230
         H            4.179799323547    -0.519827472727     0.000000000000     1.007825032230
         H            2.390296831747     2.486735284373     0.000000000000     1.007825032230
         H           -2.243627308153     2.400968972773     0.000000000000     1.007825032230
         H           -3.458135920553    -0.239377234527    -1.661695599400     1.007825032230
         H           -3.458135920553    -0.239377234527     1.661695599400     1.007825032230

  Running in cs symmetry.

  Rotational constants: A =      1.54378  B =      0.31052  C =      0.27150 [cm^-1]
  Rotational constants: A =  46281.44436  B =   9309.10106  C =   8139.28936 [MHz]
  Nuclear repulsion =   70.658471416217836

  Charge       = 0
  Multiplicity = 1
  Electrons    = 24
  Nalpha       = 12
  Nbeta        = 12

  ==> Algorithm <==

  SCF Algorithm Type is DF.
  DIIS enabled.
  MOM disabled.
  Fractional occupation disabled.
  Guess Type is SAD.
  Energy threshold   = 1.00e-10
  Density threshold  = 1.00e-10
  Integral threshold = 0.00e+00

  ==> Primary Basis <==

  Basis Set: ANONYMOUS16FD7183
    Blend: 6-31G_2DFP_
    Number of shells: 48
    Number of basis function: 126
    Number of Cartesian functions: 141
    Spherical Harmonics?: true
    Max angular momentum: 3

  ==> DFT Potential <==

   => Composite Functional: B3LYP <= 

    B3LYP Hyb-GGA Exchange-Correlation Functional

    P. J. Stephens, F. J. Devlin, C. F. Chabalowski, and M. J. Frisch, J. Phys. Chem. 98, 11623 (1994)

    Deriv               =              1
    GGA                 =           TRUE
    Meta                =          FALSE

    Exchange Hybrid     =           TRUE
    MP2 Hybrid          =          FALSE

   => Exchange Functionals <=

    0.0800   Slater exchange
    0.7200         Becke 88

   => Exact (HF) Exchange <=

    0.2000               HF 

   => Correlation Functionals <=

    0.1900   Vosko, Wilk & Nusair (VWN5_RPA)
    0.8100   Lee, Yang & Parr

   => Molecular Quadrature <=

    Radial Scheme          =       TREUTLER
    Pruning Scheme         =           NONE
    Nuclear Scheme         =       TREUTLER

    BS radius alpha        =              1
    Pruning alpha          =              1
    Radial Points          =             99
    Spherical Points       =           1202
    Total Points           =        1007870
    Total Blocks           =           6796
    Max Points             =            256
    Max Functions          =            126
    Weights Tolerance      =       1.00E-15

   => Loading Basis Set <=

    Name: (ANONYMOUS16FD7183 AUX)
    Role: JKFIT
    Keyword: DF_BASIS_SCF
    atoms 1-3 entry C          line   198 file /opt/psi/4/master/share/psi4/basis/def2-universal-jkfit.gbs 
    atoms 4-9 entry H          line    18 file /opt/psi/4/master/share/psi4/basis/def2-universal-jkfit.gbs 

  ==> Integral Setup <==

  DFHelper Memory: AOs need 0.044 GiB; user supplied 6.644 GiB. Using in-core AOs.

  ==> MemDFJK: Density-Fitted J/K Matrices <==

    J tasked:                   Yes
    K tasked:                   Yes
    wK tasked:                   No
    OpenMP threads:               4
    Memory [MiB]:              6803
    Algorithm:                 Core
    Schwarz Cutoff:           1E-12
    Mask sparsity (%):       0.8314
    Fitting Condition:        1E-10

   => Auxiliary Basis Set <=

  Basis Set: (ANONYMOUS16FD7183 AUX)
    Blend: DEF2-UNIVERSAL-JKFIT
    Number of shells: 111
    Number of basis function: 333
    Number of Cartesian functions: 387
    Spherical Harmonics?: true
    Max angular momentum: 4

  Cached 100.0% of DFT collocation blocks in 3.135 [GiB].

  Minimum eigenvalue in the overlap matrix is 9.5212423201E-04.
  Reciprocal condition number of the overlap matrix is 1.7643200671E-04.
    Using symmetric orthogonalization.

  ==> Pre-Iterations <==

  SCF Guess: Superposition of Atomic Densities via on-the-fly atomic UHF (no occupation information).

   -------------------------
    Irrep   Nso     Nmo    
   -------------------------
     A'        83      83 
     A"        43      43 
   -------------------------
    Total     126     126
   -------------------------

  ==> Iterations <==

                           Total Energy        Delta E     RMS |[F,P]|

   @DF-RKS iter SAD:  -117.28913562540487   -1.17289e+02   0.00000e+00 
   @DF-RKS iter   1:  -117.64774014949725   -3.58605e-01   7.43527e-03 DIIS
   @DF-RKS iter   2:  -117.58787909072799    5.98611e-02   8.13687e-03 DIIS
   @DF-RKS iter   3:  -117.91715649130862   -3.29277e-01   5.61645e-04 DIIS
   @DF-RKS iter   4:  -117.91741050162844   -2.54010e-04   5.08356e-04 DIIS
   @DF-RKS iter   5:  -117.91856416402612   -1.15366e-03   8.76224e-05 DIIS
   @DF-RKS iter   6:  -117.91860094323228   -3.67792e-05   9.51951e-06 DIIS
   @DF-RKS iter   7:  -117.91860134040556   -3.97173e-07   3.43299e-06 DIIS
   @DF-RKS iter   8:  -117.91860138931104   -4.89055e-08   9.19824e-07 DIIS
   @DF-RKS iter   9:  -117.91860139317103   -3.85999e-09   6.74616e-08 DIIS
   @DF-RKS iter  10:  -117.91860139319317   -2.21405e-11   1.16995e-08 DIIS
   @DF-RKS iter  11:  -117.91860139319382   -6.53699e-13   1.81477e-09 DIIS
   @DF-RKS iter  12:  -117.91860139319382    0.00000e+00   3.45323e-10 DIIS
   @DF-RKS iter  13:  -117.91860139319375    7.10543e-14   5.05773e-11 DIIS
  Energy and wave function converged.


  ==> Post-Iterations <==

    Orbital Energies [Eh]
    ---------------------

    Doubly Occupied:                                                      

       1Ap   -10.181770     2Ap   -10.174537     3Ap   -10.166465  
       4Ap    -0.779834     5Ap    -0.679955     6Ap    -0.549344  
       7Ap    -0.461142     8Ap    -0.414699     1App   -0.409720  
       9Ap    -0.366314    10Ap    -0.342476     2App   -0.250602  

    Virtual:                                                              

       3App    0.024062    11Ap     0.099440    12Ap     0.125274  
      13Ap     0.135427     4App    0.162513    14Ap     0.168354  
      15Ap     0.182139    16Ap     0.261608    17Ap     0.342883  
      18Ap     0.421864    19Ap     0.426661    20Ap     0.442545  
       5App    0.448870    21Ap     0.486448     6App    0.488318  
      22Ap     0.514267     7App    0.530464     8App    0.569549  
      23Ap     0.591594    24Ap     0.610164     9App    0.616460  
      25Ap     0.639589    10App    0.659302    26Ap     0.664569  
      27Ap     0.672664    28Ap     0.693492    11App    0.723254  
      29Ap     0.857683    12App    0.858966    30Ap     0.907081  
      31Ap     0.936849    13App    0.945958    14App    1.015270  
      32Ap     1.016848    15App    1.026911    33Ap     1.073447  
      34Ap     1.096822    35Ap     1.147470    16App    1.170039  
      17App    1.198560    36Ap     1.205918    37Ap     1.260165  
      38Ap     1.327755    39Ap     1.347131    18App    1.353002  
      40Ap     1.393098    19App    1.442402    41Ap     1.460085  
      20App    1.497128    42Ap     1.506850    43Ap     1.554676  
      44Ap     1.597340    45Ap     1.687973    46Ap     1.737261  
      47Ap     1.828957    21App    1.947576    48Ap     1.969418  
      49Ap     2.090637    50Ap     2.286779    51Ap     2.424242  
      22App    2.675652    23App    2.740567    52Ap     2.837318  
      24App    2.866726    53Ap     2.886560    54Ap     2.931677  
      25App    2.943546    55Ap     2.984243    26App    2.999208  
      56Ap     3.034926    27App    3.037276    28App    3.129374  
      57Ap     3.148072    58Ap     3.177403    29App    3.179433  
      59Ap     3.217160    30App    3.279084    60Ap     3.296096  
      61Ap     3.370102    31App    3.384433    32App    3.424869  
      62Ap     3.441037    63Ap     3.521081    64Ap     3.585262  
      33App    3.638854    65Ap     3.675162    34App    3.712453  
      66Ap     3.723542    67Ap     3.832298    68Ap     3.951914  
      35App    4.003245    36App    4.028830    69Ap     4.070915  
      37App    4.129402    70Ap     4.148493    71Ap     4.205033  
      38App    4.220369    72Ap     4.245522    39App    4.261010  
      40App    4.370805    41App    4.468279    73Ap     4.474677  
      74Ap     4.498999    75Ap     4.591654    42App    4.610950  
      76Ap     4.637410    77Ap     4.675921    78Ap     4.945811  
      79Ap     4.977605    80Ap     5.131600    81Ap     5.262115  
      43App    5.276981    82Ap     5.419885    83Ap     5.580175  

    Final Occupation by Irrep:
             Ap   App 
    DOCC [    10,    2 ]

  @DF-RKS Final Energy:  -117.91860139319375

   => Energetics <=

    Nuclear Repulsion Energy =             70.6584714162178358
    One-Electron Energy =                -296.8253433321536932
    Two-Electron Energy =                 123.2275585705414898
    DFT Exchange-Correlation Energy =     -14.9792880477993737
    Empirical Dispersion Energy =           0.0000000000000000
    VV10 Nonlocal Energy =                  0.0000000000000000
    Total Energy =                       -117.9186013931937538

Computation Completed


Properties will be evaluated at   0.000000,   0.000000,   0.000000 [a0]

Properties computed using the SCF density matrix

  Nuclear Dipole Moment: [e a0]
     X:    -1.1549      Y:     0.4837      Z:     0.0000

  Electronic Dipole Moment: [e a0]
     X:     1.0188      Y:    -0.5116      Z:     0.0000

  Dipole Moment: [e a0]
     X:    -0.1361      Y:    -0.0278      Z:     0.0000     Total:     0.1389

  Dipole Moment: [D]
     X:    -0.3460      Y:    -0.0707      Z:     0.0000     Total:     0.3531


*** tstop() called on n046 at Wed Nov 17 12:00:19 2021
Module time:
	user time   =      58.67 seconds =       0.98 minutes
	system time =       0.95 seconds =       0.02 minutes
	total time  =         16 seconds =       0.27 minutes
Total time:
	user time   =      58.67 seconds =       0.98 minutes
	system time =       0.95 seconds =       0.02 minutes
	total time  =         16 seconds =       0.27 minutes
Grab this energy -117.91860139319375
    Psi4 stopped on: Wednesday, 17 November 2021 12:00PM
    Psi4 wall time for execution: 0:00:15.44

*** Psi4 exiting successfully. Buy a developer a beer!
