
    -----------------------------------------------------------------------
          Psi4: An Open-Source Ab Initio Electronic Structure Package
                               Psi4 1.4a2.dev629 

                         Git: Rev {master} 2938fc2 dirty


    D. G. A. Smith, L. A. Burns, A. C. Simmonett, R. M. Parrish,
    M. C. Schieber, R. Galvelis, P. Kraus, H. Kruse, R. Di Remigio,
    A. Alenaizan, A. M. James, S. Lehtola, J. P. Misiewicz, M. Scheurer,
    R. A. Shaw, J. B. Schriber, Y. Xie, Z. L. Glick, D. A. Sirianni,
    J. S. O'Brien, J. M. Waldrop, A. Kumar, E. G. Hohenstein,
    B. P. Pritchard, B. R. Brooks, H. F. Schaefer III, A. Yu. Sokolov,
    K. Patkowski, A. E. DePrince III, U. Bozkaya, R. A. King,
    F. A. Evangelista, J. M. Turney, T. D. Crawford, C. D. Sherrill,
    J. Chem. Phys. 152(18) 184108 (2020). https://doi.org/10.1063/5.0006002

                            Additional Code Authors
    E. T. Seidl, C. L. Janssen, E. F. Valeev, M. L. Leininger,
    J. F. Gonthier, R. M. Richard, H. R. McAlexander, M. Saitow, X. Wang,
    P. Verma, and M. H. Lechner

             Previous Authors, Complete List of Code Contributors,
                       and Citations for Specific Modules
    https://github.com/psi4/psi4/blob/master/codemeta.json
    https://github.com/psi4/psi4/graphs/contributors
    http://psicode.org/psi4manual/master/introduction.html#citing-psifour

    -----------------------------------------------------------------------


    Psi4 started on: Wednesday, 17 November 2021 12:08PM

    Process ID: 28924
    Host:       n085
    PSIDATADIR: /opt/psi/4/master/share/psi4
    Memory:     500.0 MiB
    Threads:    4
    
  ==> Input File <==

--------------------------------------------------------------------------
import os
memory 14 GB 
 
molecule {
 C   -2.3792045976    0.3400263234   -0.0014579737
 C    0.2009030690   -0.8559685526    0.0007004271
 C    2.3722768614    0.4336355446   -0.0000103713
 H    0.2761374072   -2.9086147712    0.0025764278
 H    4.1805057027   -0.5235935095   -0.0022866575
 H    2.3877576800    2.4823940848    0.0009695209
 H   -2.2383147160    2.3986057540   -0.0034947231
 H   -3.4616181180   -0.2339743853   -1.6600892886
 H   -3.4649666387   -0.2424513181    1.6630926384
units bohr
}

basis {

assign 6-31g_2dfp_

[ 6-31g_2dfp_ ]

spherical

!----------------------------------------------------------------------
! Basis Set Exchange
! Version v0.8.13
! https://www.basissetexchange.org
!----------------------------------------------------------------------
!   Basis set: 6-31G(2df,p)
! Description: 6-31G(2df,p)
!        Role: orbital
!     Version: 0  (Data from the original Basis Set Exchange)
!----------------------------------------------------------------------


****
H     0
S    3   1.00
     18.7311370              0.03349460
      2.8253937              0.23472695
      0.6401217              0.81375733
S    1   1.00
      0.1612778              1.00000000
P    1   1.00
      1.5000000              1.0000000
P    1   1.00
      0.3750000              1.0000000
****
B     0
S    6   1.00
   2068.8823000              0.0018663
    310.6495700              0.0142515
     70.6830330              0.0695516
     19.8610800              0.2325729
      6.2993048              0.4670787
      2.1270270              0.3634314
SP   3   1.00
      4.7279710             -0.1303938              0.0745976
      1.1903377             -0.1307889              0.3078467
      0.3594117              1.1309444              0.7434568
SP   1   1.00
      0.1267512              1.0000000              1.0000000
D    1   1.00
      0.8020000              1.0000000
D    1   1.00
      0.2005000              1.0000000
F    1   1.00
      0.5000000              1.0000000
****
C     0
S    6   1.00
   3047.5249000              0.0018347
    457.3695100              0.0140373
    103.9486900              0.0688426
     29.2101550              0.2321844
      9.2866630              0.4679413
      3.1639270              0.3623120
SP   3   1.00
      7.8682724             -0.1193324              0.0689991
      1.8812885             -0.1608542              0.3164240
      0.5442493              1.1434564              0.7443083
SP   1   1.00
      0.1687144              1.0000000              1.0000000
D    1   1.00
      1.2520000              1.0000000
D    1   1.00
      0.3130000              1.0000000
F    1   1.00
      0.8000000              1.0000000
****
N     0
S    6   1.00
   4173.5110000              0.0018348
    627.4579000              0.0139950
    142.9021000              0.0685870
     40.2343300              0.2322410
     12.8202100              0.4690700
      4.3904370              0.3604550
SP   3   1.00
     11.6263580             -0.1149610              0.0675800
      2.7162800             -0.1691180              0.3239070
      0.7722180              1.1458520              0.7408950
SP   1   1.00
      0.2120313              1.0000000              1.0000000
D    1   1.00
      1.8260000              1.0000000
D    1   1.00
      0.4565000              1.0000000
F    1   1.00
      1.0000000              1.0000000
****
O     0
S    6   1.00
   5484.6717000              0.0018311
    825.2349500              0.0139501
    188.0469600              0.0684451
     52.9645000              0.2327143
     16.8975700              0.4701930
      5.7996353              0.3585209
SP   3   1.00
     15.5396160             -0.1107775              0.0708743
      3.5999336             -0.1480263              0.3397528
      1.0137618              1.1307670              0.7271586
SP   1   1.00
      0.2700058              1.0000000              1.0000000
D    1   1.00
      2.5840000              1.0000000
D    1   1.00
      0.6460000              1.0000000
F    1   1.00
      1.4000000              1.0000000
****
F     0
S    6   1.00
   7001.7130900              0.0018196169
   1051.3660900              0.0139160796
    239.2856900              0.0684053245
     67.3974453              0.233185760
     21.5199573              0.471267439
      7.40310130             0.356618546
SP   3   1.00
     20.8479528             -0.108506975            0.0716287243
      4.80830834            -0.146451658            0.3459121030
      1.34406986             1.128688580            0.7224699570
SP   1   1.00
      0.358151393            1.0000000              1.0000000
D    1   1.00
      3.5000000              1.0000000
D    1   1.00
      0.8750000              1.0000000
F    1   1.00
      1.8500000              1.0000000
****
Al     0
S    6   1.00
  13983.1000000              0.00194267
   2098.7500000              0.0148599
    477.7050000              0.0728494
    134.3600000              0.2468300
     42.8709000              0.4872580
     14.5189000              0.3234960
SP   6   1.00
    239.6680000             -0.00292619             0.00460285
     57.4419000             -0.0374080              0.0331990
     18.2859000             -0.1144870              0.1362820
      6.5991400              0.1156350              0.3304760
      2.4904900              0.6125950              0.4491460
      0.9445400              0.3937990              0.2657040
SP   3   1.00
      1.2779000             -0.2276060             -0.0175130
      0.3975900              0.00144583             0.2445330
      0.1600950              1.0927900              0.8049340
SP   1   1.00
      0.0556577              1.0000000              1.0000000
D    1   1.00
      0.6500000              1.0000000
D    1   1.00
      0.1625000              1.0000000
F    1   1.00
      0.2500000              1.0000000
****
Si     0
S    6   1.00
  16115.9000000              0.00195948
   2425.5800000              0.01492880
    553.8670000              0.07284780
    156.3400000              0.24613000
     50.0683000              0.48591400
     17.0178000              0.32500200
SP   6   1.00
    292.7180000             -0.00278094             0.00443826
     69.8731000             -0.03571460             0.03266790
     22.3363000             -0.11498500             0.13472100
      8.1503900              0.09356340             0.32867800
      3.1345800              0.60301700             0.44964000
      1.2254300              0.41895900             0.26137200
SP   3   1.00
      1.7273800             -0.24463000            -0.01779510
      0.5729220              0.00431572             0.25353900
      0.2221920              1.09818000             0.80066900
SP   1   1.00
      0.0778369              1.00000000             1.00000000
D    1   1.00
      0.9000000              1.0000000
D    1   1.00
      0.2250000              1.0000000
F    1   1.00
      0.3200000              1.0000000
****
P     0
S    6   1.00
  19413.3000000              0.0018516
   2909.4200000              0.0142062
    661.3640000              0.0699995
    185.7590000              0.2400790
     59.1943000              0.4847620
     20.0310000              0.3352000
SP   6   1.00
    339.4780000             -0.00278217             0.00456462
     81.0101000             -0.0360499              0.03369360
     25.8780000             -0.1166310              0.13975500
      9.4522100              0.0968328              0.33936200
      3.6656600              0.6144180              0.45092100
      1.4674600              0.4037980              0.23858600
SP   3   1.00
      2.1562300             -0.2529230             -0.01776530
      0.7489970              0.0328517              0.27405800
      0.2831450              1.0812500              0.78542100
SP   1   1.00
      0.0998317              1.0000000              1.00000000
D    1   1.00
      1.1000000              1.0000000
D    1   1.00
      0.2750000              1.0000000
F    1   1.00
      0.4500000              1.0000000
****
S     0
S    6   1.00
  21917.1000000              0.0018690
   3301.4900000              0.0142300
    754.1460000              0.0696960
    212.7110000              0.2384870
     67.9896000              0.4833070
     23.0515000              0.3380740
SP   6   1.00
    423.7350000             -0.0023767              0.0040610
    100.7100000             -0.0316930              0.0306810
     32.1599000             -0.1133170              0.1304520
     11.8079000              0.0560900              0.3272050
      4.6311000              0.5922550              0.4528510
      1.8702500              0.4550060              0.2560420
SP   3   1.00
      2.6158400             -0.2503740             -0.0145110
      0.9221670              0.0669570              0.3102630
      0.3412870              1.0545100              0.7544830
SP   1   1.00
      0.1171670              1.0000000              1.0000000
D    1   1.00
      1.3000000              1.0000000
D    1   1.00
      0.3250000              1.0000000
F    1   1.00
      0.5500000              1.0000000
****
Cl     0
S    6   1.00
  25180.1000000              0.0018330
   3780.3500000              0.0140340
    860.4740000              0.0690970
    242.1450000              0.2374520
     77.3349000              0.4830340
     26.2470000              0.3398560
SP   6   1.00
    491.7650000             -0.0022974              0.0039894
    116.9840000             -0.0307140              0.0303180
     37.4153000             -0.1125280              0.1298800
     13.7834000              0.0450160              0.3279510
      5.4521500              0.5893530              0.4535270
      2.2258800              0.4652060              0.2521540
SP   3   1.00
      3.1864900             -0.2518300             -0.0142990
      1.1442700              0.0615890              0.3235720
      0.4203770              1.0601800              0.7435070
SP   1   1.00
      0.1426570              1.0000000              1.0000000
D    1   1.00
      1.5000000              1.0000000
D    1   1.00
      0.3750000              1.0000000
F    1   1.00
      0.7000000              1.0000000
****
}


set {
reference rhf                          
freeze_core true
e_convergence 10                       
d_convergence 10                      
dft_spherical_points 1202
dft_radial_points 99
}

e = energy('b3lyp')

print_out('Grab this energy {0}'.format(e))
--------------------------------------------------------------------------

  Memory set to  13.039 GiB by Python driver.

Scratch directory: /tmp/

*** tstart() called on n085
*** at Wed Nov 17 12:08:02 2021

   => Loading Basis Set <=

    Name: ANONYMOUS86A36E9F
    Role: ORBITAL
    Keyword: BASIS
    atoms 1-3 entry C          line    48 inputblock 6-31g_2dfp_ 
    atoms 4-9 entry H          line    15 inputblock 6-31g_2dfp_ 


         ---------------------------------------------------------
                                   SCF
               by Justin Turney, Rob Parrish, Andy Simmonett
                          and Daniel G. A. Smith
                              RKS Reference
                        4 Threads,  13351 MiB Core
         ---------------------------------------------------------

  ==> Geometry <==

    Molecular point group: c1
    Full point group: C1

    Geometry (in Bohr), charge = 0, multiplicity = 1:

       Center              X                  Y                   Z               Mass       
    ------------   -----------------  -----------------  -----------------  -----------------
         C           -2.378944111022     0.340209584405    -0.001257219831    12.000000000000
         C            0.201163555578    -0.855785291595     0.000901180969    12.000000000000
         C            2.372537347978     0.433818805605     0.000190382569    12.000000000000
         H            0.276397893778    -2.908431510195     0.002777181669     1.007825032230
         H            4.180766189278    -0.523410248495    -0.002085903631     1.007825032230
         H            2.388018166578     2.482577345805     0.001170274769     1.007825032230
         H           -2.238054229422     2.398789015005    -0.003293969231     1.007825032230
         H           -3.461357631422    -0.233791124295    -1.659888534731     1.007825032230
         H           -3.464706152122    -0.242268057095     1.663293392269     1.007825032230

  Running in c1 symmetry.

  Rotational constants: A =      1.54649  B =      0.31003  C =      0.27121 [cm^-1]
  Rotational constants: A =  46362.68836  B =   9294.57974  C =   8130.63681 [MHz]
  Nuclear repulsion =   70.652007313765253

  Charge       = 0
  Multiplicity = 1
  Electrons    = 24
  Nalpha       = 12
  Nbeta        = 12

  ==> Algorithm <==

  SCF Algorithm Type is DF.
  DIIS enabled.
  MOM disabled.
  Fractional occupation disabled.
  Guess Type is SAD.
  Energy threshold   = 1.00e-10
  Density threshold  = 1.00e-10
  Integral threshold = 0.00e+00

  ==> Primary Basis <==

  Basis Set: ANONYMOUS86A36E9F
    Blend: 6-31G_2DFP_
    Number of shells: 48
    Number of basis function: 126
    Number of Cartesian functions: 141
    Spherical Harmonics?: true
    Max angular momentum: 3

  ==> DFT Potential <==

   => Composite Functional: B3LYP <= 

    B3LYP Hyb-GGA Exchange-Correlation Functional

    P. J. Stephens, F. J. Devlin, C. F. Chabalowski, and M. J. Frisch, J. Phys. Chem. 98, 11623 (1994)

    Deriv               =              1
    GGA                 =           TRUE
    Meta                =          FALSE

    Exchange Hybrid     =           TRUE
    MP2 Hybrid          =          FALSE

   => Exchange Functionals <=

    0.0800   Slater exchange
    0.7200         Becke 88

   => Exact (HF) Exchange <=

    0.2000               HF 

   => Correlation Functionals <=

    0.1900   Vosko, Wilk & Nusair (VWN5_RPA)
    0.8100   Lee, Yang & Parr

   => Molecular Quadrature <=

    Radial Scheme          =       TREUTLER
    Pruning Scheme         =           NONE
    Nuclear Scheme         =       TREUTLER

    BS radius alpha        =              1
    Pruning alpha          =              1
    Radial Points          =             99
    Spherical Points       =           1202
    Total Points           =        1007864
    Total Blocks           =           6804
    Max Points             =            256
    Max Functions          =            126
    Weights Tolerance      =       1.00E-15

   => Loading Basis Set <=

    Name: (ANONYMOUS86A36E9F AUX)
    Role: JKFIT
    Keyword: DF_BASIS_SCF
    atoms 1-3 entry C          line   198 file /opt/psi/4/master/share/psi4/basis/def2-universal-jkfit.gbs 
    atoms 4-9 entry H          line    18 file /opt/psi/4/master/share/psi4/basis/def2-universal-jkfit.gbs 

  ==> Integral Setup <==

  DFHelper Memory: AOs need 0.044 GiB; user supplied 6.643 GiB. Using in-core AOs.

  ==> MemDFJK: Density-Fitted J/K Matrices <==

    J tasked:                   Yes
    K tasked:                   Yes
    wK tasked:                   No
    OpenMP threads:               4
    Memory [MiB]:              6802
    Algorithm:                 Core
    Schwarz Cutoff:           1E-12
    Mask sparsity (%):       0.8314
    Fitting Condition:        1E-10

   => Auxiliary Basis Set <=

  Basis Set: (ANONYMOUS86A36E9F AUX)
    Blend: DEF2-UNIVERSAL-JKFIT
    Number of shells: 111
    Number of basis function: 333
    Number of Cartesian functions: 387
    Spherical Harmonics?: true
    Max angular momentum: 4

  Cached 100.0% of DFT collocation blocks in 3.136 [GiB].

  Minimum eigenvalue in the overlap matrix is 9.5250942938E-04.
  Reciprocal condition number of the overlap matrix is 1.7012915235E-04.
    Using symmetric orthogonalization.

  ==> Pre-Iterations <==

  SCF Guess: Superposition of Atomic Densities via on-the-fly atomic UHF (no occupation information).

   -------------------------
    Irrep   Nso     Nmo    
   -------------------------
     A        126     126 
   -------------------------
    Total     126     126
   -------------------------

  ==> Iterations <==

                           Total Energy        Delta E     RMS |[F,P]|

   @DF-RKS iter SAD:  -117.28867886019270   -1.17289e+02   0.00000e+00 
   @DF-RKS iter   1:  -117.64795501053496   -3.59276e-01   5.51440e-03 DIIS
   @DF-RKS iter   2:  -117.58918264104132    5.87724e-02   6.02559e-03 DIIS
   @DF-RKS iter   3:  -117.91717538442595   -3.27993e-01   4.12899e-04 DIIS
   @DF-RKS iter   4:  -117.91743174677428   -2.56362e-04   3.72684e-04 DIIS
   @DF-RKS iter   5:  -117.91855626993592   -1.12452e-03   6.51389e-05 DIIS
   @DF-RKS iter   6:  -117.91859317615776   -3.69062e-05   6.96201e-06 DIIS
   @DF-RKS iter   7:  -117.91859356558001   -3.89422e-07   2.46253e-06 DIIS
   @DF-RKS iter   8:  -117.91859361108777   -4.55078e-08   6.86243e-07 DIIS
   @DF-RKS iter   9:  -117.91859361497670   -3.88893e-09   5.03896e-08 DIIS
   @DF-RKS iter  10:  -117.91859361499920   -2.24958e-11   8.69302e-09 DIIS
   @DF-RKS iter  11:  -117.91859361499982   -6.25278e-13   1.33522e-09 DIIS
   @DF-RKS iter  12:  -117.91859361499988   -5.68434e-14   2.56011e-10 DIIS
   @DF-RKS iter  13:  -117.91859361499998   -9.94760e-14   3.86272e-11 DIIS
  Energy and wave function converged.


  ==> Post-Iterations <==

    Orbital Energies [Eh]
    ---------------------

    Doubly Occupied:                                                      

       1A    -10.181387     2A    -10.174725     3A    -10.166175  
       4A     -0.779686     5A     -0.680096     6A     -0.549440  
       7A     -0.461274     8A     -0.414481     9A     -0.409300  
      10A     -0.366929    11A     -0.342235    12A     -0.250998  

    Virtual:                                                              

      13A      0.024473    14A      0.099484    15A      0.125857  
      16A      0.135313    17A      0.162439    18A      0.168803  
      19A      0.181985    20A      0.261427    21A      0.342729  
      22A      0.421576    23A      0.426348    24A      0.442613  
      25A      0.449198    26A      0.486362    27A      0.488097  
      28A      0.515310    29A      0.530276    30A      0.569340  
      31A      0.592188    32A      0.610319    33A      0.616677  
      34A      0.639502    35A      0.659528    36A      0.664074  
      37A      0.673845    38A      0.693772    39A      0.723977  
      40A      0.858008    41A      0.859055    42A      0.907480  
      43A      0.936424    44A      0.945470    45A      1.014555  
      46A      1.016502    47A      1.026572    48A      1.073743  
      49A      1.098944    50A      1.147587    51A      1.170125  
      52A      1.198223    53A      1.205988    54A      1.259841  
      55A      1.326990    56A      1.346322    57A      1.351997  
      58A      1.392804    59A      1.443527    60A      1.461732  
      61A      1.498124    62A      1.506254    63A      1.555675  
      64A      1.599821    65A      1.688644    66A      1.735994  
      67A      1.831286    68A      1.946722    69A      1.971891  
      70A      2.088174    71A      2.290018    72A      2.421873  
      73A      2.675302    74A      2.740139    75A      2.838526  
      76A      2.867449    77A      2.887874    78A      2.931174  
      79A      2.943613    80A      2.985210    81A      2.999505  
      82A      3.034091    83A      3.037667    84A      3.129215  
      85A      3.147759    86A      3.176945    87A      3.178474  
      88A      3.217187    89A      3.277560    90A      3.296524  
      91A      3.369325    92A      3.385758    93A      3.423443  
      94A      3.440298    95A      3.522926    96A      3.587598  
      97A      3.638487    98A      3.677092    99A      3.714180  
     100A      3.721067   101A      3.831551   102A      3.948656  
     103A      4.005591   104A      4.029370   105A      4.068967  
     106A      4.128110   107A      4.147987   108A      4.204595  
     109A      4.220254   110A      4.248116   111A      4.263878  
     112A      4.370806   113A      4.469215   114A      4.475752  
     115A      4.496391   116A      4.590241   117A      4.610110  
     118A      4.639250   119A      4.680698   120A      4.946139  
     121A      4.977383   122A      5.131213   123A      5.262895  
     124A      5.276484   125A      5.421405   126A      5.586467  

    Final Occupation by Irrep:
              A 
    DOCC [    12 ]

  @DF-RKS Final Energy:  -117.91859361499998

   => Energetics <=

    Nuclear Repulsion Energy =             70.6520073137652531
    One-Electron Energy =                -296.8119504725228808
    Two-Electron Energy =                 123.2216400103173868
    DFT Exchange-Correlation Energy =     -14.9802904665597190
    Empirical Dispersion Energy =           0.0000000000000000
    VV10 Nonlocal Energy =                  0.0000000000000000
    Total Energy =                       -117.9185936149999776

Computation Completed


Properties will be evaluated at   0.000000,   0.000000,   0.000000 [a0]

Properties computed using the SCF density matrix

  Nuclear Dipole Moment: [e a0]
     X:    -1.1504      Y:     0.4829      Z:     0.0010

  Electronic Dipole Moment: [e a0]
     X:     1.0156      Y:    -0.5105      Z:    -0.0023

  Dipole Moment: [e a0]
     X:    -0.1348      Y:    -0.0275      Z:    -0.0013     Total:     0.1376

  Dipole Moment: [D]
     X:    -0.3427      Y:    -0.0700      Z:    -0.0033     Total:     0.3498


*** tstop() called on n085 at Wed Nov 17 12:08:18 2021
Module time:
	user time   =      61.85 seconds =       1.03 minutes
	system time =       0.95 seconds =       0.02 minutes
	total time  =         16 seconds =       0.27 minutes
Total time:
	user time   =      61.85 seconds =       1.03 minutes
	system time =       0.95 seconds =       0.02 minutes
	total time  =         16 seconds =       0.27 minutes
Grab this energy -117.91859361499998
    Psi4 stopped on: Wednesday, 17 November 2021 12:08PM
    Psi4 wall time for execution: 0:00:16.15

*** Psi4 exiting successfully. Buy a developer a beer!
