
    -----------------------------------------------------------------------
          Psi4: An Open-Source Ab Initio Electronic Structure Package
                               Psi4 1.4a2.dev629 

                         Git: Rev {master} 2938fc2 dirty


    D. G. A. Smith, L. A. Burns, A. C. Simmonett, R. M. Parrish,
    M. C. Schieber, R. Galvelis, P. Kraus, H. Kruse, R. Di Remigio,
    A. Alenaizan, A. M. James, S. Lehtola, J. P. Misiewicz, M. Scheurer,
    R. A. Shaw, J. B. Schriber, Y. Xie, Z. L. Glick, D. A. Sirianni,
    J. S. O'Brien, J. M. Waldrop, A. Kumar, E. G. Hohenstein,
    B. P. Pritchard, B. R. Brooks, H. F. Schaefer III, A. Yu. Sokolov,
    K. Patkowski, A. E. DePrince III, U. Bozkaya, R. A. King,
    F. A. Evangelista, J. M. Turney, T. D. Crawford, C. D. Sherrill,
    J. Chem. Phys. 152(18) 184108 (2020). https://doi.org/10.1063/5.0006002

                            Additional Code Authors
    E. T. Seidl, C. L. Janssen, E. F. Valeev, M. L. Leininger,
    J. F. Gonthier, R. M. Richard, H. R. McAlexander, M. Saitow, X. Wang,
    P. Verma, and M. H. Lechner

             Previous Authors, Complete List of Code Contributors,
                       and Citations for Specific Modules
    https://github.com/psi4/psi4/blob/master/codemeta.json
    https://github.com/psi4/psi4/graphs/contributors
    http://psicode.org/psi4manual/master/introduction.html#citing-psifour

    -----------------------------------------------------------------------


    Psi4 started on: Wednesday, 17 November 2021 11:54AM

    Process ID: 9149
    Host:       n081
    PSIDATADIR: /opt/psi/4/master/share/psi4
    Memory:     500.0 MiB
    Threads:    4
    
  ==> Input File <==

--------------------------------------------------------------------------
import os
memory 14 GB 
 
molecule {
 C   -2.3767574277    0.3391498915    0.0007585450
 C    0.1991816418   -0.8564469744   -0.0014415009
 C    2.3729138828    0.4354634244    0.0011572696
 H    0.2623885248   -2.9143286558    0.0003970483
 H    4.1804662683   -0.5201863564   -0.0002742717
 H    2.3909692240    2.4863790481   -0.0002777576
 H   -2.2421270061    2.4004414176   -0.0001717969
 H   -3.4567326400   -0.2401807003   -1.6619230089
 H   -3.4568258179   -0.2402319246    1.6617754730
units bohr
}

basis {

assign 6-31g_2dfp_

[ 6-31g_2dfp_ ]

spherical

!----------------------------------------------------------------------
! Basis Set Exchange
! Version v0.8.13
! https://www.basissetexchange.org
!----------------------------------------------------------------------
!   Basis set: 6-31G(2df,p)
! Description: 6-31G(2df,p)
!        Role: orbital
!     Version: 0  (Data from the original Basis Set Exchange)
!----------------------------------------------------------------------


****
H     0
S    3   1.00
     18.7311370              0.03349460
      2.8253937              0.23472695
      0.6401217              0.81375733
S    1   1.00
      0.1612778              1.00000000
P    1   1.00
      1.5000000              1.0000000
P    1   1.00
      0.3750000              1.0000000
****
B     0
S    6   1.00
   2068.8823000              0.0018663
    310.6495700              0.0142515
     70.6830330              0.0695516
     19.8610800              0.2325729
      6.2993048              0.4670787
      2.1270270              0.3634314
SP   3   1.00
      4.7279710             -0.1303938              0.0745976
      1.1903377             -0.1307889              0.3078467
      0.3594117              1.1309444              0.7434568
SP   1   1.00
      0.1267512              1.0000000              1.0000000
D    1   1.00
      0.8020000              1.0000000
D    1   1.00
      0.2005000              1.0000000
F    1   1.00
      0.5000000              1.0000000
****
C     0
S    6   1.00
   3047.5249000              0.0018347
    457.3695100              0.0140373
    103.9486900              0.0688426
     29.2101550              0.2321844
      9.2866630              0.4679413
      3.1639270              0.3623120
SP   3   1.00
      7.8682724             -0.1193324              0.0689991
      1.8812885             -0.1608542              0.3164240
      0.5442493              1.1434564              0.7443083
SP   1   1.00
      0.1687144              1.0000000              1.0000000
D    1   1.00
      1.2520000              1.0000000
D    1   1.00
      0.3130000              1.0000000
F    1   1.00
      0.8000000              1.0000000
****
N     0
S    6   1.00
   4173.5110000              0.0018348
    627.4579000              0.0139950
    142.9021000              0.0685870
     40.2343300              0.2322410
     12.8202100              0.4690700
      4.3904370              0.3604550
SP   3   1.00
     11.6263580             -0.1149610              0.0675800
      2.7162800             -0.1691180              0.3239070
      0.7722180              1.1458520              0.7408950
SP   1   1.00
      0.2120313              1.0000000              1.0000000
D    1   1.00
      1.8260000              1.0000000
D    1   1.00
      0.4565000              1.0000000
F    1   1.00
      1.0000000              1.0000000
****
O     0
S    6   1.00
   5484.6717000              0.0018311
    825.2349500              0.0139501
    188.0469600              0.0684451
     52.9645000              0.2327143
     16.8975700              0.4701930
      5.7996353              0.3585209
SP   3   1.00
     15.5396160             -0.1107775              0.0708743
      3.5999336             -0.1480263              0.3397528
      1.0137618              1.1307670              0.7271586
SP   1   1.00
      0.2700058              1.0000000              1.0000000
D    1   1.00
      2.5840000              1.0000000
D    1   1.00
      0.6460000              1.0000000
F    1   1.00
      1.4000000              1.0000000
****
F     0
S    6   1.00
   7001.7130900              0.0018196169
   1051.3660900              0.0139160796
    239.2856900              0.0684053245
     67.3974453              0.233185760
     21.5199573              0.471267439
      7.40310130             0.356618546
SP   3   1.00
     20.8479528             -0.108506975            0.0716287243
      4.80830834            -0.146451658            0.3459121030
      1.34406986             1.128688580            0.7224699570
SP   1   1.00
      0.358151393            1.0000000              1.0000000
D    1   1.00
      3.5000000              1.0000000
D    1   1.00
      0.8750000              1.0000000
F    1   1.00
      1.8500000              1.0000000
****
Al     0
S    6   1.00
  13983.1000000              0.00194267
   2098.7500000              0.0148599
    477.7050000              0.0728494
    134.3600000              0.2468300
     42.8709000              0.4872580
     14.5189000              0.3234960
SP   6   1.00
    239.6680000             -0.00292619             0.00460285
     57.4419000             -0.0374080              0.0331990
     18.2859000             -0.1144870              0.1362820
      6.5991400              0.1156350              0.3304760
      2.4904900              0.6125950              0.4491460
      0.9445400              0.3937990              0.2657040
SP   3   1.00
      1.2779000             -0.2276060             -0.0175130
      0.3975900              0.00144583             0.2445330
      0.1600950              1.0927900              0.8049340
SP   1   1.00
      0.0556577              1.0000000              1.0000000
D    1   1.00
      0.6500000              1.0000000
D    1   1.00
      0.1625000              1.0000000
F    1   1.00
      0.2500000              1.0000000
****
Si     0
S    6   1.00
  16115.9000000              0.00195948
   2425.5800000              0.01492880
    553.8670000              0.07284780
    156.3400000              0.24613000
     50.0683000              0.48591400
     17.0178000              0.32500200
SP   6   1.00
    292.7180000             -0.00278094             0.00443826
     69.8731000             -0.03571460             0.03266790
     22.3363000             -0.11498500             0.13472100
      8.1503900              0.09356340             0.32867800
      3.1345800              0.60301700             0.44964000
      1.2254300              0.41895900             0.26137200
SP   3   1.00
      1.7273800             -0.24463000            -0.01779510
      0.5729220              0.00431572             0.25353900
      0.2221920              1.09818000             0.80066900
SP   1   1.00
      0.0778369              1.00000000             1.00000000
D    1   1.00
      0.9000000              1.0000000
D    1   1.00
      0.2250000              1.0000000
F    1   1.00
      0.3200000              1.0000000
****
P     0
S    6   1.00
  19413.3000000              0.0018516
   2909.4200000              0.0142062
    661.3640000              0.0699995
    185.7590000              0.2400790
     59.1943000              0.4847620
     20.0310000              0.3352000
SP   6   1.00
    339.4780000             -0.00278217             0.00456462
     81.0101000             -0.0360499              0.03369360
     25.8780000             -0.1166310              0.13975500
      9.4522100              0.0968328              0.33936200
      3.6656600              0.6144180              0.45092100
      1.4674600              0.4037980              0.23858600
SP   3   1.00
      2.1562300             -0.2529230             -0.01776530
      0.7489970              0.0328517              0.27405800
      0.2831450              1.0812500              0.78542100
SP   1   1.00
      0.0998317              1.0000000              1.00000000
D    1   1.00
      1.1000000              1.0000000
D    1   1.00
      0.2750000              1.0000000
F    1   1.00
      0.4500000              1.0000000
****
S     0
S    6   1.00
  21917.1000000              0.0018690
   3301.4900000              0.0142300
    754.1460000              0.0696960
    212.7110000              0.2384870
     67.9896000              0.4833070
     23.0515000              0.3380740
SP   6   1.00
    423.7350000             -0.0023767              0.0040610
    100.7100000             -0.0316930              0.0306810
     32.1599000             -0.1133170              0.1304520
     11.8079000              0.0560900              0.3272050
      4.6311000              0.5922550              0.4528510
      1.8702500              0.4550060              0.2560420
SP   3   1.00
      2.6158400             -0.2503740             -0.0145110
      0.9221670              0.0669570              0.3102630
      0.3412870              1.0545100              0.7544830
SP   1   1.00
      0.1171670              1.0000000              1.0000000
D    1   1.00
      1.3000000              1.0000000
D    1   1.00
      0.3250000              1.0000000
F    1   1.00
      0.5500000              1.0000000
****
Cl     0
S    6   1.00
  25180.1000000              0.0018330
   3780.3500000              0.0140340
    860.4740000              0.0690970
    242.1450000              0.2374520
     77.3349000              0.4830340
     26.2470000              0.3398560
SP   6   1.00
    491.7650000             -0.0022974              0.0039894
    116.9840000             -0.0307140              0.0303180
     37.4153000             -0.1125280              0.1298800
     13.7834000              0.0450160              0.3279510
      5.4521500              0.5893530              0.4535270
      2.2258800              0.4652060              0.2521540
SP   3   1.00
      3.1864900             -0.2518300             -0.0142990
      1.1442700              0.0615890              0.3235720
      0.4203770              1.0601800              0.7435070
SP   1   1.00
      0.1426570              1.0000000              1.0000000
D    1   1.00
      1.5000000              1.0000000
D    1   1.00
      0.3750000              1.0000000
F    1   1.00
      0.7000000              1.0000000
****
}


set {
reference rhf                          
freeze_core true
e_convergence 10                       
d_convergence 10                      
dft_spherical_points 1202
dft_radial_points 99
}

e = energy('b3lyp')

print_out('Grab this energy {0}'.format(e))
--------------------------------------------------------------------------

  Memory set to  13.039 GiB by Python driver.

Scratch directory: /tmp/

*** tstart() called on n081
*** at Wed Nov 17 11:54:32 2021

   => Loading Basis Set <=

    Name: ANONYMOUSFFC5A9D0
    Role: ORBITAL
    Keyword: BASIS
    atoms 1-3 entry C          line    48 inputblock 6-31g_2dfp_ 
    atoms 4-9 entry H          line    15 inputblock 6-31g_2dfp_ 


         ---------------------------------------------------------
                                   SCF
               by Justin Turney, Rob Parrish, Andy Simmonett
                          and Daniel G. A. Smith
                              RKS Reference
                        4 Threads,  13351 MiB Core
         ---------------------------------------------------------

  ==> Geometry <==

    Molecular point group: c1
    Full point group: C1

    Geometry (in Bohr), charge = 0, multiplicity = 1:

       Center              X                  Y                   Z               Mass       
    ------------   -----------------  -----------------  -----------------  -----------------
         C           -2.376853203380     0.339209491083     0.000634546968    12.000000000000
         C            0.199085866120    -0.856387374817    -0.001565498932    12.000000000000
         C            2.372818107120     0.435523023983     0.001033271568    12.000000000000
         H            0.262292749120    -2.914269056217     0.000273050268     1.007825032230
         H            4.180370492620    -0.520126756817    -0.000398269732     1.007825032230
         H            2.390873448320     2.486438647683    -0.000401755632     1.007825032230
         H           -2.242222781780     2.400501017183    -0.000295794932     1.007825032230
         H           -3.456828415680    -0.240121100717    -1.662047006932     1.007825032230
         H           -3.456921593580    -0.240172325017     1.661651474968     1.007825032230

  Running in c1 symmetry.

  Rotational constants: A =      1.54315  B =      0.31032  C =      0.27133 [cm^-1]
  Rotational constants: A =  46262.34260  B =   9303.01935  C =   8134.12710 [MHz]
  Nuclear repulsion =   70.645877288935679

  Charge       = 0
  Multiplicity = 1
  Electrons    = 24
  Nalpha       = 12
  Nbeta        = 12

  ==> Algorithm <==

  SCF Algorithm Type is DF.
  DIIS enabled.
  MOM disabled.
  Fractional occupation disabled.
  Guess Type is SAD.
  Energy threshold   = 1.00e-10
  Density threshold  = 1.00e-10
  Integral threshold = 0.00e+00

  ==> Primary Basis <==

  Basis Set: ANONYMOUSFFC5A9D0
    Blend: 6-31G_2DFP_
    Number of shells: 48
    Number of basis function: 126
    Number of Cartesian functions: 141
    Spherical Harmonics?: true
    Max angular momentum: 3

  ==> DFT Potential <==

   => Composite Functional: B3LYP <= 

    B3LYP Hyb-GGA Exchange-Correlation Functional

    P. J. Stephens, F. J. Devlin, C. F. Chabalowski, and M. J. Frisch, J. Phys. Chem. 98, 11623 (1994)

    Deriv               =              1
    GGA                 =           TRUE
    Meta                =          FALSE

    Exchange Hybrid     =           TRUE
    MP2 Hybrid          =          FALSE

   => Exchange Functionals <=

    0.0800   Slater exchange
    0.7200         Becke 88

   => Exact (HF) Exchange <=

    0.2000               HF 

   => Correlation Functionals <=

    0.1900   Vosko, Wilk & Nusair (VWN5_RPA)
    0.8100   Lee, Yang & Parr

   => Molecular Quadrature <=

    Radial Scheme          =       TREUTLER
    Pruning Scheme         =           NONE
    Nuclear Scheme         =       TREUTLER

    BS radius alpha        =              1
    Pruning alpha          =              1
    Radial Points          =             99
    Spherical Points       =           1202
    Total Points           =        1007872
    Total Blocks           =           6803
    Max Points             =            256
    Max Functions          =            126
    Weights Tolerance      =       1.00E-15

   => Loading Basis Set <=

    Name: (ANONYMOUSFFC5A9D0 AUX)
    Role: JKFIT
    Keyword: DF_BASIS_SCF
    atoms 1-3 entry C          line   198 file /opt/psi/4/master/share/psi4/basis/def2-universal-jkfit.gbs 
    atoms 4-9 entry H          line    18 file /opt/psi/4/master/share/psi4/basis/def2-universal-jkfit.gbs 

  ==> Integral Setup <==

  DFHelper Memory: AOs need 0.044 GiB; user supplied 6.643 GiB. Using in-core AOs.

  ==> MemDFJK: Density-Fitted J/K Matrices <==

    J tasked:                   Yes
    K tasked:                   Yes
    wK tasked:                   No
    OpenMP threads:               4
    Memory [MiB]:              6802
    Algorithm:                 Core
    Schwarz Cutoff:           1E-12
    Mask sparsity (%):       0.8314
    Fitting Condition:        1E-10

   => Auxiliary Basis Set <=

  Basis Set: (ANONYMOUSFFC5A9D0 AUX)
    Blend: DEF2-UNIVERSAL-JKFIT
    Number of shells: 111
    Number of basis function: 333
    Number of Cartesian functions: 387
    Spherical Harmonics?: true
    Max angular momentum: 4

  Cached 100.0% of DFT collocation blocks in 3.136 [GiB].

  Minimum eigenvalue in the overlap matrix is 9.5291333484E-04.
  Reciprocal condition number of the overlap matrix is 1.7015579852E-04.
    Using symmetric orthogonalization.

  ==> Pre-Iterations <==

  SCF Guess: Superposition of Atomic Densities via on-the-fly atomic UHF (no occupation information).

   -------------------------
    Irrep   Nso     Nmo    
   -------------------------
     A        126     126 
   -------------------------
    Total     126     126
   -------------------------

  ==> Iterations <==

                           Total Energy        Delta E     RMS |[F,P]|

   @DF-RKS iter SAD:  -117.28809181382954   -1.17288e+02   0.00000e+00 
   @DF-RKS iter   1:  -117.64798089225813   -3.59889e-01   5.51373e-03 DIIS
   @DF-RKS iter   2:  -117.58879106096300    5.91898e-02   6.02863e-03 DIIS
   @DF-RKS iter   3:  -117.91716604823682   -3.28375e-01   4.13555e-04 DIIS
   @DF-RKS iter   4:  -117.91741595406695   -2.49906e-04   3.74389e-04 DIIS
   @DF-RKS iter   5:  -117.91855184452011   -1.13589e-03   6.52243e-05 DIIS
   @DF-RKS iter   6:  -117.91858886703966   -3.70225e-05   7.04927e-06 DIIS
   @DF-RKS iter   7:  -117.91858926246840   -3.95429e-07   2.54868e-06 DIIS
   @DF-RKS iter   8:  -117.91858931147495   -4.90065e-08   6.82069e-07 DIIS
   @DF-RKS iter   9:  -117.91858931533170   -3.85675e-09   5.00128e-08 DIIS
   @DF-RKS iter  10:  -117.91858931535413   -2.24247e-11   8.68624e-09 DIIS
   @DF-RKS iter  11:  -117.91858931535479   -6.67910e-13   1.34522e-09 DIIS
   @DF-RKS iter  12:  -117.91858931535479    0.00000e+00   2.56079e-10 DIIS
   @DF-RKS iter  13:  -117.91858931535485   -5.68434e-14   3.76043e-11 DIIS
  Energy and wave function converged.


  ==> Post-Iterations <==

    Orbital Energies [Eh]
    ---------------------

    Doubly Occupied:                                                      

       1A    -10.181797     2A    -10.174474     3A    -10.166446  
       4A     -0.779661     5A     -0.679982     6A     -0.549306  
       7A     -0.461058     8A     -0.414595     9A     -0.409852  
      10A     -0.366492    11A     -0.342296    12A     -0.250652  

    Virtual:                                                              

      13A      0.024152    14A      0.099476    15A      0.125392  
      16A      0.135441    17A      0.162564    18A      0.168436  
      19A      0.181990    20A      0.261329    21A      0.342764  
      22A      0.421794    23A      0.426603    24A      0.442659  
      25A      0.448909    26A      0.486487    27A      0.488317  
      28A      0.514170    29A      0.530441    30A      0.569733  
      31A      0.591609    32A      0.610378    33A      0.616683  
      34A      0.639703    35A      0.659257    36A      0.664307  
      37A      0.672706    38A      0.693503    39A      0.723279  
      40A      0.857568    41A      0.858852    42A      0.907149  
      43A      0.936857    44A      0.946014    45A      1.015279  
      46A      1.016494    47A      1.027124    48A      1.073692  
      49A      1.096986    50A      1.147459    51A      1.170033  
      52A      1.198814    53A      1.205795    54A      1.260507  
      55A      1.327257    56A      1.346389    57A      1.352630  
      58A      1.392912    59A      1.442254    60A      1.460481  
      61A      1.497991    62A      1.506979    63A      1.554800  
      64A      1.597295    65A      1.688250    66A      1.737228  
      67A      1.829758    68A      1.947434    69A      1.969632  
      70A      2.089184    71A      2.286269    72A      2.423996  
      73A      2.675460    74A      2.740699    75A      2.837214  
      76A      2.866960    77A      2.886705    78A      2.931116  
      79A      2.943406    80A      2.984363    81A      2.999018  
      82A      3.034670    83A      3.037547    84A      3.129676  
      85A      3.148117    86A      3.177575    87A      3.179352  
      88A      3.217115    89A      3.279106    90A      3.295994  
      91A      3.369847    92A      3.384934    93A      3.424259  
      94A      3.440571    95A      3.521393    96A      3.584961  
      97A      3.638643    98A      3.675442    99A      3.712546  
     100A      3.723542   101A      3.831909   102A      3.951732  
     103A      4.003843   104A      4.029264   105A      4.070463  
     106A      4.129685   107A      4.147175   108A      4.204695  
     109A      4.219528   110A      4.245014   111A      4.261044  
     112A      4.372406   113A      4.469421   114A      4.474556  
     115A      4.498947   116A      4.590676   117A      4.610128  
     118A      4.637633   119A      4.674942   120A      4.946716  
     121A      4.978239   122A      5.131454   123A      5.262283  
     124A      5.277251   125A      5.419804   126A      5.579936  

    Final Occupation by Irrep:
              A 
    DOCC [    12 ]

  @DF-RKS Final Energy:  -117.91858931535485

   => Energetics <=

    Nuclear Repulsion Energy =             70.6458772889356794
    One-Electron Energy =                -296.8005696879745301
    Two-Electron Energy =                 123.2154568861765114
    DFT Exchange-Correlation Energy =     -14.9793538024925130
    Empirical Dispersion Energy =           0.0000000000000000
    VV10 Nonlocal Energy =                  0.0000000000000000
    Total Energy =                       -117.9185893153548506

Computation Completed


Properties will be evaluated at   0.000000,   0.000000,   0.000000 [a0]

Properties computed using the SCF density matrix

  Nuclear Dipole Moment: [e a0]
     X:    -1.1521      Y:     0.4823      Z:    -0.0006

  Electronic Dipole Moment: [e a0]
     X:     1.0161      Y:    -0.5102      Z:     0.0006

  Dipole Moment: [e a0]
     X:    -0.1360      Y:    -0.0278      Z:     0.0000     Total:     0.1389

  Dipole Moment: [D]
     X:    -0.3458      Y:    -0.0708      Z:     0.0000     Total:     0.3529


*** tstop() called on n081 at Wed Nov 17 11:54:46 2021
Module time:
	user time   =      52.86 seconds =       0.88 minutes
	system time =       0.92 seconds =       0.02 minutes
	total time  =         14 seconds =       0.23 minutes
Total time:
	user time   =      52.86 seconds =       0.88 minutes
	system time =       0.92 seconds =       0.02 minutes
	total time  =         14 seconds =       0.23 minutes
Grab this energy -117.91858931535485
    Psi4 stopped on: Wednesday, 17 November 2021 11:54AM
    Psi4 wall time for execution: 0:00:13.88

*** Psi4 exiting successfully. Buy a developer a beer!
