
 Primary working directories    : /tmp/878919.20.gen5.q
 Secondary working directories  : /tmp/878919.20.gen5.q
 Wavefunction directory         : /home/vulcan/lo21740/wfu/
 Main file repository           : /tmp/878919.20.gen5.q/

 ARCHNAME  : Linux/x86_64
 FC        : /opt/intel/compilers_and_libraries_2016.1.150/linux/bin/intel64/ifort
 FCVERSION : 16.0.1
 BLASLIB   : -mkl
 id        : ccgc

 Nodes     nprocs
 n072         1
 ga_uses_ma=false, calling ma_init with nominal heap.
 GA-space will be limited to   8.0 MW (determined by -G option)

 Using customized tuning parameters: mindgm=10; mindgv=16; mindgc=4; mindgr=1; noblas=0; mincuda=1000; minvec=7
 default implementation of scratch files=df  

 ***,Optimization of formamide
 memory,1000,m
 gthresh,energy=1.0d-12,orbital=1.0d-10,oneint=1.0d-16,twoint=1.0d-16,optgrad=1.0d-6,compress=1.0d-13
 geomtyp=xyz
 
 bohr
 geometry = {
  C   -3.8277315299    0.0870742562    0.0000268187
  O   -2.7298879115    2.1387534844   -0.0001378657
  N   -2.6791915754   -2.1805636764   -0.0002372097
  H   -3.7396524958   -3.7557660291   -0.0000047046
  H   -0.7515179949   -2.3047412422    0.0003496564
  H   -5.9017188147   -0.0185028540    0.0000033050
  C    3.8277315299   -0.0870742562    0.0000268187
  O    2.7298879115   -2.1387534844   -0.0001378657
  N    2.6791915754    2.1805636764   -0.0002372097
  H    3.7396524958    3.7557660291   -0.0000047046
  H    0.7515179949    2.3047412422    0.0003496564
  H    5.9017188147    0.0185028540    0.0000033050
 }
 
 basis=VDZ
 {rhf;maxit,200}
 {ccsd(t);maxit,200}

 Variables initialized (661), CPU time= 0.01 sec
 Commands  initialized (458), CPU time= 0.00 sec, 486 directives.
 Default parameters read. Elapsed time= 0.04 sec

 Checking input...
 Passed
1


                                         ***  PROGRAM SYSTEM MOLPRO  ***
                         Copyright, University College Cardiff Consultants Limited, 2008

                                    Version 2010.1 linked May 16 2016 07:17:05


 **********************************************************************************************************************************
 LABEL *   Optimization of formamide                                                     
 Linux-4.4.3/n072(x86_64) 64 bit mpp version                                             DATE: 22-May-23          TIME: 17:11:38  
 **********************************************************************************************************************************

 SHA1:             9e8077add272b0f3cad6f7df79ec5211205f459d
 **********************************************************************************************************************************

 THRESHOLDS:

 ZERO    =  1.00D-12  ONEINT  =  1.00D-16  TWOINT  =  1.00D-16  PREFAC  =  1.00D-14  LOCALI  =  1.00D-09  EORDER  =  1.00D-04
 ENERGY  =  1.00D-12  ETEST   =  0.00D+00  EDENS   =  0.00D+00  THRDEDEF=  1.00D-06  GRADIENT=  1.00D-02  STEP    =  1.00D-03
 ORBITAL =  1.00D-10  CIVEC   =  1.00D-05  COEFF   =  1.00D-04  PRINTCI =  5.00D-02  PUNCHCI =  9.90D+01  OPTGRAD =  1.00D-06
 OPTENERG=  1.00D-06  OPTSTEP =  3.00D-04  THRGRAD =  1.00D-10  COMPRESS=  1.00D-13  VARMIN  =  1.00D-07  VARMAX  =  1.00D-03
 THRDOUB =  0.00D+00  THRDIV  =  1.00D-05  THRRED  =  1.00D-07  THRPSP  =  1.00D+00  THRDC   =  1.00D-10  THRCS   =  1.00D-10
 THRNRM  =  1.00D-08  THREQ   =  0.00D+00  THRDE   =  1.00D+00  THRREF  =  1.00D-05  SPARFAC =  1.00D+00  THRDLP  =  1.00D-07
 THRDIA  =  1.00D-10  THRDLS  =  1.00D-07  THRGPS  =  0.00D+00  THRKEX  =  0.00D+00  THRDIS  =  2.00D-01  THRVAR  =  1.00D-10
 THRLOC  =  1.00D-06  THRGAP  =  1.00D-06  THRLOCT = -1.00D+00  THRGAPT = -1.00D+00  THRORB  =  1.00D-06  THRMLTP =  0.00D+00
 THRCPQCI=  1.00D-10  KEXTA   =  0.00D+00  THRCOARS=  0.00D+00  SYMTOL  =  1.00D-06  GRADTOL =  1.00D-06  THROVL  =  1.00D-08
 THRORTH =  1.00D-08  GRID    =  1.00D-06  GRIDMAX =  1.00D-03  DTMAX   =  0.00D+00

 SETTING GEOMTYP        =    XYZ
 ZUNIT=BOHR
 

 Variable memory set to 1000000000 words,  buffer space   230000 words

 SETTING BASIS          =    VDZ


 Recomputing integrals since basis changed


 Using spherical harmonics

 Library entry C      S cc-pVDZ              selected for orbital group  1
 Library entry C      P cc-pVDZ              selected for orbital group  1
 Library entry C      D cc-pVDZ              selected for orbital group  1
 Library entry O      S cc-pVDZ              selected for orbital group  2
 Library entry O      P cc-pVDZ              selected for orbital group  2
 Library entry O      D cc-pVDZ              selected for orbital group  2
 Library entry N      S cc-pVDZ              selected for orbital group  3
 Library entry N      P cc-pVDZ              selected for orbital group  3
 Library entry N      D cc-pVDZ              selected for orbital group  3
 Library entry H      S cc-pVDZ              selected for orbital group  4
 Library entry H      P cc-pVDZ              selected for orbital group  4

1PROGRAM * SEWARD (Integral evaluation for generally contracted gaussian basis sets)     Author: Roland Lindh, 1990

 Geometry written to block  1 of record 700


 Point group  C2  



 ATOMIC COORDINATES

 NR  ATOM    CHARGE       X              Y              Z

   1  C       6.00   -3.827731530    0.087074256    0.000026819
   2  C       6.00    3.827731530   -0.087074256    0.000026819
   3  O       8.00   -2.729887912    2.138753484   -0.000137866
   4  O       8.00    2.729887912   -2.138753484   -0.000137866
   5  N       7.00   -2.679191575   -2.180563676   -0.000237210
   6  N       7.00    2.679191575    2.180563676   -0.000237210
   7  H       1.00   -3.739652496   -3.755766029   -0.000004705
   8  H       1.00    3.739652496    3.755766029   -0.000004705
   9  H       1.00   -0.751517995   -2.304741242    0.000349656
  10  H       1.00    0.751517995    2.304741242    0.000349656
  11  H       1.00   -5.901718815   -0.018502854    0.000003305
  12  H       1.00    5.901718815    0.018502854    0.000003305

 Bond lengths in Bohr (Angstrom)

  1- 3  2.326939684   1- 5  2.541913824   1-11  2.076672768   2- 4  2.326939684   2- 6  2.541913824
       ( 1.231363447)       ( 1.345122863)       ( 1.098927899)       ( 1.231363447)       ( 1.345122863)

  2-12  2.076672768   5- 7  1.898904913   5- 9  1.931669186   6- 8  1.898904913   6-10  1.931669186
       ( 1.098927899)       ( 1.004857202)       ( 1.022195309)       ( 1.004857202)       ( 1.022195309)

 Bond angles

  1- 5- 7  119.18885166   1- 5- 9  120.54764218   2- 6- 8  119.18885166   2- 6-10  120.54764218

  3- 1- 5  124.98714055   3- 1-11  121.06516768   4- 2- 6  124.98714055   4- 2-12  121.06516768

  5- 1-11  113.94769059   6- 2-12  113.94769059   7- 5- 9  120.26349681   8- 6-10  120.26349681

 NUCLEAR CHARGE:                   48
 NUMBER OF PRIMITIVE AOS:         204
 NUMBER OF SYMMETRY AOS:          198
 NUMBER OF CONTRACTIONS:          114   (  57A   +  57B   )
 NUMBER OF CORE ORBITALS:           6   (   3A   +   3B   )
 NUMBER OF VALENCE ORBITALS:       30   (  15A   +  15B   )


 NUCLEAR REPULSION ENERGY  230.46942982


 Eigenvalues of metric

         1 0.556E-02 0.108E-01 0.153E-01 0.239E-01 0.304E-01 0.404E-01 0.417E-01 0.486E-01
         2 0.572E-02 0.113E-01 0.154E-01 0.242E-01 0.280E-01 0.398E-01 0.410E-01 0.432E-01


 Contracted 2-electron integrals neglected if value below      1.0D-16
 AO integral compression algorithm  1   Integral accuracy      1.0D-16

     89.915 MB (compressed) written to integral file ( 85.0%)

     Node minimum: 89.915 MB, node maximum: 89.915 MB


 NUMBER OF SORTED TWO-ELECTRON INTEGRALS:   10931289.     BUFFER LENGTH:  32768
 NUMBER OF SEGMENTS:   1  SEGMENT LENGTH:   10931289      RECORD LENGTH: 524288

 Memory used in sort:      11.49 MW

 SORT1 READ    13250584. AND WROTE    10866692. INTEGRALS IN     32 RECORDS. CPU TIME:     0.14 SEC, REAL TIME:     0.21 SEC
 SORT2 READ    10866692. AND WROTE    10931289. INTEGRALS IN    343 RECORDS. CPU TIME:     0.16 SEC, REAL TIME:     0.21 SEC

 FILE SIZES:   FILE 1:    78.9 MBYTE,  FILE 4:   134.3 MBYTE,   TOTAL:    213.2 MBYTE

 OPERATOR DM      FOR CENTER  0  COORDINATES:    0.000000    0.000000    0.000000


 **********************************************************************************************************************************
 DATASETS  * FILE   NREC   LENGTH (MB)   RECORD NAMES
              1      19       79.03       500      610      700      900      950      970     1000      129      960     1100   
                                          VAR    BASINP    GEOM    SYMINP    ZMAT    AOBASIS   BASIS     P2S    ABASIS      S 
                                         1400     1410     1200     1210     1080     1600     1650     1300     1700   
                                           T        V       H0       H01     AOSYM     SMH    MOLCAS    ERIS     OPER   

 PROGRAMS   *        TOTAL       INT
 CPU TIMES  *         1.88      1.84
 REAL TIME  *         2.27 SEC
 DISK USED  *       303.97 MB      
 GA USED    *         0.00 MB       (max)       0.00 MB       (current)
 **********************************************************************************************************************************

1PROGRAM * RHF-SCF (CLOSED SHELL)       Authors: W. Meyer, H.-J. Werner


 NUMBER OF ELECTRONS:      24+   24-
 CONVERGENCE THRESHOLDS:    1.00E-10 (Density)    1.00E-13 (Energy)
 MAX. NUMBER OF ITERATIONS:      200
 INTERPOLATION TYPE:            DIIS
 INTERPOLATION STEPS:              2 (START)      1 (STEP)
 LEVEL SHIFTS:                  0.00 (CLOSED)  0.00 (OPEN) 



 Orbital guess generated from atomic densities. Full valence occupancy:   18  18

 Molecular orbital dump at record        2100.2

 Initial alpha occupancy:  12  12
 Initial beta  occupancy:  12  12
 Wave function symmetry:    1

 ITERATION    DDIFF          GRAD             ENERGY        2-EL.EN.            DIPOLE MOMENTS         DIIS
    1      0.000D+00      0.000D+00      -337.77903066    705.350025    0.00000    0.00000    0.00093    0
    2      0.000D+00      0.134D-01      -337.85763760    700.148241    0.00000    0.00000    0.00054    1
    3      0.268D-01      0.954D-02      -337.91336689    702.630206    0.00000    0.00000    0.00067    2
    4      0.103D-01      0.126D-02      -337.91547195    702.614036    0.00000    0.00000    0.00069    3
    5      0.226D-02      0.443D-03      -337.91574037    702.543085    0.00000    0.00000    0.00068    4
    6      0.814D-03      0.148D-03      -337.91580873    702.562116    0.00000    0.00000    0.00068    5
    7      0.379D-03      0.662D-04      -337.91582016    702.557515    0.00000    0.00000    0.00068    6
    8      0.192D-03      0.173D-04      -337.91582086    702.558111    0.00000    0.00000    0.00068    7
    9      0.491D-04      0.445D-05      -337.91582091    702.557636    0.00000    0.00000    0.00068    7
   10      0.137D-04      0.101D-05      -337.91582092    702.557922    0.00000    0.00000    0.00068    7
   11      0.273D-05      0.273D-06      -337.91582092    702.557820    0.00000    0.00000    0.00068    8
   12      0.653D-06      0.519D-07      -337.91582092    702.557832    0.00000    0.00000    0.00068    7
   13      0.120D-06      0.164D-07      -337.91582092    702.557833    0.00000    0.00000    0.00068    7
   14      0.478D-07      0.396D-08      -337.91582092    702.557833    0.00000    0.00000    0.00068    7
   15      0.928D-08      0.122D-08      -337.91582092    702.557833    0.00000    0.00000    0.00068    7
   16      0.289D-08      0.301D-09      -337.91582092    702.557833    0.00000    0.00000    0.00068    7
   17      0.721D-09      0.137D-09      -337.91582092    702.557833    0.00000    0.00000    0.00068    7
   18      0.375D-09      0.247D-10      -337.91582092    702.557833    0.00000    0.00000    0.00068    7
   19      0.589D-10      0.921D-11      -337.91582092    702.557833    0.00000    0.00000    0.00068    7
   20      0.179D-10      0.204D-11      -337.91582092    702.557833    0.00000    0.00000    0.00068    7
   21      0.514D-11      0.604D-12      -337.91582092    702.557833    0.00000    0.00000    0.00068    7
   22      0.148D-11      0.136D-12      -337.91582092    702.557833    0.00000    0.00000    0.00068    7
   23      0.381D-12      0.434D-13      -337.91582092    702.557833    0.00000    0.00000    0.00068    0

 Final occupancy:  12  12

 !RHF STATE 1.1 Energy               -337.915820915129
 Nuclear energy                       230.46942982
 One-electron energy                 -919.66416726
 Two-electron energy                  351.27891653
 Virial quotient                       -1.00145260
 !RHF STATE 1.1 Dipole moment           0.00000000     0.00000000     0.00068459
 Dipole moment /Debye                   0.00000000     0.00000000     0.00173994

 Orbital energies:

         1.1          2.1          3.1          4.1          5.1          6.1          7.1          8.1          9.1         10.1
    -20.525439   -15.577019   -11.359325    -1.377934    -1.201503    -0.852063    -0.739808    -0.634262    -0.610530    -0.564633

        11.1         12.1         13.1         14.1
     -0.443527    -0.400774     0.186305     0.193993

         1.2          2.2          3.2          4.2          5.2          6.2          7.2          8.2          9.2         10.2
    -20.525439   -15.577018   -11.359326    -1.373189    -1.207679    -0.826911    -0.731126    -0.695555    -0.583854    -0.557151

        11.2         12.2         13.2         14.2
     -0.418751    -0.410353     0.188202     0.200906


 **********************************************************************************************************************************
 DATASETS  * FILE   NREC   LENGTH (MB)   RECORD NAMES
              1      19       79.03       500      610      700      900      950      970     1000      129      960     1100   
                                          VAR    BASINP    GEOM    SYMINP    ZMAT    AOBASIS   BASIS     P2S    ABASIS      S 
                                         1400     1410     1200     1210     1080     1600     1650     1300     1700   
                                           T        V       H0       H01     AOSYM     SMH    MOLCAS    ERIS     OPER   

              2       3        0.59       700     1000     2100   
                                         GEOM     BASIS     RHF  

 PROGRAMS   *        TOTAL       RHF       INT
 CPU TIMES  *         3.39      1.51      1.84
 REAL TIME  *         4.01 SEC
 DISK USED  *       303.97 MB      
 GA USED    *         0.00 MB       (max)       0.00 MB       (current)
 **********************************************************************************************************************************


1PROGRAM * CCSD (Closed-shell coupled cluster)     Authors: C. Hampel, H.-J. Werner, 1991, M. Deegan, P.J. Knowles, 1992


 Convergence thresholds:  THRVAR = 1.00D-08  THRDEN = 1.00D-12

 CCSD(T)     terms to be evaluated (factor= 1.000)


 Number of core orbitals:           6 (   3   3 )
 Number of closed-shell orbitals:  18 (   9   9 )
 Number of external orbitals:      90 (  45  45 )

 Molecular orbitals read from record     2100.2  Type=RHF/CANONICAL (state 1.1)

 Number of N-1 electron functions:              18
 Number of N-2 electron functions:             171
 Number of singly external CSFs:               810
 Number of doubly external CSFs:            656910
 Total number of CSFs:                      657721

 Length of J-op  integral file:               0.00 MB
 Length of K-op  integral file:               0.48 MB
 Length of 3-ext integral record:             0.00 MB

 Memory could be reduced to 9.36 Mwords without degradation in triples

 Integral transformation finished. Total CPU:   0.56 sec, npass=  1  Memory used:   6.56 MW

 Reference energy:                   -337.91582092

 MP2 singlet pair energy:              -0.58965935
 MP2 triplet pair energy:              -0.38312508
 MP2 correlation energy:               -0.97278443
 MP2 total energy:                   -338.88860535

 SCS-MP2 correlation energy:           -0.94598016   (PS=  1.200000  PT=  0.333333)
 SCS-MP2 total energy:               -338.86180108

 ITER.      SQ.NORM     CORR.ENERGY   TOTAL ENERGY   ENERGY CHANGE        DEN1      VAR(S)    VAR(P)  DIIS     TIME
   1      1.29771411    -1.00475081  -338.92057173    -0.03196638    -0.00228846  0.97D-02  0.55D-02  1  1     1.58
   2      1.32263465    -1.00738710  -338.92320801    -0.00263629    -0.02516239  0.22D-03  0.11D-02  2  2     2.65
   3      1.33531486    -1.00836443  -338.92418534    -0.00097733    -0.00561176  0.22D-03  0.47D-04  3  3     3.74
   4      1.34070113    -1.00813495  -338.92395586     0.00022948    -0.00170052  0.20D-04  0.81D-05  4  4     4.83
   5      1.34282489    -1.00807083  -338.92389175     0.00006411    -0.00043710  0.19D-05  0.11D-05  5  5     5.92
   6      1.34329534    -1.00803995  -338.92386086     0.00003088    -0.00004159  0.15D-06  0.13D-06  6  6     7.01
   7      1.34340114    -1.00803023  -338.92385115     0.00000972    -0.00000532  0.14D-07  0.15D-07  6  2     8.10
   8      1.34341909    -1.00803033  -338.92385125    -0.00000010     0.00000002  0.17D-08  0.17D-08  6  1     9.20
   9      1.34342056    -1.00803002  -338.92385094     0.00000031     0.00000150  0.29D-09  0.21D-09  6  4    10.28
  10      1.34342358    -1.00802998  -338.92385090     0.00000004    -0.00000043  0.74D-10  0.20D-10  6  3    11.38
  11      1.34342347    -1.00803006  -338.92385097    -0.00000007     0.00000017  0.15D-10  0.49D-11  6  5    12.47
  12      1.34342327    -1.00803008  -338.92385099    -0.00000002     0.00000008  0.32D-11  0.12D-11  6  6    13.56
  13      1.34342302    -1.00803011  -338.92385102    -0.00000003     0.00000010  0.43D-12  0.19D-12  6  2    14.65
  14      1.34342292    -1.00803012  -338.92385103    -0.00000001     0.00000003  0.87D-13  0.31D-13  6  1    15.74
  15      1.34342290    -1.00803012  -338.92385103    -0.00000000     0.00000000  0.13D-13  0.77D-14  6  4    16.81
  16      1.34342289    -1.00803012  -338.92385103    -0.00000000    -0.00000000  0.34D-14  0.13D-14  6  3    17.90
  17      1.34342289    -1.00803012  -338.92385103    -0.00000000    -0.00000000  0.84D-15  0.19D-15  6  5    19.00
  18      1.34342289    -1.00803012  -338.92385103    -0.00000000     0.00000000  0.62D-16  0.58D-16  6  6    20.08
  19      1.34342289    -1.00803012  -338.92385103    -0.00000000     0.00000000  0.28D-16  0.55D-17  6  4    21.16
  20      1.34342289    -1.00803012  -338.92385103    -0.00000000     0.00000000  0.16D-17  0.88D-18  6  2    22.24
  21      1.34342289    -1.00803012  -338.92385103    -0.00000000     0.00000000  0.36D-18  0.15D-18  6  1    23.34
  22      1.34342289    -1.00803012  -338.92385103     0.00000000    -0.00000000  0.85D-19  0.19D-19  6  3    24.43
  23      1.34342289    -1.00803012  -338.92385103     0.00000000    -0.00000000  0.13D-19  0.64D-20  6  5    25.52
  24      1.34342289    -1.00803012  -338.92385103     0.00000000    -0.00000000  0.22D-20  0.75D-21  6  6    26.60
  25      1.34342289    -1.00803012  -338.92385103     0.00000000     0.00000000  0.50D-21  0.18D-21  6  4    27.68
  26      1.34342289    -1.00803012  -338.92385103    -0.00000000     0.00000000  0.16D-21  0.34D-22  6  2    28.77

 Norm of t1 vector:      0.14926953      S-energy:     0.00000000      T1 diagnostic:  0.01759158
                                                                       D1 diagnostic:  0.06240212

 Singles amplitudes (print threshold =  0.500E-01):

         I         SYM. A    A   T(IA)

         7         1         2      0.05789644
        16         2         2      0.05883734


 Total CPU time for triples:     18.04 sec


 RESULTS
 =======

  Reference energy                   -337.915820915129
  CCSD singlet pair energy             -0.667942364155
  CCSD triplet pair energy             -0.340087754131
  CCSD correlation energy              -1.008030118286

  Triples (T) contribution             -0.032261941680
  Total correlation energy             -1.040292059966

  CCSD total energy                  -338.923851033415
  CCSD[T] energy                     -338.959117107360
  CCSD-T energy                      -338.955132023969
 !CCSD(T) total energy               -338.956112975096

 Timing summary (sec):

 STEP                 CPU(USER)    SYS     CPU(TOT)    WALL
 Transformation          0.58      0.06      0.64      0.64
 CCSD iterations        28.19      1.13     29.32     29.44
 Triples                18.04      0.41     18.45     18.44

 Program statistics:

 Available memory in ccsd:               999998604
 Min. memory needed in ccsd:               1741948
 Max. memory used in ccsd:                 2318344
 Max. memory used in cckext:               2485613 (26 integral passes)



 **********************************************************************************************************************************
 DATASETS  * FILE   NREC   LENGTH (MB)   RECORD NAMES
              1      20      119.05       500      610      700      900      950      970     1000      129      960     1100   
                                          VAR    BASINP    GEOM    SYMINP    ZMAT    AOBASIS   BASIS     P2S    ABASIS      S 
                                         1400     1410     1200     1210     1080     1600     1650     1300     1700     1380   
                                           T        V       H0       H01     AOSYM     SMH    MOLCAS    ERIS     OPER     JKOP   

              2       3        0.59       700     1000     2100   
                                         GEOM     BASIS     RHF  

 PROGRAMS   *        TOTAL   CCSD(T)       RHF       INT
 CPU TIMES  *        50.21     46.82      1.51      1.84
 REAL TIME  *        52.57 SEC
 DISK USED  *       322.81 MB      
 GA USED    *         0.00 MB       (max)       0.00 MB       (current)
 **********************************************************************************************************************************

        CCSD(T)         RHF-SCF 
   -338.95611298   -337.91582092
 **********************************************************************************************************************************
 Variable memory released
