
 Primary working directories    : /tmp/1065196.1459.gen4.q
 Secondary working directories  : /tmp/1065196.1459.gen4.q
 Wavefunction directory         : /home/vulcan/jj04645/wfu/
 Main file repository           : /tmp/1065196.1459.gen4.q/

 ARCHNAME  : Linux/x86_64
 FC        : /opt/intel/compilers_and_libraries_2016.1.150/linux/bin/intel64/ifort
 FCVERSION : 16.0.1
 BLASLIB   : -mkl
 id        : ccgc

 Nodes     nprocs
 n056         1
 ga_uses_ma=false, calling ma_init with nominal heap.
 GA-space will be limited to   8.0 MW (determined by -G option)

 Using customized tuning parameters: mindgm=10; mindgv=16; mindgc=4; mindgr=1; noblas=0; mincuda=1000; minvec=7
 default implementation of scratch files=df  

 ***,Optimization of t-butanol
 memory,1000,m
 gthresh,energy=1.0d-12,orbital=1.0d-10,oneint=1.0d-16,twoint=1.0d-16,optgrad=1.0d-6,compress=1.0d-13
 geomtyp=xyz
 
 bohr
 geometry = {
  C    0.0039924976   -0.0570929064    0.0001509638
  O   -0.0229249439    2.6556755323   -0.0015144385
  C   -2.7687718067   -0.8316555147    0.0006518219
  C    1.3354610790   -1.0181865930   -2.3766275926
  C    1.3355044193   -1.0152671865    2.3780836827
  H    1.7097459036    3.2099549229   -0.0018705614
  H   -2.9471383633   -2.8877047762    0.0019158680
  H   -3.7116062302   -0.0823277978   -1.6739166891
  H   -3.7115757143   -0.0802719697    1.6743160761
  H    1.3153857344   -3.0817965111   -2.4551511527
  H    3.3069203399   -0.3932009918   -2.3927692224
  H    0.4134311273   -0.2732275309   -4.0646497245
  H    1.3154202769   -3.0787769850    2.4591934909
  H    3.3106569660   -0.4019017270    2.3867093809
  H    0.4051112759   -0.2793387641    4.0654780969
 }
 
 basis=VDZ
 {rhf;maxit,200}
 {ccsd(t);maxit,200}

 Variables initialized (661), CPU time= 0.00 sec
 Commands  initialized (458), CPU time= 0.00 sec, 486 directives.
 Default parameters read. Elapsed time= 0.04 sec

 Checking input...
 Passed
1


                                         ***  PROGRAM SYSTEM MOLPRO  ***
                         Copyright, University College Cardiff Consultants Limited, 2008

                                    Version 2010.1 linked May 16 2016 07:17:05


 **********************************************************************************************************************************
 LABEL *   Optimization of t-butanol                                                     
 Linux-4.4.3/n056(x86_64) 64 bit mpp version                                             DATE: 20-May-24          TIME: 16:57:05  
 **********************************************************************************************************************************

 SHA1:             9e8077add272b0f3cad6f7df79ec5211205f459d
 **********************************************************************************************************************************

 THRESHOLDS:

 ZERO    =  1.00D-12  ONEINT  =  1.00D-16  TWOINT  =  1.00D-16  PREFAC  =  1.00D-14  LOCALI  =  1.00D-09  EORDER  =  1.00D-04
 ENERGY  =  1.00D-12  ETEST   =  0.00D+00  EDENS   =  0.00D+00  THRDEDEF=  1.00D-06  GRADIENT=  1.00D-02  STEP    =  1.00D-03
 ORBITAL =  1.00D-10  CIVEC   =  1.00D-05  COEFF   =  1.00D-04  PRINTCI =  5.00D-02  PUNCHCI =  9.90D+01  OPTGRAD =  1.00D-06
 OPTENERG=  1.00D-06  OPTSTEP =  3.00D-04  THRGRAD =  1.00D-10  COMPRESS=  1.00D-13  VARMIN  =  1.00D-07  VARMAX  =  1.00D-03
 THRDOUB =  0.00D+00  THRDIV  =  1.00D-05  THRRED  =  1.00D-07  THRPSP  =  1.00D+00  THRDC   =  1.00D-10  THRCS   =  1.00D-10
 THRNRM  =  1.00D-08  THREQ   =  0.00D+00  THRDE   =  1.00D+00  THRREF  =  1.00D-05  SPARFAC =  1.00D+00  THRDLP  =  1.00D-07
 THRDIA  =  1.00D-10  THRDLS  =  1.00D-07  THRGPS  =  0.00D+00  THRKEX  =  0.00D+00  THRDIS  =  2.00D-01  THRVAR  =  1.00D-10
 THRLOC  =  1.00D-06  THRGAP  =  1.00D-06  THRLOCT = -1.00D+00  THRGAPT = -1.00D+00  THRORB  =  1.00D-06  THRMLTP =  0.00D+00
 THRCPQCI=  1.00D-10  KEXTA   =  0.00D+00  THRCOARS=  0.00D+00  SYMTOL  =  1.00D-06  GRADTOL =  1.00D-06  THROVL  =  1.00D-08
 THRORTH =  1.00D-08  GRID    =  1.00D-06  GRIDMAX =  1.00D-03  DTMAX   =  0.00D+00

 SETTING GEOMTYP        =    XYZ
 ZUNIT=BOHR
 

 Variable memory set to 1000000000 words,  buffer space   230000 words

 SETTING BASIS          =    VDZ


 Recomputing integrals since basis changed


 Using spherical harmonics

 Library entry C      S cc-pVDZ              selected for orbital group  1
 Library entry C      P cc-pVDZ              selected for orbital group  1
 Library entry C      D cc-pVDZ              selected for orbital group  1
 Library entry O      S cc-pVDZ              selected for orbital group  2
 Library entry O      P cc-pVDZ              selected for orbital group  2
 Library entry O      D cc-pVDZ              selected for orbital group  2
 Library entry H      S cc-pVDZ              selected for orbital group  4
 Library entry H      P cc-pVDZ              selected for orbital group  4

1PROGRAM * SEWARD (Integral evaluation for generally contracted gaussian basis sets)     Author: Roland Lindh, 1990

 Geometry written to block  1 of record 700


 Point group  C1  



 ATOMIC COORDINATES

 NR  ATOM    CHARGE       X              Y              Z

   1  C       6.00    0.003992498   -0.057092906    0.000150964
   2  O       8.00   -0.022924944    2.655675532   -0.001514439
   3  C       6.00   -2.768771807   -0.831655515    0.000651822
   4  C       6.00    1.335461079   -1.018186593   -2.376627593
   5  C       6.00    1.335504419   -1.015267187    2.378083683
   6  H       1.00    1.709745904    3.209954923   -0.001870561
   7  H       1.00   -2.947138363   -2.887704776    0.001915868
   8  H       1.00   -3.711606230   -0.082327798   -1.673916689
   9  H       1.00   -3.711575714   -0.080271970    1.674316076
  10  H       1.00    1.315385734   -3.081796511   -2.455151153
  11  H       1.00    3.306920340   -0.393200992   -2.392769222
  12  H       1.00    0.413431127   -0.273227531   -4.064649724
  13  H       1.00    1.315420277   -3.078776985    2.459193491
  14  H       1.00    3.310656966   -0.401901727    2.386709381
  15  H       1.00    0.405111276   -0.279338764    4.065478097

 Bond lengths in Bohr (Angstrom)

 1-2  2.712902491  1-3  2.878918091  1-4  2.888872784  1-5  2.888872784  2-6  1.819168501
     ( 1.435606168)     ( 1.523457840)     ( 1.528725637)     ( 1.528725637)     ( 0.962662510)

  3- 7  2.063771982   3- 8  2.062670229   3- 9  2.062670230   4-10  2.065200926   4-11  2.068216423
       ( 1.092101097)       ( 1.091518075)       ( 1.091518075)       ( 1.092857262)       ( 1.094452994)

  4-12  2.062649256   5-13  2.065200925   5-14  2.068216423   5-15  2.062649256
       ( 1.091506977)       ( 1.092857262)       ( 1.094452994)       ( 1.091506976)

 Bond angles

  1-2-6  107.17091859   1-3-7  110.56564859   1-3-8  110.02067673   1-3-9  110.02067682

  1- 4-10  111.05314981   1- 4-11  110.19528822   1- 4-12  110.31157637   1- 5-13  111.05425625

  1- 5-14  110.19639231   1- 5-15  110.31268058   2- 1- 3  105.03903603   2- 1- 4  109.67835923

  2-1-5  109.67835923   3-1-4  110.76498583   3-1-5  110.76498583   4-1-5  110.75948302

  7- 3- 8  108.83916946   7- 3- 9  108.83916955   8- 3- 9  108.51019466  10- 4-11  108.11481770

 10- 4-12  108.99139303  11- 4-12  108.09379915  13- 5-14  107.78512663  13- 5-15  108.66170220

 14- 5-15  108.75649573

 NUCLEAR CHARGE:                   42
 NUMBER OF PRIMITIVE AOS:         205
 NUMBER OF SYMMETRY AOS:          200
 NUMBER OF CONTRACTIONS:          120   ( 120A   )
 NUMBER OF CORE ORBITALS:           5   (   5A   )
 NUMBER OF VALENCE ORBITALS:       30   (  30A   )


 NUCLEAR REPULSION ENERGY  199.65097164


 Eigenvalues of metric

         1 0.260E-02 0.488E-02 0.491E-02 0.835E-02 0.169E-01 0.191E-01 0.192E-01 0.240E-01


 Contracted 2-electron integrals neglected if value below      1.0D-16
 AO integral compression algorithm  1   Integral accuracy      1.0D-16

     221.512 MB (compressed) written to integral file ( 96.8%)

     Node minimum: 221.512 MB, node maximum: 221.512 MB


 NUMBER OF SORTED TWO-ELECTRON INTEGRALS:   26357430.     BUFFER LENGTH:  32768
 NUMBER OF SEGMENTS:   2  SEGMENT LENGTH:   15997996      RECORD LENGTH: 524288

 Memory used in sort:      16.56 MW

 SORT1 READ    28587911. AND WROTE    26318596. INTEGRALS IN     76 RECORDS. CPU TIME:     0.28 SEC, REAL TIME:     0.42 SEC
 SORT2 READ    26318596. AND WROTE    26357430. INTEGRALS IN    845 RECORDS. CPU TIME:     0.21 SEC, REAL TIME:     0.33 SEC

 FILE SIZES:   FILE 1:   206.7 MBYTE,  FILE 4:   318.8 MBYTE,   TOTAL:    525.5 MBYTE

 OPERATOR DM      FOR CENTER  0  COORDINATES:    0.000000    0.000000    0.000000


 **********************************************************************************************************************************
 DATASETS  * FILE   NREC   LENGTH (MB)   RECORD NAMES
              1      19      206.91       500      610      700      900      950      970     1000      129      960     1100   
                                          VAR    BASINP    GEOM    SYMINP    ZMAT    AOBASIS   BASIS     P2S    ABASIS      S 
                                         1400     1410     1200     1210     1080     1600     1650     1300     1700   
                                           T        V       H0       H01     AOSYM     SMH    MOLCAS    ERIS     OPER   

 PROGRAMS   *        TOTAL       INT
 CPU TIMES  *         3.12      3.07
 REAL TIME  *         3.67 SEC
 DISK USED  *       748.01 MB      
 GA USED    *         0.01 MB       (max)       0.00 MB       (current)
 **********************************************************************************************************************************

1PROGRAM * RHF-SCF (CLOSED SHELL)       Authors: W. Meyer, H.-J. Werner


 NUMBER OF ELECTRONS:      21+   21-    SPACE SYMMETRY=1    SPIN SYMMETRY: Singlet 
 CONVERGENCE THRESHOLDS:    1.00E-10 (Density)    1.00E-13 (Energy)
 MAX. NUMBER OF ITERATIONS:      200
 INTERPOLATION TYPE:            DIIS
 INTERPOLATION STEPS:              2 (START)      1 (STEP)
 LEVEL SHIFTS:                  0.00 (CLOSED)  0.00 (OPEN) 



 Orbital guess generated from atomic densities. Full valence occupancy:   35

 Molecular orbital dump at record        2100.2

 ITERATION    DDIFF          GRAD             ENERGY        2-EL.EN.            DIPOLE MOMENTS         DIIS
    1      0.000D+00      0.000D+00      -232.08673080    561.119937    0.89285   -0.62563   -0.00042    0
    2      0.000D+00      0.616D-02      -232.16303060    555.892027    0.40890   -0.32480   -0.00013    1
    3      0.122D-01      0.265D-02      -232.17372996    557.892355    0.53082   -0.43084   -0.00017    2
    4      0.389D-02      0.733D-03      -232.17503056    557.664350    0.50379   -0.39467   -0.00018    3
    5      0.141D-02      0.192D-03      -232.17510766    557.601390    0.50300   -0.40688   -0.00016    4
    6      0.307D-03      0.357D-04      -232.17511071    557.621481    0.50241   -0.40522   -0.00016    5
    7      0.899D-04      0.658D-05      -232.17511085    557.615850    0.50234   -0.40538   -0.00016    6
    8      0.185D-04      0.211D-05      -232.17511086    557.617428    0.50235   -0.40548   -0.00016    7
    9      0.399D-05      0.680D-06      -232.17511086    557.617082    0.50232   -0.40549   -0.00016    7
   10      0.155D-05      0.190D-06      -232.17511086    557.617136    0.50232   -0.40551   -0.00016    7
   11      0.502D-06      0.390D-07      -232.17511086    557.617124    0.50232   -0.40551   -0.00016    7
   12      0.123D-06      0.121D-07      -232.17511086    557.617133    0.50232   -0.40551   -0.00016    7
   13      0.243D-07      0.519D-08      -232.17511086    557.617130    0.50232   -0.40551   -0.00016    7
   14      0.102D-07      0.171D-08      -232.17511086    557.617130    0.50232   -0.40551   -0.00016    8
   15      0.304D-08      0.444D-09      -232.17511086    557.617130    0.50232   -0.40551   -0.00016    8
   16      0.106D-08      0.110D-09      -232.17511086    557.617130    0.50232   -0.40551   -0.00016    7
   17      0.255D-09      0.304D-10      -232.17511086    557.617130    0.50232   -0.40551   -0.00016    7
   18      0.795D-10      0.854D-11      -232.17511086    557.617130    0.50232   -0.40551   -0.00016    8
   19      0.174D-10      0.228D-11      -232.17511086    557.617130    0.50232   -0.40551   -0.00016    8
   20      0.621D-11      0.711D-12      -232.17511086    557.617130    0.50232   -0.40551   -0.00016    0

 Final occupancy:  21

 !RHF STATE 1.1 Energy               -232.175110859742
 Nuclear energy                       199.65097164
 One-electron energy                 -710.63464754
 Two-electron energy                  278.80856505
 Virial quotient                       -1.00088998
 !RHF STATE 1.1 Dipole moment           0.50232167    -0.40551291    -0.00016235
 Dipole moment /Debye                   1.27669072    -1.03064350    -0.00041263

 Orbital energies:

         1.1          2.1          3.1          4.1          5.1          6.1          7.1          8.1          9.1         10.1
    -20.545139   -11.282092   -11.220547   -11.220526   -11.214303    -1.352186    -1.064284    -0.939932    -0.938198    -0.766714

        11.1         12.1         13.1         14.1         15.1         16.1         17.1         18.1         19.1         20.1
     -0.665583    -0.620911    -0.617930    -0.573531    -0.553959    -0.527757    -0.514619    -0.505385    -0.500329    -0.457798

        21.1         22.1         23.1
     -0.427036     0.166807     0.220161


 **********************************************************************************************************************************
 DATASETS  * FILE   NREC   LENGTH (MB)   RECORD NAMES
              1      19      206.91       500      610      700      900      950      970     1000      129      960     1100   
                                          VAR    BASINP    GEOM    SYMINP    ZMAT    AOBASIS   BASIS     P2S    ABASIS      S 
                                         1400     1410     1200     1210     1080     1600     1650     1300     1700   
                                           T        V       H0       H01     AOSYM     SMH    MOLCAS    ERIS     OPER   

              2       3        0.80       700     1000     2100   
                                         GEOM     BASIS     RHF  

 PROGRAMS   *        TOTAL       RHF       INT
 CPU TIMES  *         7.11      3.99      3.07
 REAL TIME  *         8.13 SEC
 DISK USED  *       748.01 MB      
 GA USED    *         0.01 MB       (max)       0.00 MB       (current)
 **********************************************************************************************************************************


1PROGRAM * CCSD (Closed-shell coupled cluster)     Authors: C. Hampel, H.-J. Werner, 1991, M. Deegan, P.J. Knowles, 1992


 Convergence thresholds:  THRVAR = 1.00D-08  THRDEN = 1.00D-12

 CCSD(T)     terms to be evaluated (factor= 1.000)


 Number of core orbitals:           5 (   5 )
 Number of closed-shell orbitals:  16 (  16 )
 Number of external orbitals:      99 (  99 )

 Molecular orbitals read from record     2100.2  Type=RHF/CANONICAL (state 1.1)

 Number of N-1 electron functions:              16
 Number of N-2 electron functions:             136
 Number of singly external CSFs:              1584
 Number of doubly external CSFs:           1255320
 Total number of CSFs:                     1256905

 Length of J-op  integral file:               0.00 MB
 Length of K-op  integral file:               1.03 MB
 Length of 3-ext integral record:             0.00 MB

 Memory could be reduced to 21.47 Mwords without degradation in triples

 Integral transformation finished. Total CPU:   1.40 sec, npass=  1  Memory used:  18.35 MW

 Reference energy:                   -232.17511086

 MP2 singlet pair energy:              -0.49759911
 MP2 triplet pair energy:              -0.27475412
 MP2 correlation energy:               -0.77235323
 MP2 total energy:                   -232.94746409

 SCS-MP2 correlation energy:           -0.76807705   (PS=  1.200000  PT=  0.333333)
 SCS-MP2 total energy:               -232.94318791

 ITER.      SQ.NORM     CORR.ENERGY   TOTAL ENERGY   ENERGY CHANGE        DEN1      VAR(S)    VAR(P)  DIIS     TIME
   1      1.27363593    -0.82955239  -233.00466325    -0.05719916    -0.03605937  0.25D-02  0.44D-02  1  1     5.33
   2      1.29482270    -0.83387329  -233.00898415    -0.00432090    -0.02220556  0.67D-04  0.42D-03  2  2     9.31
   3      1.29934953    -0.83408345  -233.00919431    -0.00021016    -0.00277729  0.25D-04  0.24D-04  3  3    13.31
   4      1.30061811    -0.83408931  -233.00920017    -0.00000585    -0.00060346  0.64D-06  0.21D-05  4  4    17.30
   5      1.30084988    -0.83409827  -233.00920913    -0.00000897    -0.00008114  0.19D-06  0.15D-06  5  5    21.30
   6      1.30089114    -0.83409501  -233.00920587     0.00000326    -0.00001322  0.26D-07  0.14D-07  6  6    25.31
   7      1.30089810    -0.83409379  -233.00920465     0.00000122    -0.00000072  0.39D-08  0.17D-08  6  1    29.31
   8      1.30090168    -0.83409380  -233.00920466    -0.00000001    -0.00000042  0.69D-09  0.22D-09  6  2    33.32
   9      1.30090226    -0.83409374  -233.00920460     0.00000006     0.00000057  0.64D-10  0.39D-10  6  4    37.33
  10      1.30090284    -0.83409372  -233.00920458     0.00000001    -0.00000001  0.51D-11  0.38D-11  6  3    41.34
  11      1.30090282    -0.83409373  -233.00920459    -0.00000000     0.00000005  0.79D-12  0.47D-12  6  5    45.37
  12      1.30090276    -0.83409373  -233.00920459    -0.00000000     0.00000003  0.14D-12  0.66D-13  6  6    49.37
  13      1.30090270    -0.83409373  -233.00920459    -0.00000000     0.00000003  0.11D-13  0.10D-13  6  2    53.37
  14      1.30090269    -0.83409373  -233.00920459    -0.00000000     0.00000001  0.17D-14  0.62D-15  6  1    57.38
  15      1.30090269    -0.83409373  -233.00920459    -0.00000000     0.00000000  0.22D-15  0.13D-15  6  4    61.39
  16      1.30090269    -0.83409373  -233.00920459     0.00000000    -0.00000000  0.35D-16  0.20D-16  6  3    65.39
  17      1.30090269    -0.83409373  -233.00920459     0.00000000    -0.00000000  0.34D-17  0.26D-17  6  5    69.38
  18      1.30090269    -0.83409373  -233.00920459    -0.00000000    -0.00000000  0.91D-18  0.35D-18  6  6    73.40
  19      1.30090269    -0.83409373  -233.00920459    -0.00000000    -0.00000000  0.22D-18  0.64D-19  6  2    77.39
  20      1.30090269    -0.83409373  -233.00920459    -0.00000000     0.00000000  0.34D-19  0.12D-19  6  1    81.39
  21      1.30090269    -0.83409373  -233.00920459    -0.00000000     0.00000000  0.43D-20  0.22D-20  6  4    85.40
  22      1.30090269    -0.83409373  -233.00920459     0.00000000    -0.00000000  0.75D-21  0.33D-21  6  3    89.39

 Norm of t1 vector:      0.06605128      S-energy:    -0.00000000      T1 diagnostic:  0.00825641
                                                                       D1 diagnostic:  0.02161255


 Total CPU time for triples:     60.43 sec


 RESULTS
 =======

  Reference energy                   -232.175110859743
  CCSD singlet pair energy             -0.581027911018
  CCSD triplet pair energy             -0.253065820284
  CCSD correlation energy              -0.834093731303

  Triples (T) contribution             -0.023261153389
  Total correlation energy             -0.857354884692

  CCSD total energy                  -233.009204591046
  CCSD[T] energy                     -233.033162638161
  CCSD-T energy                      -233.032129667193
 !CCSD(T) total energy               -233.032465744435

 Timing summary (sec):

 STEP                 CPU(USER)    SYS     CPU(TOT)    WALL
 Transformation          1.46      0.14      1.60      1.60
 CCSD iterations        87.93      1.92     89.85     89.94
 Triples                60.43      1.14     61.57     61.58

 Program statistics:

 Available memory in ccsd:               999998876
 Min. memory needed in ccsd:               3310297
 Max. memory used in ccsd:                 4412497
 Max. memory used in cckext:               4149679 (22 integral passes)



 **********************************************************************************************************************************
 DATASETS  * FILE   NREC   LENGTH (MB)   RECORD NAMES
              1      20      293.57       500      610      700      900      950      970     1000      129      960     1100   
                                          VAR    BASINP    GEOM    SYMINP    ZMAT    AOBASIS   BASIS     P2S    ABASIS      S 
                                         1400     1410     1200     1210     1080     1600     1650     1300     1700     1380   
                                           T        V       H0       H01     AOSYM     SMH    MOLCAS    ERIS     OPER     JKOP   

              2       3        0.80       700     1000     2100   
                                         GEOM     BASIS     RHF  

 PROGRAMS   *        TOTAL   CCSD(T)       RHF       INT
 CPU TIMES  *       156.95    149.83      3.99      3.07
 REAL TIME  *       161.30 SEC
 DISK USED  *       748.01 MB      
 GA USED    *         0.01 MB       (max)       0.00 MB       (current)
 **********************************************************************************************************************************

        CCSD(T)         RHF-SCF 
   -233.03246574   -232.17511086
 **********************************************************************************************************************************
 Variable memory released
