
 Primary working directories    : /tmp/999602.206.gen5.q
 Secondary working directories  : /tmp/999602.206.gen5.q
 Wavefunction directory         : /home/vulcan/jj04645/wfu/
 Main file repository           : /tmp/999602.206.gen5.q/

 ARCHNAME  : Linux/x86_64
 FC        : /opt/intel/compilers_and_libraries_2016.1.150/linux/bin/intel64/ifort
 FCVERSION : 16.0.1
 BLASLIB   : -mkl
 id        : ccgc

 Nodes     nprocs
 n073         1
 ga_uses_ma=false, calling ma_init with nominal heap.
 GA-space will be limited to   8.0 MW (determined by -G option)

 Using customized tuning parameters: mindgm=10; mindgv=16; mindgc=4; mindgr=1; noblas=0; mincuda=1000; minvec=7
 default implementation of scratch files=df  

 ***,Optimization of 1,3-difluorobenzene
 memory,1000,m
 gthresh,energy=1.0d-12,orbital=1.0d-10,oneint=1.0d-16,twoint=1.0d-16,optgrad=1.0d-6,compress=1.0d-13
 geomtyp=xyz
 
 bohr
 geometry = {
  F   -0.0000000000    4.4321122888   -1.7652900971
  C   -0.0000000000    2.2419792931   -0.4833611515
  C    0.0000000000   -2.2989559669    2.1407733263
  C   -0.0000000000   -0.0022612440   -1.8493071195
  C   -0.0000000000    2.3002013775    2.1478205797
  C   -0.0000000000   -0.0042423483    3.4448958026
  C    0.0000000000   -2.2388138295   -0.4803626078
  H   -0.0000000000   -0.0048141110   -3.8907015162
  H   -0.0000000000    4.0933791723    3.1255540047
  H   -0.0000000000    0.0059900038    5.4898880925
  F    0.0000000000   -4.4300255487   -1.7604468091
  H    0.0000000000   -4.0945490870    3.1140639311
 }
 
 basis=VDZ
 {rhf;maxit,200}
 {ccsd(t);maxit,200}

 Variables initialized (661), CPU time= 0.01 sec
 Commands  initialized (458), CPU time= 0.00 sec, 486 directives.
 Default parameters read. Elapsed time= 0.04 sec

 Checking input...
 Passed
1


                                         ***  PROGRAM SYSTEM MOLPRO  ***
                         Copyright, University College Cardiff Consultants Limited, 2008

                                    Version 2010.1 linked May 16 2016 07:17:05


 **********************************************************************************************************************************
 LABEL *   Optimization of 1,3-difluorobenzene                                           
 Linux-4.4.3/n073(x86_64) 64 bit mpp version                                             DATE: 07-Feb-24          TIME: 12:51:07  
 **********************************************************************************************************************************

 SHA1:             9e8077add272b0f3cad6f7df79ec5211205f459d
 **********************************************************************************************************************************

 THRESHOLDS:

 ZERO    =  1.00D-12  ONEINT  =  1.00D-16  TWOINT  =  1.00D-16  PREFAC  =  1.00D-14  LOCALI  =  1.00D-09  EORDER  =  1.00D-04
 ENERGY  =  1.00D-12  ETEST   =  0.00D+00  EDENS   =  0.00D+00  THRDEDEF=  1.00D-06  GRADIENT=  1.00D-02  STEP    =  1.00D-03
 ORBITAL =  1.00D-10  CIVEC   =  1.00D-05  COEFF   =  1.00D-04  PRINTCI =  5.00D-02  PUNCHCI =  9.90D+01  OPTGRAD =  1.00D-06
 OPTENERG=  1.00D-06  OPTSTEP =  3.00D-04  THRGRAD =  1.00D-10  COMPRESS=  1.00D-13  VARMIN  =  1.00D-07  VARMAX  =  1.00D-03
 THRDOUB =  0.00D+00  THRDIV  =  1.00D-05  THRRED  =  1.00D-07  THRPSP  =  1.00D+00  THRDC   =  1.00D-10  THRCS   =  1.00D-10
 THRNRM  =  1.00D-08  THREQ   =  0.00D+00  THRDE   =  1.00D+00  THRREF  =  1.00D-05  SPARFAC =  1.00D+00  THRDLP  =  1.00D-07
 THRDIA  =  1.00D-10  THRDLS  =  1.00D-07  THRGPS  =  0.00D+00  THRKEX  =  0.00D+00  THRDIS  =  2.00D-01  THRVAR  =  1.00D-10
 THRLOC  =  1.00D-06  THRGAP  =  1.00D-06  THRLOCT = -1.00D+00  THRGAPT = -1.00D+00  THRORB  =  1.00D-06  THRMLTP =  0.00D+00
 THRCPQCI=  1.00D-10  KEXTA   =  0.00D+00  THRCOARS=  0.00D+00  SYMTOL  =  1.00D-06  GRADTOL =  1.00D-06  THROVL  =  1.00D-08
 THRORTH =  1.00D-08  GRID    =  1.00D-06  GRIDMAX =  1.00D-03  DTMAX   =  0.00D+00

 SETTING GEOMTYP        =    XYZ
 ZUNIT=BOHR
 

 Variable memory set to 1000000000 words,  buffer space   230000 words

 SETTING BASIS          =    VDZ


 Recomputing integrals since basis changed


 Using spherical harmonics

 Library entry F      S cc-pVDZ              selected for orbital group  1
 Library entry F      P cc-pVDZ              selected for orbital group  1
 Library entry F      D cc-pVDZ              selected for orbital group  1
 Library entry C      S cc-pVDZ              selected for orbital group  2
 Library entry C      P cc-pVDZ              selected for orbital group  2
 Library entry C      D cc-pVDZ              selected for orbital group  2
 Library entry H      S cc-pVDZ              selected for orbital group  3
 Library entry H      P cc-pVDZ              selected for orbital group  3

1PROGRAM * SEWARD (Integral evaluation for generally contracted gaussian basis sets)     Author: Roland Lindh, 1990

 Geometry written to block  1 of record 700


 Point group  Cs  



 ATOMIC COORDINATES

 NR  ATOM    CHARGE       X              Y              Z

   1  F       9.00    0.000000000    4.432112289   -1.765290097
   2  C       6.00    0.000000000    2.241979293   -0.483361151
   3  C       6.00    0.000000000   -2.298955967    2.140773326
   4  C       6.00    0.000000000   -0.002261244   -1.849307119
   5  C       6.00    0.000000000    2.300201378    2.147820580
   6  C       6.00    0.000000000   -0.004242348    3.444895803
   7  C       6.00    0.000000000   -2.238813830   -0.480362608
   8  H       1.00    0.000000000   -0.004814111   -3.890701516
   9  H       1.00    0.000000000    4.093379172    3.125554005
  10  H       1.00    0.000000000    0.005990004    5.489888093
  11  F       9.00    0.000000000   -4.430025549   -1.760446809
  12  H       1.00    0.000000000   -4.094549087    3.114063931

 Bond lengths in Bohr (Angstrom)

 1-2  2.537720308  2-4  2.627246463  2-5  2.631825814  3-6  2.639402589  3-7  2.621825826
     ( 1.342903750)     ( 1.390278950)     ( 1.392702239)     ( 1.396711695)     ( 1.387410473)

  3-12  2.042412606   4- 7  2.622246469   4- 8  2.041395993   5- 6  2.644402583   5- 9  2.042412606
       ( 1.080798203)       ( 1.387633068)       ( 1.080260234)       ( 1.399357578)       ( 1.080798203)

  6-10  2.045017889   7-11  2.537720308
       ( 1.082176859)       ( 1.342903750)

 Bond angles

  1-2-4  118.33212332   1-2-5  119.07367917   2-4-7  117.20354009   2-4-8  121.39822995

  2- 5- 6  118.10572611   2- 5- 9  119.86912500   3- 6- 5  121.01639265   3- 6-10  119.89694602

  3- 7- 4  122.78430601   3- 7-11  118.97862492   4- 2- 5  122.59419751   4- 7-11  118.23706907

  5- 6-10  119.08666133   6- 3- 7  118.29583763   6- 3-12  121.93009313   6- 5- 9  122.02514889

  7- 3-12  119.77406924   7- 4- 8  121.39822996

 NUCLEAR CHARGE:                   58
 NUMBER OF PRIMITIVE AOS:         244
 NUMBER OF SYMMETRY AOS:          236
 NUMBER OF CONTRACTIONS:          132   (  96A'  +  36A"  )
 NUMBER OF CORE ORBITALS:           8   (   8A'  +   0A"  )
 NUMBER OF VALENCE ORBITALS:       36   (  28A'  +   8A"  )


 NUCLEAR REPULSION ENERGY  342.39449332


 Eigenvalues of metric

         1 0.394E-03 0.120E-02 0.169E-02 0.264E-02 0.306E-02 0.316E-02 0.125E-01 0.130E-01
         2 0.413E-01 0.907E-01 0.101E+00 0.162E+00 0.166E+00 0.185E+00 0.190E+00 0.214E+00


 Contracted 2-electron integrals neglected if value below      1.0D-16
 AO integral compression algorithm  1   Integral accuracy      1.0D-16

     155.976 MB (compressed) written to integral file ( 89.6%)

     Node minimum: 155.976 MB, node maximum: 155.976 MB


 NUMBER OF SORTED TWO-ELECTRON INTEGRALS:   20366295.     BUFFER LENGTH:  32768
 NUMBER OF SEGMENTS:   2  SEGMENT LENGTH:   15994311      RECORD LENGTH: 524288

 Memory used in sort:      16.55 MW

 SORT1 READ    21748386. AND WROTE    19840926. INTEGRALS IN     57 RECORDS. CPU TIME:     0.30 SEC, REAL TIME:     0.42 SEC
 SORT2 READ    19840926. AND WROTE    20366295. INTEGRALS IN    595 RECORDS. CPU TIME:     0.22 SEC, REAL TIME:     0.31 SEC

 FILE SIZES:   FILE 1:   148.2 MBYTE,  FILE 4:   239.1 MBYTE,   TOTAL:    387.3 MBYTE

 OPERATOR DM      FOR CENTER  0  COORDINATES:    0.000000    0.000000    0.000000


 **********************************************************************************************************************************
 DATASETS  * FILE   NREC   LENGTH (MB)   RECORD NAMES
              1      19      148.31       500      610      700      900      950      970     1000      129      960     1100   
                                          VAR    BASINP    GEOM    SYMINP    ZMAT    AOBASIS   BASIS     P2S    ABASIS      S 
                                         1400     1410     1200     1210     1080     1600     1650     1300     1700   
                                           T        V       H0       H01     AOSYM     SMH    MOLCAS    ERIS     OPER   

 PROGRAMS   *        TOTAL       INT
 CPU TIMES  *         4.55      4.51
 REAL TIME  *         5.10 SEC
 DISK USED  *       544.15 MB      
 GA USED    *         0.00 MB       (max)       0.00 MB       (current)
 **********************************************************************************************************************************

1PROGRAM * RHF-SCF (CLOSED SHELL)       Authors: W. Meyer, H.-J. Werner


 NUMBER OF ELECTRONS:      29+   29-
 CONVERGENCE THRESHOLDS:    1.00E-10 (Density)    1.00E-13 (Energy)
 MAX. NUMBER OF ITERATIONS:      200
 INTERPOLATION TYPE:            DIIS
 INTERPOLATION STEPS:              2 (START)      1 (STEP)
 LEVEL SHIFTS:                  0.00 (CLOSED)  0.00 (OPEN) 



 Orbital guess generated from atomic densities. Full valence occupancy:   36   8

 Molecular orbital dump at record        2100.2

 Initial alpha occupancy:  24   5
 Initial beta  occupancy:  24   5
 Wave function symmetry:    1

 ITERATION    DDIFF          GRAD             ENERGY        2-EL.EN.            DIPOLE MOMENTS         DIIS
    1      0.000D+00      0.000D+00      -428.34408010    993.126109    0.00000    0.01160    0.47961    0
    2      0.000D+00      0.778D-02      -428.41811906    992.660556    0.00000   -0.00448    0.92229    1
    3      0.159D-01      0.352D-02      -428.43188873    992.995448    0.00000    0.00377    0.62197    2
    4      0.505D-02      0.935D-03      -428.43344136    993.051891    0.00000    0.00115    0.73491    3
    5      0.189D-02      0.284D-03      -428.43357638    993.016583    0.00000    0.00187    0.70179    4
    6      0.478D-03      0.591D-04      -428.43358408    993.025906    0.00000    0.00180    0.70615    5
    7      0.126D-03      0.178D-04      -428.43358513    993.029187    0.00000    0.00183    0.70450    6
    8      0.427D-04      0.637D-05      -428.43358526    993.028551    0.00000    0.00181    0.70493    7
    9      0.142D-04      0.291D-05      -428.43358529    993.028934    0.00000    0.00182    0.70465    8
   10      0.770D-05      0.112D-05      -428.43358530    993.029498    0.00000    0.00182    0.70472    8
   11      0.348D-05      0.624D-06      -428.43358530    993.029409    0.00000    0.00182    0.70469    8
   12      0.213D-05      0.247D-06      -428.43358530    993.029506    0.00000    0.00182    0.70470    8
   13      0.121D-05      0.418D-07      -428.43358530    993.029532    0.00000    0.00182    0.70470    8
   14      0.136D-06      0.161D-07      -428.43358530    993.029527    0.00000    0.00182    0.70470    9
   15      0.539D-07      0.388D-08      -428.43358530    993.029527    0.00000    0.00182    0.70470    9
   16      0.113D-07      0.159D-08      -428.43358530    993.029527    0.00000    0.00182    0.70470    9
   17      0.453D-08      0.566D-09      -428.43358530    993.029527    0.00000    0.00182    0.70470    8
   18      0.151D-08      0.165D-09      -428.43358530    993.029527    0.00000    0.00182    0.70470    8
   19      0.360D-09      0.633D-10      -428.43358530    993.029527    0.00000    0.00182    0.70470    8
   20      0.131D-09      0.137D-10      -428.43358530    993.029527    0.00000    0.00182    0.70470    8
   21      0.352D-10      0.442D-11      -428.43358530    993.029527    0.00000    0.00182    0.70470    8
   22      0.104D-10      0.163D-11      -428.43358530    993.029527    0.00000    0.00182    0.70470    0

 Final occupancy:  24   5

 !RHF STATE 1.1 Energy               -428.433585301199
 Nuclear energy                       342.39449332
 One-electron energy                -1267.34284215
 Two-electron energy                  496.51476352
 Virial quotient                       -1.00059952
 !RHF STATE 1.1 Dipole moment           0.00000000     0.00181990     0.70469592
 Dipole moment /Debye                   0.00000000     0.00462542     1.79104105

 Orbital energies:

         1.1          2.1          3.1          4.1          5.1          6.1          7.1          8.1          9.1         10.1
    -26.321040   -26.320623   -11.349843   -11.348872   -11.273218   -11.258486   -11.256426   -11.255616    -1.639503    -1.638864

        11.1         12.1         13.1         14.1         15.1         16.1         17.1         18.1         19.1         20.1
     -1.178989    -1.046883    -1.036899    -0.875033    -0.865131    -0.774651    -0.740935    -0.702839    -0.685005    -0.668340

        21.1         22.1         23.1         24.1         25.1         26.1
     -0.622963    -0.586156    -0.555130    -0.532993     0.179961     0.221261

         1.2          2.2          3.2          4.2          5.2          6.2          7.2
     -0.703900    -0.695846    -0.513735    -0.360347    -0.348395     0.113764     0.131879


 **********************************************************************************************************************************
 DATASETS  * FILE   NREC   LENGTH (MB)   RECORD NAMES
              1      19      148.31       500      610      700      900      950      970     1000      129      960     1100   
                                          VAR    BASINP    GEOM    SYMINP    ZMAT    AOBASIS   BASIS     P2S    ABASIS      S 
                                         1400     1410     1200     1210     1080     1600     1650     1300     1700   
                                           T        V       H0       H01     AOSYM     SMH    MOLCAS    ERIS     OPER   

              2       3        0.68       700     1000     2100   
                                         GEOM     BASIS     RHF  

 PROGRAMS   *        TOTAL       RHF       INT
 CPU TIMES  *         7.37      2.82      4.51
 REAL TIME  *         8.32 SEC
 DISK USED  *       544.15 MB      
 GA USED    *         0.00 MB       (max)       0.00 MB       (current)
 **********************************************************************************************************************************


1PROGRAM * CCSD (Closed-shell coupled cluster)     Authors: C. Hampel, H.-J. Werner, 1991, M. Deegan, P.J. Knowles, 1992


 Convergence thresholds:  THRVAR = 1.00D-08  THRDEN = 1.00D-12

 CCSD(T)     terms to be evaluated (factor= 1.000)


 Number of core orbitals:           8 (   8   0 )
 Number of closed-shell orbitals:  21 (  16   5 )
 Number of external orbitals:     103 (  72  31 )

 Molecular orbitals read from record     2100.2  Type=RHF/CANONICAL (state 1.1)

 Number of N-1 electron functions:              21
 Number of N-2 electron functions:             231
 Number of singly external CSFs:              1307
 Number of doubly external CSFs:           1221574
 Total number of CSFs:                     1222882

 Length of J-op  integral file:               0.00 MB
 Length of K-op  integral file:               0.76 MB
 Length of 3-ext integral record:             0.00 MB

 Memory could be reduced to 16.61 Mwords without degradation in triples

 Integral transformation finished. Total CPU:   0.95 sec, npass=  1  Memory used:   9.88 MW

 Reference energy:                   -428.43358530

 MP2 singlet pair energy:              -0.67263073
 MP2 triplet pair energy:              -0.46572728
 MP2 correlation energy:               -1.13835801
 MP2 total energy:                   -429.57194331

 SCS-MP2 correlation energy:           -1.09694274   (PS=  1.200000  PT=  0.333333)
 SCS-MP2 total energy:               -429.53052804

 ITER.      SQ.NORM     CORR.ENERGY   TOTAL ENERGY   ENERGY CHANGE        DEN1      VAR(S)    VAR(P)  DIIS     TIME
   1      1.36210185    -1.16810394  -429.60168924    -0.02974593     0.00048719  0.67D-02  0.73D-02  1  1     3.98
   2      1.38856880    -1.17163716  -429.60522246    -0.00353322    -0.02699759  0.13D-03  0.11D-02  2  2     7.10
   3      1.39936145    -1.17223855  -429.60582385    -0.00060139    -0.00537917  0.86D-04  0.10D-03  3  3    10.24
   4      1.40339298    -1.17216424  -429.60574954     0.00007431    -0.00142423  0.48D-05  0.20D-04  4  4    13.36
   5      1.40523465    -1.17219471  -429.60578001    -0.00003047    -0.00045148  0.91D-06  0.22D-05  5  5    16.49
   6      1.40571097    -1.17220044  -429.60578575    -0.00000574    -0.00006809  0.12D-06  0.24D-06  6  6    19.61
   7      1.40579809    -1.17219543  -429.60578073     0.00000502     0.00000031  0.28D-07  0.22D-07  6  1    22.74
   8      1.40582308    -1.17219654  -429.60578184    -0.00000112    -0.00000756  0.61D-08  0.30D-08  6  2    25.87
   9      1.40582439    -1.17219720  -429.60578251    -0.00000066     0.00000229  0.18D-08  0.34D-09  6  3    29.02
  10      1.40582675    -1.17219697  -429.60578228     0.00000023    -0.00000121  0.38D-09  0.76D-10  6  4    32.15
  11      1.40582681    -1.17219721  -429.60578251    -0.00000024     0.00000032  0.46D-10  0.20D-10  6  5    35.28
  12      1.40582701    -1.17219719  -429.60578249     0.00000002    -0.00000007  0.11D-10  0.24D-11  6  6    38.42
  13      1.40582701    -1.17219721  -429.60578251    -0.00000002     0.00000005  0.57D-12  0.56D-12  6  1    41.54
  14      1.40582700    -1.17219722  -429.60578252    -0.00000001     0.00000002  0.15D-12  0.87D-13  6  2    44.68
  15      1.40582699    -1.17219722  -429.60578252     0.00000000     0.00000000  0.40D-13  0.14D-13  6  3    47.82
  16      1.40582699    -1.17219722  -429.60578252    -0.00000000     0.00000000  0.63D-14  0.42D-14  6  4    50.96
  17      1.40582700    -1.17219722  -429.60578252    -0.00000000    -0.00000000  0.16D-14  0.72D-15  6  5    54.10
  18      1.40582700    -1.17219722  -429.60578252    -0.00000000    -0.00000000  0.21D-15  0.11D-15  6  6    57.24
  19      1.40582700    -1.17219722  -429.60578252    -0.00000000    -0.00000000  0.31D-16  0.23D-16  6  1    60.40
  20      1.40582700    -1.17219722  -429.60578252     0.00000000    -0.00000000  0.13D-16  0.29D-17  6  2    63.53
  21      1.40582700    -1.17219722  -429.60578252    -0.00000000    -0.00000000  0.14D-17  0.67D-18  6  3    66.67
  22      1.40582700    -1.17219722  -429.60578252    -0.00000000    -0.00000000  0.44D-18  0.14D-18  6  4    69.81
  23      1.40582700    -1.17219722  -429.60578252     0.00000000    -0.00000000  0.88D-19  0.23D-19  6  5    72.95
  24      1.40582700    -1.17219722  -429.60578252    -0.00000000    -0.00000000  0.78D-20  0.50D-20  6  6    76.08
  25      1.40582700    -1.17219722  -429.60578252    -0.00000000     0.00000000  0.20D-20  0.12D-20  6  1    79.21

 Norm of t1 vector:      0.10828681      S-energy:     0.00000000      T1 diagnostic:  0.01181506
                                                                       D1 diagnostic:  0.03167074

 Doubles amplitudes (print threshold =  0.500E-01):

         I         J         SYM. A    SYM. B    A         B      T(IJ, AB)

        20        20         2         2         1         1     -0.08684115
        21        20         2         2         1         2      0.05131184
        21        21         2         2         2         2     -0.08401801


 Total CPU time for triples:     47.57 sec


 RESULTS
 =======

  Reference energy                   -428.433585301197
  CCSD singlet pair energy             -0.756711060552
  CCSD triplet pair energy             -0.415486159635
  CCSD correlation energy              -1.172197220186

  Triples (T) contribution             -0.043064740932
  Total correlation energy             -1.215261961118

  CCSD total energy                  -429.605782521383
  CCSD[T] energy                     -429.650846920861
  CCSD-T energy                      -429.648123002449
 !CCSD(T) total energy               -429.648847262315

 Timing summary (sec):

 STEP                 CPU(USER)    SYS     CPU(TOT)    WALL
 Transformation          1.00      0.15      1.15      1.15
 CCSD iterations        78.22      2.15     80.37     80.42
 Triples                47.57      1.28     48.85     48.86

 Program statistics:

 Available memory in ccsd:               999998136
 Min. memory needed in ccsd:               3240252
 Max. memory used in ccsd:                 4334402
 Max. memory used in cckext:               4782293 (25 integral passes)



 **********************************************************************************************************************************
 DATASETS  * FILE   NREC   LENGTH (MB)   RECORD NAMES
              1      20      222.56       500      610      700      900      950      970     1000      129      960     1100   
                                          VAR    BASINP    GEOM    SYMINP    ZMAT    AOBASIS   BASIS     P2S    ABASIS      S 
                                         1400     1410     1200     1210     1080     1600     1650     1300     1700     1380   
                                           T        V       H0       H01     AOSYM     SMH    MOLCAS    ERIS     OPER     JKOP   

              2       3        0.68       700     1000     2100   
                                         GEOM     BASIS     RHF  

 PROGRAMS   *        TOTAL   CCSD(T)       RHF       INT
 CPU TIMES  *       134.18    126.81      2.82      4.51
 REAL TIME  *       138.80 SEC
 DISK USED  *       591.54 MB      
 GA USED    *         0.00 MB       (max)       0.00 MB       (current)
 **********************************************************************************************************************************

        CCSD(T)         RHF-SCF 
   -429.64884726   -428.43358530
 **********************************************************************************************************************************
 Variable memory released
