
    -----------------------------------------------------------------------
          Psi4: An Open-Source Ab Initio Electronic Structure Package
                               Psi4 1.4a2.dev629 

                         Git: Rev {master} 2938fc2 dirty


    D. G. A. Smith, L. A. Burns, A. C. Simmonett, R. M. Parrish,
    M. C. Schieber, R. Galvelis, P. Kraus, H. Kruse, R. Di Remigio,
    A. Alenaizan, A. M. James, S. Lehtola, J. P. Misiewicz, M. Scheurer,
    R. A. Shaw, J. B. Schriber, Y. Xie, Z. L. Glick, D. A. Sirianni,
    J. S. O'Brien, J. M. Waldrop, A. Kumar, E. G. Hohenstein,
    B. P. Pritchard, B. R. Brooks, H. F. Schaefer III, A. Yu. Sokolov,
    K. Patkowski, A. E. DePrince III, U. Bozkaya, R. A. King,
    F. A. Evangelista, J. M. Turney, T. D. Crawford, C. D. Sherrill,
    J. Chem. Phys. 152(18) 184108 (2020). https://doi.org/10.1063/5.0006002

                            Additional Code Authors
    E. T. Seidl, C. L. Janssen, E. F. Valeev, M. L. Leininger,
    J. F. Gonthier, R. M. Richard, H. R. McAlexander, M. Saitow, X. Wang,
    P. Verma, and M. H. Lechner

             Previous Authors, Complete List of Code Contributors,
                       and Citations for Specific Modules
    https://github.com/psi4/psi4/blob/master/codemeta.json
    https://github.com/psi4/psi4/graphs/contributors
    http://psicode.org/psi4manual/master/introduction.html#citing-psifour

    -----------------------------------------------------------------------


    Psi4 started on: Tuesday, 15 March 2022 10:13AM

    Process ID: 18529
    Host:       n046
    PSIDATADIR: /opt/psi/4/master/share/psi4
    Memory:     500.0 MiB
    Threads:    1
    
  ==> Input File <==

--------------------------------------------------------------------------
import os
memory 14 GB 
 
molecule {
 C   -1.3788113471    0.0215052773    0.0571597590
 O    1.2051001991   -0.1221676877   -0.0053578054
 H    1.8690508997    1.5675354986    0.1596756796
 H   -2.2804313368    1.7767639491   -0.4712750554
 H   -2.2952569700   -1.7552565752   -0.2882071325
units bohr
0 2
}

basis {

assign 6-31g_2dfp_

[ 6-31g_2dfp_ ]

spherical

!----------------------------------------------------------------------
! Basis Set Exchange
! Version v0.8.13
! https://www.basissetexchange.org
!----------------------------------------------------------------------
!   Basis set: 6-31G(2df,p)
! Description: 6-31G(2df,p)
!        Role: orbital
!     Version: 0  (Data from the original Basis Set Exchange)
!----------------------------------------------------------------------


****
H     0
S    3   1.00
     18.7311370              0.03349460
      2.8253937              0.23472695
      0.6401217              0.81375733
S    1   1.00
      0.1612778              1.00000000
P    1   1.00
      1.5000000              1.0000000
P    1   1.00
      0.3750000              1.0000000
****
B     0
S    6   1.00
   2068.8823000              0.0018663
    310.6495700              0.0142515
     70.6830330              0.0695516
     19.8610800              0.2325729
      6.2993048              0.4670787
      2.1270270              0.3634314
SP   3   1.00
      4.7279710             -0.1303938              0.0745976
      1.1903377             -0.1307889              0.3078467
      0.3594117              1.1309444              0.7434568
SP   1   1.00
      0.1267512              1.0000000              1.0000000
D    1   1.00
      0.8020000              1.0000000
D    1   1.00
      0.2005000              1.0000000
F    1   1.00
      0.5000000              1.0000000
****
C     0
S    6   1.00
   3047.5249000              0.0018347
    457.3695100              0.0140373
    103.9486900              0.0688426
     29.2101550              0.2321844
      9.2866630              0.4679413
      3.1639270              0.3623120
SP   3   1.00
      7.8682724             -0.1193324              0.0689991
      1.8812885             -0.1608542              0.3164240
      0.5442493              1.1434564              0.7443083
SP   1   1.00
      0.1687144              1.0000000              1.0000000
D    1   1.00
      1.2520000              1.0000000
D    1   1.00
      0.3130000              1.0000000
F    1   1.00
      0.8000000              1.0000000
****
N     0
S    6   1.00
   4173.5110000              0.0018348
    627.4579000              0.0139950
    142.9021000              0.0685870
     40.2343300              0.2322410
     12.8202100              0.4690700
      4.3904370              0.3604550
SP   3   1.00
     11.6263580             -0.1149610              0.0675800
      2.7162800             -0.1691180              0.3239070
      0.7722180              1.1458520              0.7408950
SP   1   1.00
      0.2120313              1.0000000              1.0000000
D    1   1.00
      1.8260000              1.0000000
D    1   1.00
      0.4565000              1.0000000
F    1   1.00
      1.0000000              1.0000000
****
O     0
S    6   1.00
   5484.6717000              0.0018311
    825.2349500              0.0139501
    188.0469600              0.0684451
     52.9645000              0.2327143
     16.8975700              0.4701930
      5.7996353              0.3585209
SP   3   1.00
     15.5396160             -0.1107775              0.0708743
      3.5999336             -0.1480263              0.3397528
      1.0137618              1.1307670              0.7271586
SP   1   1.00
      0.2700058              1.0000000              1.0000000
D    1   1.00
      2.5840000              1.0000000
D    1   1.00
      0.6460000              1.0000000
F    1   1.00
      1.4000000              1.0000000
****
F     0
S    6   1.00
   7001.7130900              0.0018196169
   1051.3660900              0.0139160796
    239.2856900              0.0684053245
     67.3974453              0.233185760
     21.5199573              0.471267439
      7.40310130             0.356618546
SP   3   1.00
     20.8479528             -0.108506975            0.0716287243
      4.80830834            -0.146451658            0.3459121030
      1.34406986             1.128688580            0.7224699570
SP   1   1.00
      0.358151393            1.0000000              1.0000000
D    1   1.00
      3.5000000              1.0000000
D    1   1.00
      0.8750000              1.0000000
F    1   1.00
      1.8500000              1.0000000
****
Al     0
S    6   1.00
  13983.1000000              0.00194267
   2098.7500000              0.0148599
    477.7050000              0.0728494
    134.3600000              0.2468300
     42.8709000              0.4872580
     14.5189000              0.3234960
SP   6   1.00
    239.6680000             -0.00292619             0.00460285
     57.4419000             -0.0374080              0.0331990
     18.2859000             -0.1144870              0.1362820
      6.5991400              0.1156350              0.3304760
      2.4904900              0.6125950              0.4491460
      0.9445400              0.3937990              0.2657040
SP   3   1.00
      1.2779000             -0.2276060             -0.0175130
      0.3975900              0.00144583             0.2445330
      0.1600950              1.0927900              0.8049340
SP   1   1.00
      0.0556577              1.0000000              1.0000000
D    1   1.00
      0.6500000              1.0000000
D    1   1.00
      0.1625000              1.0000000
F    1   1.00
      0.2500000              1.0000000
****
Si     0
S    6   1.00
  16115.9000000              0.00195948
   2425.5800000              0.01492880
    553.8670000              0.07284780
    156.3400000              0.24613000
     50.0683000              0.48591400
     17.0178000              0.32500200
SP   6   1.00
    292.7180000             -0.00278094             0.00443826
     69.8731000             -0.03571460             0.03266790
     22.3363000             -0.11498500             0.13472100
      8.1503900              0.09356340             0.32867800
      3.1345800              0.60301700             0.44964000
      1.2254300              0.41895900             0.26137200
SP   3   1.00
      1.7273800             -0.24463000            -0.01779510
      0.5729220              0.00431572             0.25353900
      0.2221920              1.09818000             0.80066900
SP   1   1.00
      0.0778369              1.00000000             1.00000000
D    1   1.00
      0.9000000              1.0000000
D    1   1.00
      0.2250000              1.0000000
F    1   1.00
      0.3200000              1.0000000
****
P     0
S    6   1.00
  19413.3000000              0.0018516
   2909.4200000              0.0142062
    661.3640000              0.0699995
    185.7590000              0.2400790
     59.1943000              0.4847620
     20.0310000              0.3352000
SP   6   1.00
    339.4780000             -0.00278217             0.00456462
     81.0101000             -0.0360499              0.03369360
     25.8780000             -0.1166310              0.13975500
      9.4522100              0.0968328              0.33936200
      3.6656600              0.6144180              0.45092100
      1.4674600              0.4037980              0.23858600
SP   3   1.00
      2.1562300             -0.2529230             -0.01776530
      0.7489970              0.0328517              0.27405800
      0.2831450              1.0812500              0.78542100
SP   1   1.00
      0.0998317              1.0000000              1.00000000
D    1   1.00
      1.1000000              1.0000000
D    1   1.00
      0.2750000              1.0000000
F    1   1.00
      0.4500000              1.0000000
****
S     0
S    6   1.00
  21917.1000000              0.0018690
   3301.4900000              0.0142300
    754.1460000              0.0696960
    212.7110000              0.2384870
     67.9896000              0.4833070
     23.0515000              0.3380740
SP   6   1.00
    423.7350000             -0.0023767              0.0040610
    100.7100000             -0.0316930              0.0306810
     32.1599000             -0.1133170              0.1304520
     11.8079000              0.0560900              0.3272050
      4.6311000              0.5922550              0.4528510
      1.8702500              0.4550060              0.2560420
SP   3   1.00
      2.6158400             -0.2503740             -0.0145110
      0.9221670              0.0669570              0.3102630
      0.3412870              1.0545100              0.7544830
SP   1   1.00
      0.1171670              1.0000000              1.0000000
D    1   1.00
      1.3000000              1.0000000
D    1   1.00
      0.3250000              1.0000000
F    1   1.00
      0.5500000              1.0000000
****
Cl     0
S    6   1.00
  25180.1000000              0.0018330
   3780.3500000              0.0140340
    860.4740000              0.0690970
    242.1450000              0.2374520
     77.3349000              0.4830340
     26.2470000              0.3398560
SP   6   1.00
    491.7650000             -0.0022974              0.0039894
    116.9840000             -0.0307140              0.0303180
     37.4153000             -0.1125280              0.1298800
     13.7834000              0.0450160              0.3279510
      5.4521500              0.5893530              0.4535270
      2.2258800              0.4652060              0.2521540
SP   3   1.00
      3.1864900             -0.2518300             -0.0142990
      1.1442700              0.0615890              0.3235720
      0.4203770              1.0601800              0.7435070
SP   1   1.00
      0.1426570              1.0000000              1.0000000
D    1   1.00
      1.5000000              1.0000000
D    1   1.00
      0.3750000              1.0000000
F    1   1.00
      0.7000000              1.0000000
****
}


set {
reference uhf                          
freeze_core true
e_convergence 10                       
d_convergence 10                      
dft_spherical_points 1202
dft_radial_points 99
}

e = energy('b3lyp')

print_out('Grab this energy {0}'.format(e))
--------------------------------------------------------------------------

  Memory set to  13.039 GiB by Python driver.

Scratch directory: /tmp/

*** tstart() called on n046
*** at Tue Mar 15 10:13:49 2022

   => Loading Basis Set <=

    Name: ANONYMOUSED0B6389
    Role: ORBITAL
    Keyword: BASIS
    atoms 1   entry C          line    48 inputblock 6-31g_2dfp_ 
    atoms 2   entry O          line    90 inputblock 6-31g_2dfp_ 
    atoms 3-5 entry H          line    15 inputblock 6-31g_2dfp_ 


         ---------------------------------------------------------
                                   SCF
               by Justin Turney, Rob Parrish, Andy Simmonett
                          and Daniel G. A. Smith
                              UKS Reference
                        1 Threads,  13351 MiB Core
         ---------------------------------------------------------

  ==> Geometry <==

    Molecular point group: c1
    Full point group: C1

    Geometry (in Bohr), charge = 0, multiplicity = 2:

       Center              X                  Y                   Z               Mass       
    ------------   -----------------  -----------------  -----------------  -----------------
         C           -1.378873300522     0.024552541297     0.057297759248    12.000000000000
         O            1.205038245678    -0.119120423703    -0.005219805152    15.994914619570
         H            1.868988946278     1.570582762597     0.159813679848     1.007825032230
         H           -2.280493290222     1.779811213097    -0.471137055152     1.007825032230
         H           -2.295318923422    -1.752209311203    -0.288069132252     1.007825032230

  Running in c1 symmetry.

  Rotational constants: A =      6.43008  B =      0.99525  C =      0.87072 [cm^-1]
  Rotational constants: A = 192768.83532  B =  29836.88175  C =  26103.57008 [MHz]
  Nuclear repulsion =   35.267924661236876

  Charge       = 0
  Multiplicity = 2
  Electrons    = 17
  Nalpha       = 9
  Nbeta        = 8

  ==> Algorithm <==

  SCF Algorithm Type is DF.
  DIIS enabled.
  MOM disabled.
  Fractional occupation disabled.
  Guess Type is SAD.
  Energy threshold   = 1.00e-10
  Density threshold  = 1.00e-10
  Integral threshold = 0.00e+00

  ==> Primary Basis <==

  Basis Set: ANONYMOUSED0B6389
    Blend: 6-31G_2DFP_
    Number of shells: 28
    Number of basis function: 76
    Number of Cartesian functions: 86
    Spherical Harmonics?: true
    Max angular momentum: 3

  ==> DFT Potential <==

   => Composite Functional: B3LYP <= 

    B3LYP Hyb-GGA Exchange-Correlation Functional

    P. J. Stephens, F. J. Devlin, C. F. Chabalowski, and M. J. Frisch, J. Phys. Chem. 98, 11623 (1994)

    Deriv               =              1
    GGA                 =           TRUE
    Meta                =          FALSE

    Exchange Hybrid     =           TRUE
    MP2 Hybrid          =          FALSE

   => Exchange Functionals <=

    0.0800   Slater exchange
    0.7200         Becke 88

   => Exact (HF) Exchange <=

    0.2000               HF 

   => Correlation Functionals <=

    0.1900   Vosko, Wilk & Nusair (VWN5_RPA)
    0.8100   Lee, Yang & Parr

   => Molecular Quadrature <=

    Radial Scheme          =       TREUTLER
    Pruning Scheme         =           NONE
    Nuclear Scheme         =       TREUTLER

    BS radius alpha        =              1
    Pruning alpha          =              1
    Radial Points          =             99
    Spherical Points       =           1202
    Total Points           =         566945
    Total Blocks           =           3944
    Max Points             =            256
    Max Functions          =             76
    Weights Tolerance      =       1.00E-15

   => Loading Basis Set <=

    Name: (ANONYMOUSED0B6389 AUX)
    Role: JKFIT
    Keyword: DF_BASIS_SCF
    atoms 1   entry C          line   198 file /opt/psi/4/master/share/psi4/basis/def2-universal-jkfit.gbs 
    atoms 2   entry O          line   318 file /opt/psi/4/master/share/psi4/basis/def2-universal-jkfit.gbs 
    atoms 3-5 entry H          line    18 file /opt/psi/4/master/share/psi4/basis/def2-universal-jkfit.gbs 

  ==> Integral Setup <==

  DFHelper Memory: AOs need 0.010 GiB; user supplied 8.654 GiB. Using in-core AOs.

  ==> MemDFJK: Density-Fitted J/K Matrices <==

    J tasked:                   Yes
    K tasked:                   Yes
    wK tasked:                   No
    OpenMP threads:               1
    Memory [MiB]:              8862
    Algorithm:                 Core
    Schwarz Cutoff:           1E-12
    Mask sparsity (%):       0.0000
    Fitting Condition:        1E-10

   => Auxiliary Basis Set <=

  Basis Set: (ANONYMOUSED0B6389 AUX)
    Blend: DEF2-UNIVERSAL-JKFIT
    Number of shells: 68
    Number of basis function: 206
    Number of Cartesian functions: 242
    Spherical Harmonics?: true
    Max angular momentum: 4

  Cached 100.0% of DFT collocation blocks in 1.124 [GiB].

  Minimum eigenvalue in the overlap matrix is 5.0230508378E-03.
  Reciprocal condition number of the overlap matrix is 1.0925867762E-03.
    Using symmetric orthogonalization.

  ==> Pre-Iterations <==

  SCF Guess: Superposition of Atomic Densities via on-the-fly atomic UHF (no occupation information).

   -------------------------
    Irrep   Nso     Nmo    
   -------------------------
     A         76      76 
   -------------------------
    Total      76      76
   -------------------------

  ==> Iterations <==

                           Total Energy        Delta E     RMS |[F,P]|

   @DF-UKS iter SAD:  -114.63369336840333   -1.14634e+02   0.00000e+00 
   @DF-UKS iter   1:  -114.94799798348552   -3.14305e-01   6.66070e-03 DIIS
   @DF-UKS iter   2:  -114.90011940983963    4.78786e-02   8.36052e-03 DIIS
   @DF-UKS iter   3:  -115.06152443821237   -1.61405e-01   1.32673e-03 DIIS
   @DF-UKS iter   4:  -115.06562404286733   -4.09960e-03   2.68934e-04 DIIS
   @DF-UKS iter   5:  -115.06582156735348   -1.97524e-04   5.61583e-05 DIIS
   @DF-UKS iter   6:  -115.06583158731942   -1.00200e-05   9.84651e-06 DIIS
   @DF-UKS iter   7:  -115.06583231633513   -7.29016e-07   3.16295e-06 DIIS
   @DF-UKS iter   8:  -115.06583236152935   -4.51942e-08   6.60917e-07 DIIS
   @DF-UKS iter   9:  -115.06583236336471   -1.83536e-09   1.63436e-07 DIIS
   @DF-UKS iter  10:  -115.06583236347980   -1.15094e-10   3.69195e-08 DIIS
   @DF-UKS iter  11:  -115.06583236348744   -7.64544e-12   9.38650e-09 DIIS
   @DF-UKS iter  12:  -115.06583236348798   -5.40012e-13   2.05456e-09 DIIS
   @DF-UKS iter  13:  -115.06583236348801   -2.84217e-14   5.22719e-10 DIIS
   @DF-UKS iter  14:  -115.06583236348798    2.84217e-14   1.73271e-10 DIIS
   @DF-UKS iter  15:  -115.06583236348798    0.00000e+00   5.65184e-11 DIIS
  Energy and wave function converged.


  ==> Post-Iterations <==

   @Spin Contamination Metric:   3.318445047E-03
   @S^2 Expected:                7.500000000E-01
   @S^2 Observed:                7.533184450E-01
   @S   Expected:                5.000000000E-01
   @S   Observed:                5.000000000E-01

    Orbital Energies [Eh]
    ---------------------

    Alpha Occupied:                                                       

       1A    -19.174818     2A    -10.215888     3A     -1.050349  
       4A     -0.665571     5A     -0.522521     6A     -0.444350  
       7A     -0.393284     8A     -0.351348     9A     -0.169968  

    Alpha Virtual:                                                        

      10A      0.065843    11A      0.124685    12A      0.176981  
      13A      0.228858    14A      0.447802    15A      0.476555  
      16A      0.497741    17A      0.515461    18A      0.532671  
      19A      0.572795    20A      0.636213    21A      0.662640  
      22A      0.704308    23A      0.742193    24A      0.804190  
      25A      0.854357    26A      0.931516    27A      0.964935  
      28A      0.997873    29A      1.112995    30A      1.153465  
      31A      1.206972    32A      1.293952    33A      1.371459  
      34A      1.431031    35A      1.477132    36A      1.571276  
      37A      1.725779    38A      1.787434    39A      1.860001  
      40A      1.903997    41A      2.134558    42A      2.319262  
      43A      2.643330    44A      2.880183    45A      3.002838  
      46A      3.025290    47A      3.067231    48A      3.112891  
      49A      3.194880    50A      3.209679    51A      3.305240  
      52A      3.338597    53A      3.370763    54A      3.609589  
      55A      3.652364    56A      3.807237    57A      3.954685  
      58A      4.043696    59A      4.125805    60A      4.192695  
      61A      4.280516    62A      4.556583    63A      5.021639  
      64A      5.073397    65A      5.201695    66A      5.344646  
      67A      5.505316    68A      5.531088    69A      5.683658  
      70A      5.942979    71A      6.402278    72A      6.903303  
      73A      6.983670    74A      7.061595    75A      7.316981  
      76A      7.445135  

    Beta Occupied:                                                        

       1A    -19.169428     2A    -10.202813     3A     -1.037939  
       4A     -0.639139     5A     -0.512421     6A     -0.435569  
       7A     -0.356361     8A     -0.336874  

    Beta Virtual:                                                         

       9A     -0.015151    10A      0.068615    11A      0.135664  
      12A      0.183407    13A      0.240101    14A      0.468673  
      15A      0.481560    16A      0.513071    17A      0.532512  
      18A      0.576727    19A      0.581204    20A      0.644294  
      21A      0.674571    22A      0.724322    23A      0.767476  
      24A      0.807013    25A      0.862819    26A      0.941976  
      27A      0.975246    28A      1.006256    29A      1.127945  
      30A      1.164099    31A      1.218931    32A      1.301633  
      33A      1.378519    34A      1.438137    35A      1.487122  
      36A      1.580502    37A      1.734437    38A      1.792103  
      39A      1.875982    40A      1.911094    41A      2.143924  
      42A      2.332271    43A      2.651727    44A      2.902679  
      45A      3.030843    46A      3.047315    47A      3.092855  
      48A      3.168462    49A      3.226164    50A      3.251815  
      51A      3.345495    52A      3.378556    53A      3.406779  
      54A      3.635776    55A      3.657383    56A      3.816586  
      57A      3.956591    58A      4.049550    59A      4.129683  
      60A      4.205155    61A      4.288393    62A      4.558637  
      63A      5.027555    64A      5.081664    65A      5.211624  
      66A      5.355916    67A      5.519198    68A      5.543770  
      69A      5.697776    70A      5.945867    71A      6.405941  
      72A      6.924030    73A      7.004340    74A      7.081978  
      75A      7.321264    76A      7.448460  

    Final Occupation by Irrep:
              A 
    DOCC [     8 ]
    SOCC [     1 ]

  @DF-UKS Final Energy:  -115.06583236348798

   => Energetics <=

    Nuclear Repulsion Energy =             35.2679246612368757
    One-Electron Energy =                -226.2000903881518070
    Two-Electron Energy =                  88.0973360797548963
    DFT Exchange-Correlation Energy =     -12.2310027163279322
    Empirical Dispersion Energy =           0.0000000000000000
    VV10 Nonlocal Energy =                  0.0000000000000000
    Total Energy =                       -115.0658323634879849

  UHF NO Occupations:
  HONO-2 :    7  A 1.9996045
  HONO-1 :    8  A 1.9990520
  HONO-0 :    9  A 1.0000000
  LUNO+0 :   10  A 0.0009480
  LUNO+1 :   11  A 0.0003955
  LUNO+2 :   12  A 0.0001970
  LUNO+3 :   13  A 0.0000863


Computation Completed


Properties will be evaluated at   0.000000,   0.000000,   0.000000 [a0]

Properties computed using the SCF density matrix

  Nuclear Dipole Moment: [e a0]
     X:    -1.3398      Y:     0.7925      Z:    -0.2974

  Electronic Dipole Moment: [e a0]
     X:     1.3305      Y:    -0.2410      Z:     0.2131

  Dipole Moment: [e a0]
     X:    -0.0093      Y:     0.5515      Z:    -0.0843     Total:     0.5580

  Dipole Moment: [D]
     X:    -0.0235      Y:     1.4019      Z:    -0.2141     Total:     1.4183


*** tstop() called on n046 at Tue Mar 15 10:14:21 2022
Module time:
	user time   =      32.19 seconds =       0.54 minutes
	system time =       0.35 seconds =       0.01 minutes
	total time  =         32 seconds =       0.53 minutes
Total time:
	user time   =      32.19 seconds =       0.54 minutes
	system time =       0.35 seconds =       0.01 minutes
	total time  =         32 seconds =       0.53 minutes
Grab this energy -115.06583236348798
    Psi4 stopped on: Tuesday, 15 March 2022 10:14AM
    Psi4 wall time for execution: 0:00:32.60

*** Psi4 exiting successfully. Buy a developer a beer!
