
    -----------------------------------------------------------------------
          Psi4: An Open-Source Ab Initio Electronic Structure Package
                               Psi4 1.4a2.dev629 

                         Git: Rev {master} 2938fc2 dirty


    D. G. A. Smith, L. A. Burns, A. C. Simmonett, R. M. Parrish,
    M. C. Schieber, R. Galvelis, P. Kraus, H. Kruse, R. Di Remigio,
    A. Alenaizan, A. M. James, S. Lehtola, J. P. Misiewicz, M. Scheurer,
    R. A. Shaw, J. B. Schriber, Y. Xie, Z. L. Glick, D. A. Sirianni,
    J. S. O'Brien, J. M. Waldrop, A. Kumar, E. G. Hohenstein,
    B. P. Pritchard, B. R. Brooks, H. F. Schaefer III, A. Yu. Sokolov,
    K. Patkowski, A. E. DePrince III, U. Bozkaya, R. A. King,
    F. A. Evangelista, J. M. Turney, T. D. Crawford, C. D. Sherrill,
    J. Chem. Phys. 152(18) 184108 (2020). https://doi.org/10.1063/5.0006002

                            Additional Code Authors
    E. T. Seidl, C. L. Janssen, E. F. Valeev, M. L. Leininger,
    J. F. Gonthier, R. M. Richard, H. R. McAlexander, M. Saitow, X. Wang,
    P. Verma, and M. H. Lechner

             Previous Authors, Complete List of Code Contributors,
                       and Citations for Specific Modules
    https://github.com/psi4/psi4/blob/master/codemeta.json
    https://github.com/psi4/psi4/graphs/contributors
    http://psicode.org/psi4manual/master/introduction.html#citing-psifour

    -----------------------------------------------------------------------


    Psi4 started on: Thursday, 04 November 2021 03:07PM

    Process ID: 17818
    Host:       n023
    PSIDATADIR: /opt/psi/4/master/share/psi4
    Memory:     500.0 MiB
    Threads:    1
    
  ==> Input File <==

--------------------------------------------------------------------------
import os
memory 14 GB 
 
molecule {
 C   -1.3774559031    0.0302777935    0.0780615093
 O    1.2041771893   -0.1237254281   -0.0254104298
 H    1.8802894837    1.5522564383    0.1394059172
 H   -2.2765156734    1.7986285216   -0.4196275250
 H   -2.3110400365   -1.7491040753   -0.2615074717
units bohr
0 2
}

basis {

assign 6-31g_2dfp_

[ 6-31g_2dfp_ ]

spherical

!----------------------------------------------------------------------
! Basis Set Exchange
! Version v0.8.13
! https://www.basissetexchange.org
!----------------------------------------------------------------------
!   Basis set: 6-31G(2df,p)
! Description: 6-31G(2df,p)
!        Role: orbital
!     Version: 0  (Data from the original Basis Set Exchange)
!----------------------------------------------------------------------


****
H     0
S    3   1.00
     18.7311370              0.03349460
      2.8253937              0.23472695
      0.6401217              0.81375733
S    1   1.00
      0.1612778              1.00000000
P    1   1.00
      1.5000000              1.0000000
P    1   1.00
      0.3750000              1.0000000
****
B     0
S    6   1.00
   2068.8823000              0.0018663
    310.6495700              0.0142515
     70.6830330              0.0695516
     19.8610800              0.2325729
      6.2993048              0.4670787
      2.1270270              0.3634314
SP   3   1.00
      4.7279710             -0.1303938              0.0745976
      1.1903377             -0.1307889              0.3078467
      0.3594117              1.1309444              0.7434568
SP   1   1.00
      0.1267512              1.0000000              1.0000000
D    1   1.00
      0.8020000              1.0000000
D    1   1.00
      0.2005000              1.0000000
F    1   1.00
      0.5000000              1.0000000
****
C     0
S    6   1.00
   3047.5249000              0.0018347
    457.3695100              0.0140373
    103.9486900              0.0688426
     29.2101550              0.2321844
      9.2866630              0.4679413
      3.1639270              0.3623120
SP   3   1.00
      7.8682724             -0.1193324              0.0689991
      1.8812885             -0.1608542              0.3164240
      0.5442493              1.1434564              0.7443083
SP   1   1.00
      0.1687144              1.0000000              1.0000000
D    1   1.00
      1.2520000              1.0000000
D    1   1.00
      0.3130000              1.0000000
F    1   1.00
      0.8000000              1.0000000
****
N     0
S    6   1.00
   4173.5110000              0.0018348
    627.4579000              0.0139950
    142.9021000              0.0685870
     40.2343300              0.2322410
     12.8202100              0.4690700
      4.3904370              0.3604550
SP   3   1.00
     11.6263580             -0.1149610              0.0675800
      2.7162800             -0.1691180              0.3239070
      0.7722180              1.1458520              0.7408950
SP   1   1.00
      0.2120313              1.0000000              1.0000000
D    1   1.00
      1.8260000              1.0000000
D    1   1.00
      0.4565000              1.0000000
F    1   1.00
      1.0000000              1.0000000
****
O     0
S    6   1.00
   5484.6717000              0.0018311
    825.2349500              0.0139501
    188.0469600              0.0684451
     52.9645000              0.2327143
     16.8975700              0.4701930
      5.7996353              0.3585209
SP   3   1.00
     15.5396160             -0.1107775              0.0708743
      3.5999336             -0.1480263              0.3397528
      1.0137618              1.1307670              0.7271586
SP   1   1.00
      0.2700058              1.0000000              1.0000000
D    1   1.00
      2.5840000              1.0000000
D    1   1.00
      0.6460000              1.0000000
F    1   1.00
      1.4000000              1.0000000
****
F     0
S    6   1.00
   7001.7130900              0.0018196169
   1051.3660900              0.0139160796
    239.2856900              0.0684053245
     67.3974453              0.233185760
     21.5199573              0.471267439
      7.40310130             0.356618546
SP   3   1.00
     20.8479528             -0.108506975            0.0716287243
      4.80830834            -0.146451658            0.3459121030
      1.34406986             1.128688580            0.7224699570
SP   1   1.00
      0.358151393            1.0000000              1.0000000
D    1   1.00
      3.5000000              1.0000000
D    1   1.00
      0.8750000              1.0000000
F    1   1.00
      1.8500000              1.0000000
****
Al     0
S    6   1.00
  13983.1000000              0.00194267
   2098.7500000              0.0148599
    477.7050000              0.0728494
    134.3600000              0.2468300
     42.8709000              0.4872580
     14.5189000              0.3234960
SP   6   1.00
    239.6680000             -0.00292619             0.00460285
     57.4419000             -0.0374080              0.0331990
     18.2859000             -0.1144870              0.1362820
      6.5991400              0.1156350              0.3304760
      2.4904900              0.6125950              0.4491460
      0.9445400              0.3937990              0.2657040
SP   3   1.00
      1.2779000             -0.2276060             -0.0175130
      0.3975900              0.00144583             0.2445330
      0.1600950              1.0927900              0.8049340
SP   1   1.00
      0.0556577              1.0000000              1.0000000
D    1   1.00
      0.6500000              1.0000000
D    1   1.00
      0.1625000              1.0000000
F    1   1.00
      0.2500000              1.0000000
****
Si     0
S    6   1.00
  16115.9000000              0.00195948
   2425.5800000              0.01492880
    553.8670000              0.07284780
    156.3400000              0.24613000
     50.0683000              0.48591400
     17.0178000              0.32500200
SP   6   1.00
    292.7180000             -0.00278094             0.00443826
     69.8731000             -0.03571460             0.03266790
     22.3363000             -0.11498500             0.13472100
      8.1503900              0.09356340             0.32867800
      3.1345800              0.60301700             0.44964000
      1.2254300              0.41895900             0.26137200
SP   3   1.00
      1.7273800             -0.24463000            -0.01779510
      0.5729220              0.00431572             0.25353900
      0.2221920              1.09818000             0.80066900
SP   1   1.00
      0.0778369              1.00000000             1.00000000
D    1   1.00
      0.9000000              1.0000000
D    1   1.00
      0.2250000              1.0000000
F    1   1.00
      0.3200000              1.0000000
****
P     0
S    6   1.00
  19413.3000000              0.0018516
   2909.4200000              0.0142062
    661.3640000              0.0699995
    185.7590000              0.2400790
     59.1943000              0.4847620
     20.0310000              0.3352000
SP   6   1.00
    339.4780000             -0.00278217             0.00456462
     81.0101000             -0.0360499              0.03369360
     25.8780000             -0.1166310              0.13975500
      9.4522100              0.0968328              0.33936200
      3.6656600              0.6144180              0.45092100
      1.4674600              0.4037980              0.23858600
SP   3   1.00
      2.1562300             -0.2529230             -0.01776530
      0.7489970              0.0328517              0.27405800
      0.2831450              1.0812500              0.78542100
SP   1   1.00
      0.0998317              1.0000000              1.00000000
D    1   1.00
      1.1000000              1.0000000
D    1   1.00
      0.2750000              1.0000000
F    1   1.00
      0.4500000              1.0000000
****
S     0
S    6   1.00
  21917.1000000              0.0018690
   3301.4900000              0.0142300
    754.1460000              0.0696960
    212.7110000              0.2384870
     67.9896000              0.4833070
     23.0515000              0.3380740
SP   6   1.00
    423.7350000             -0.0023767              0.0040610
    100.7100000             -0.0316930              0.0306810
     32.1599000             -0.1133170              0.1304520
     11.8079000              0.0560900              0.3272050
      4.6311000              0.5922550              0.4528510
      1.8702500              0.4550060              0.2560420
SP   3   1.00
      2.6158400             -0.2503740             -0.0145110
      0.9221670              0.0669570              0.3102630
      0.3412870              1.0545100              0.7544830
SP   1   1.00
      0.1171670              1.0000000              1.0000000
D    1   1.00
      1.3000000              1.0000000
D    1   1.00
      0.3250000              1.0000000
F    1   1.00
      0.5500000              1.0000000
****
Cl     0
S    6   1.00
  25180.1000000              0.0018330
   3780.3500000              0.0140340
    860.4740000              0.0690970
    242.1450000              0.2374520
     77.3349000              0.4830340
     26.2470000              0.3398560
SP   6   1.00
    491.7650000             -0.0022974              0.0039894
    116.9840000             -0.0307140              0.0303180
     37.4153000             -0.1125280              0.1298800
     13.7834000              0.0450160              0.3279510
      5.4521500              0.5893530              0.4535270
      2.2258800              0.4652060              0.2521540
SP   3   1.00
      3.1864900             -0.2518300             -0.0142990
      1.1442700              0.0615890              0.3235720
      0.4203770              1.0601800              0.7435070
SP   1   1.00
      0.1426570              1.0000000              1.0000000
D    1   1.00
      1.5000000              1.0000000
D    1   1.00
      0.3750000              1.0000000
F    1   1.00
      0.7000000              1.0000000
****
}


set {
reference uhf                          
freeze_core true
e_convergence 10                       
d_convergence 10                      
dft_spherical_points 1202
dft_radial_points 99
}

e = energy('b3lyp')

print_out('Grab this energy {0}'.format(e))
--------------------------------------------------------------------------

  Memory set to  13.039 GiB by Python driver.

Scratch directory: /tmp/

*** tstart() called on n023
*** at Thu Nov  4 15:07:33 2021

   => Loading Basis Set <=

    Name: ANONYMOUSC2E8005A
    Role: ORBITAL
    Keyword: BASIS
    atoms 1   entry C          line    48 inputblock 6-31g_2dfp_ 
    atoms 2   entry O          line    90 inputblock 6-31g_2dfp_ 
    atoms 3-5 entry H          line    15 inputblock 6-31g_2dfp_ 


         ---------------------------------------------------------
                                   SCF
               by Justin Turney, Rob Parrish, Andy Simmonett
                          and Daniel G. A. Smith
                              UKS Reference
                        1 Threads,  13351 MiB Core
         ---------------------------------------------------------

  ==> Geometry <==

    Molecular point group: c1
    Full point group: C1

    Geometry (in Bohr), charge = 0, multiplicity = 2:

       Center              X                  Y                   Z               Mass       
    ------------   -----------------  -----------------  -----------------  -----------------
         C           -1.377545843965     0.030320647597     0.078566618387    12.000000000000
         O            1.204087248435    -0.123682574003    -0.024905320713    15.994914619570
         H            1.880199542835     1.552299292397     0.139911026287     1.007825032230
         H           -2.276605614265     1.798671375697    -0.419122415913     1.007825032230
         H           -2.311129977365    -1.749061221203    -0.261002362613     1.007825032230

  Running in c1 symmetry.

  Rotational constants: A =      6.41976  B =      0.99536  C =      0.87046 [cm^-1]
  Rotational constants: A = 192459.51850  B =  29840.16401  C =  26095.61235 [MHz]
  Nuclear repulsion =   35.270129681048331

  Charge       = 0
  Multiplicity = 2
  Electrons    = 17
  Nalpha       = 9
  Nbeta        = 8

  ==> Algorithm <==

  SCF Algorithm Type is DF.
  DIIS enabled.
  MOM disabled.
  Fractional occupation disabled.
  Guess Type is SAD.
  Energy threshold   = 1.00e-10
  Density threshold  = 1.00e-10
  Integral threshold = 0.00e+00

  ==> Primary Basis <==

  Basis Set: ANONYMOUSC2E8005A
    Blend: 6-31G_2DFP_
    Number of shells: 28
    Number of basis function: 76
    Number of Cartesian functions: 86
    Spherical Harmonics?: true
    Max angular momentum: 3

  ==> DFT Potential <==

   => Composite Functional: B3LYP <= 

    B3LYP Hyb-GGA Exchange-Correlation Functional

    P. J. Stephens, F. J. Devlin, C. F. Chabalowski, and M. J. Frisch, J. Phys. Chem. 98, 11623 (1994)

    Deriv               =              1
    GGA                 =           TRUE
    Meta                =          FALSE

    Exchange Hybrid     =           TRUE
    MP2 Hybrid          =          FALSE

   => Exchange Functionals <=

    0.0800   Slater exchange
    0.7200         Becke 88

   => Exact (HF) Exchange <=

    0.2000               HF 

   => Correlation Functionals <=

    0.1900   Vosko, Wilk & Nusair (VWN5_RPA)
    0.8100   Lee, Yang & Parr

   => Molecular Quadrature <=

    Radial Scheme          =       TREUTLER
    Pruning Scheme         =           NONE
    Nuclear Scheme         =       TREUTLER

    BS radius alpha        =              1
    Pruning alpha          =              1
    Radial Points          =             99
    Spherical Points       =           1202
    Total Points           =         566942
    Total Blocks           =           3952
    Max Points             =            256
    Max Functions          =             76
    Weights Tolerance      =       1.00E-15

   => Loading Basis Set <=

    Name: (ANONYMOUSC2E8005A AUX)
    Role: JKFIT
    Keyword: DF_BASIS_SCF
    atoms 1   entry C          line   198 file /opt/psi/4/master/share/psi4/basis/def2-universal-jkfit.gbs 
    atoms 2   entry O          line   318 file /opt/psi/4/master/share/psi4/basis/def2-universal-jkfit.gbs 
    atoms 3-5 entry H          line    18 file /opt/psi/4/master/share/psi4/basis/def2-universal-jkfit.gbs 

  ==> Integral Setup <==

  DFHelper Memory: AOs need 0.010 GiB; user supplied 8.655 GiB. Using in-core AOs.

  ==> MemDFJK: Density-Fitted J/K Matrices <==

    J tasked:                   Yes
    K tasked:                   Yes
    wK tasked:                   No
    OpenMP threads:               1
    Memory [MiB]:              8862
    Algorithm:                 Core
    Schwarz Cutoff:           1E-12
    Mask sparsity (%):       0.0000
    Fitting Condition:        1E-10

   => Auxiliary Basis Set <=

  Basis Set: (ANONYMOUSC2E8005A AUX)
    Blend: DEF2-UNIVERSAL-JKFIT
    Number of shells: 68
    Number of basis function: 206
    Number of Cartesian functions: 242
    Spherical Harmonics?: true
    Max angular momentum: 4

  Cached 100.0% of DFT collocation blocks in 1.124 [GiB].

  Minimum eigenvalue in the overlap matrix is 5.0278866214E-03.
  Reciprocal condition number of the overlap matrix is 1.0943690176E-03.
    Using symmetric orthogonalization.

  ==> Pre-Iterations <==

  SCF Guess: Superposition of Atomic Densities via on-the-fly atomic UHF (no occupation information).

   -------------------------
    Irrep   Nso     Nmo    
   -------------------------
     A         76      76 
   -------------------------
    Total      76      76
   -------------------------

  ==> Iterations <==

                           Total Energy        Delta E     RMS |[F,P]|

   @DF-UKS iter SAD:  -114.63414907184593   -1.14634e+02   0.00000e+00 
   @DF-UKS iter   1:  -114.94817261002954   -3.14024e-01   6.66851e-03 DIIS
   @DF-UKS iter   2:  -114.89988450058388    4.82881e-02   8.37682e-03 DIIS
   @DF-UKS iter   3:  -115.06162740721419   -1.61743e-01   1.31817e-03 DIIS
   @DF-UKS iter   4:  -115.06568077113535   -4.05336e-03   2.68334e-04 DIIS
   @DF-UKS iter   5:  -115.06587776807680   -1.96997e-04   5.58475e-05 DIIS
   @DF-UKS iter   6:  -115.06588770309484   -9.93502e-06   9.81876e-06 DIIS
   @DF-UKS iter   7:  -115.06588843180189   -7.28707e-07   3.15247e-06 DIIS
   @DF-UKS iter   8:  -115.06588847712624   -4.53243e-08   6.62295e-07 DIIS
   @DF-UKS iter   9:  -115.06588847897467   -1.84843e-09   1.63578e-07 DIIS
   @DF-UKS iter  10:  -115.06588847908972   -1.15051e-10   3.69697e-08 DIIS
   @DF-UKS iter  11:  -115.06588847909727   -7.54596e-12   9.30898e-09 DIIS
   @DF-UKS iter  12:  -115.06588847909774   -4.68958e-13   2.00739e-09 DIIS
   @DF-UKS iter  13:  -115.06588847909788   -1.42109e-13   5.15184e-10 DIIS
   @DF-UKS iter  14:  -115.06588847909772    1.56319e-13   1.68246e-10 DIIS
   @DF-UKS iter  15:  -115.06588847909792   -1.98952e-13   5.67997e-11 DIIS
  Energy and wave function converged.


  ==> Post-Iterations <==

   @Spin Contamination Metric:   3.339658132E-03
   @S^2 Expected:                7.500000000E-01
   @S^2 Observed:                7.533396581E-01
   @S   Expected:                5.000000000E-01
   @S   Observed:                5.000000000E-01

    Orbital Energies [Eh]
    ---------------------

    Alpha Occupied:                                                       

       1A    -19.174388     2A    -10.216500     3A     -1.051107  
       4A     -0.665634     5A     -0.522750     6A     -0.444069  
       7A     -0.393349     8A     -0.351162     9A     -0.169809  

    Alpha Virtual:                                                        

      10A      0.066841    11A      0.123885    12A      0.176466  
      13A      0.229082    14A      0.447477    15A      0.476386  
      16A      0.497997    17A      0.515151    18A      0.532252  
      19A      0.573502    20A      0.635234    21A      0.663308  
      22A      0.704444    23A      0.742208    24A      0.804233  
      25A      0.854513    26A      0.930499    27A      0.964079  
      28A      0.997339    29A      1.112712    30A      1.150670  
      31A      1.207059    32A      1.294915    33A      1.370660  
      34A      1.432096    35A      1.476421    36A      1.571686  
      37A      1.726929    38A      1.783459    39A      1.858293  
      40A      1.903899    41A      2.134071    42A      2.319912  
      43A      2.647507    44A      2.879256    45A      3.001965  
      46A      3.026046    47A      3.066911    48A      3.113510  
      49A      3.195227    50A      3.209929    51A      3.305213  
      52A      3.339143    53A      3.370425    54A      3.610492  
      55A      3.653642    56A      3.804200    57A      3.955992  
      58A      4.040659    59A      4.127661    60A      4.185362  
      61A      4.284130    62A      4.553539    63A      5.013521  
      64A      5.067903    65A      5.198055    66A      5.343602  
      67A      5.511135    68A      5.530690    69A      5.685603  
      70A      5.949885    71A      6.400192    72A      6.904333  
      73A      6.983511    74A      7.061298    75A      7.317957  
      76A      7.446526  

    Beta Occupied:                                                        

       1A    -19.169006     2A    -10.203414     3A     -1.038719  
       4A     -0.639295     5A     -0.512534     6A     -0.435297  
       7A     -0.356266     8A     -0.336893  

    Beta Virtual:                                                         

       9A     -0.014998    10A      0.069637    11A      0.134943  
      12A      0.182907    13A      0.240304    14A      0.468384  
      15A      0.481443    16A      0.512938    17A      0.532332  
      18A      0.577108    19A      0.581260    20A      0.643180  
      21A      0.675291    22A      0.724409    23A      0.767570  
      24A      0.807035    25A      0.862949    26A      0.940846  
      27A      0.974401    28A      1.005827    29A      1.127845  
      30A      1.161183    31A      1.219202    32A      1.302627  
      33A      1.377621    34A      1.439071    35A      1.486329  
      36A      1.580877    37A      1.735561    38A      1.788035  
      39A      1.874356    40A      1.911010    41A      2.143293  
      42A      2.332842    43A      2.656004    44A      2.901659  
      45A      3.030241    46A      3.047818    47A      3.093313  
      48A      3.168874    49A      3.226702    50A      3.252184  
      51A      3.344632    52A      3.379123    53A      3.407062  
      54A      3.636754    55A      3.658615    56A      3.813461  
      57A      3.957852    58A      4.046364    59A      4.131772  
      60A      4.197749    61A      4.291640    62A      4.555527  
      63A      5.019064    64A      5.076339    65A      5.208034  
      66A      5.354866    67A      5.525171    68A      5.543403  
      69A      5.699544    70A      5.952736    71A      6.403822  
      72A      6.925029    73A      7.004159    74A      7.081658  
      75A      7.322253    76A      7.449829  

    Final Occupation by Irrep:
              A 
    DOCC [     8 ]
    SOCC [     1 ]

  @DF-UKS Final Energy:  -115.06588847909792

   => Energetics <=

    Nuclear Repulsion Energy =             35.2701296810483313
    One-Electron Energy =                -226.2031719472668101
    Two-Electron Energy =                  88.0980229809725586
    DFT Exchange-Correlation Energy =     -12.2308691938519996
    Empirical Dispersion Energy =           0.0000000000000000
    VV10 Nonlocal Energy =                  0.0000000000000000
    Total Energy =                       -115.0658884790979215

  UHF NO Occupations:
  HONO-2 :    7  A 1.9996036
  HONO-1 :    8  A 1.9990439
  HONO-0 :    9  A 1.0000000
  LUNO+0 :   10  A 0.0009561
  LUNO+1 :   11  A 0.0003964
  LUNO+2 :   12  A 0.0001988
  LUNO+3 :   13  A 0.0000864


Computation Completed


Properties will be evaluated at   0.000000,   0.000000,   0.000000 [a0]

Properties computed using the SCF density matrix

  Nuclear Dipole Moment: [e a0]
     X:    -1.3401      Y:     0.7944      Z:    -0.2681

  Electronic Dipole Moment: [e a0]
     X:     1.3331      Y:    -0.2436      Z:     0.1888

  Dipole Moment: [e a0]
     X:    -0.0070      Y:     0.5508      Z:    -0.0792     Total:     0.5565

  Dipole Moment: [D]
     X:    -0.0179      Y:     1.4000      Z:    -0.2014     Total:     1.4145


*** tstop() called on n023 at Thu Nov  4 15:08:11 2021
Module time:
	user time   =      38.11 seconds =       0.64 minutes
	system time =       0.30 seconds =       0.01 minutes
	total time  =         38 seconds =       0.63 minutes
Total time:
	user time   =      38.11 seconds =       0.64 minutes
	system time =       0.30 seconds =       0.01 minutes
	total time  =         38 seconds =       0.63 minutes
Grab this energy -115.06588847909792
    Psi4 stopped on: Thursday, 04 November 2021 03:08PM
    Psi4 wall time for execution: 0:00:38.45

*** Psi4 exiting successfully. Buy a developer a beer!
