
    -----------------------------------------------------------------------
          Psi4: An Open-Source Ab Initio Electronic Structure Package
                               Psi4 1.4a2.dev629 

                         Git: Rev {master} 2938fc2 dirty


    D. G. A. Smith, L. A. Burns, A. C. Simmonett, R. M. Parrish,
    M. C. Schieber, R. Galvelis, P. Kraus, H. Kruse, R. Di Remigio,
    A. Alenaizan, A. M. James, S. Lehtola, J. P. Misiewicz, M. Scheurer,
    R. A. Shaw, J. B. Schriber, Y. Xie, Z. L. Glick, D. A. Sirianni,
    J. S. O'Brien, J. M. Waldrop, A. Kumar, E. G. Hohenstein,
    B. P. Pritchard, B. R. Brooks, H. F. Schaefer III, A. Yu. Sokolov,
    K. Patkowski, A. E. DePrince III, U. Bozkaya, R. A. King,
    F. A. Evangelista, J. M. Turney, T. D. Crawford, C. D. Sherrill,
    J. Chem. Phys. 152(18) 184108 (2020). https://doi.org/10.1063/5.0006002

                            Additional Code Authors
    E. T. Seidl, C. L. Janssen, E. F. Valeev, M. L. Leininger,
    J. F. Gonthier, R. M. Richard, H. R. McAlexander, M. Saitow, X. Wang,
    P. Verma, and M. H. Lechner

             Previous Authors, Complete List of Code Contributors,
                       and Citations for Specific Modules
    https://github.com/psi4/psi4/blob/master/codemeta.json
    https://github.com/psi4/psi4/graphs/contributors
    http://psicode.org/psi4manual/master/introduction.html#citing-psifour

    -----------------------------------------------------------------------


    Psi4 started on: Thursday, 04 November 2021 03:07PM

    Process ID: 12303
    Host:       n061
    PSIDATADIR: /opt/psi/4/master/share/psi4
    Memory:     500.0 MiB
    Threads:    1
    
  ==> Input File <==

--------------------------------------------------------------------------
import os
memory 14 GB 
 
molecule {
 C   -1.3807812266    0.0340178387    0.0826428470
 O    1.2057255295   -0.1252818611   -0.0276852365
 H    1.8799634346    1.5526725528    0.1400450760
 H   -2.2753360921    1.7970019397   -0.4211005188
 H   -2.3101165855   -1.7500772201   -0.2629801678
units bohr
0 2
}

basis {

assign 6-31g_2dfp_

[ 6-31g_2dfp_ ]

spherical

!----------------------------------------------------------------------
! Basis Set Exchange
! Version v0.8.13
! https://www.basissetexchange.org
!----------------------------------------------------------------------
!   Basis set: 6-31G(2df,p)
! Description: 6-31G(2df,p)
!        Role: orbital
!     Version: 0  (Data from the original Basis Set Exchange)
!----------------------------------------------------------------------


****
H     0
S    3   1.00
     18.7311370              0.03349460
      2.8253937              0.23472695
      0.6401217              0.81375733
S    1   1.00
      0.1612778              1.00000000
P    1   1.00
      1.5000000              1.0000000
P    1   1.00
      0.3750000              1.0000000
****
B     0
S    6   1.00
   2068.8823000              0.0018663
    310.6495700              0.0142515
     70.6830330              0.0695516
     19.8610800              0.2325729
      6.2993048              0.4670787
      2.1270270              0.3634314
SP   3   1.00
      4.7279710             -0.1303938              0.0745976
      1.1903377             -0.1307889              0.3078467
      0.3594117              1.1309444              0.7434568
SP   1   1.00
      0.1267512              1.0000000              1.0000000
D    1   1.00
      0.8020000              1.0000000
D    1   1.00
      0.2005000              1.0000000
F    1   1.00
      0.5000000              1.0000000
****
C     0
S    6   1.00
   3047.5249000              0.0018347
    457.3695100              0.0140373
    103.9486900              0.0688426
     29.2101550              0.2321844
      9.2866630              0.4679413
      3.1639270              0.3623120
SP   3   1.00
      7.8682724             -0.1193324              0.0689991
      1.8812885             -0.1608542              0.3164240
      0.5442493              1.1434564              0.7443083
SP   1   1.00
      0.1687144              1.0000000              1.0000000
D    1   1.00
      1.2520000              1.0000000
D    1   1.00
      0.3130000              1.0000000
F    1   1.00
      0.8000000              1.0000000
****
N     0
S    6   1.00
   4173.5110000              0.0018348
    627.4579000              0.0139950
    142.9021000              0.0685870
     40.2343300              0.2322410
     12.8202100              0.4690700
      4.3904370              0.3604550
SP   3   1.00
     11.6263580             -0.1149610              0.0675800
      2.7162800             -0.1691180              0.3239070
      0.7722180              1.1458520              0.7408950
SP   1   1.00
      0.2120313              1.0000000              1.0000000
D    1   1.00
      1.8260000              1.0000000
D    1   1.00
      0.4565000              1.0000000
F    1   1.00
      1.0000000              1.0000000
****
O     0
S    6   1.00
   5484.6717000              0.0018311
    825.2349500              0.0139501
    188.0469600              0.0684451
     52.9645000              0.2327143
     16.8975700              0.4701930
      5.7996353              0.3585209
SP   3   1.00
     15.5396160             -0.1107775              0.0708743
      3.5999336             -0.1480263              0.3397528
      1.0137618              1.1307670              0.7271586
SP   1   1.00
      0.2700058              1.0000000              1.0000000
D    1   1.00
      2.5840000              1.0000000
D    1   1.00
      0.6460000              1.0000000
F    1   1.00
      1.4000000              1.0000000
****
F     0
S    6   1.00
   7001.7130900              0.0018196169
   1051.3660900              0.0139160796
    239.2856900              0.0684053245
     67.3974453              0.233185760
     21.5199573              0.471267439
      7.40310130             0.356618546
SP   3   1.00
     20.8479528             -0.108506975            0.0716287243
      4.80830834            -0.146451658            0.3459121030
      1.34406986             1.128688580            0.7224699570
SP   1   1.00
      0.358151393            1.0000000              1.0000000
D    1   1.00
      3.5000000              1.0000000
D    1   1.00
      0.8750000              1.0000000
F    1   1.00
      1.8500000              1.0000000
****
Al     0
S    6   1.00
  13983.1000000              0.00194267
   2098.7500000              0.0148599
    477.7050000              0.0728494
    134.3600000              0.2468300
     42.8709000              0.4872580
     14.5189000              0.3234960
SP   6   1.00
    239.6680000             -0.00292619             0.00460285
     57.4419000             -0.0374080              0.0331990
     18.2859000             -0.1144870              0.1362820
      6.5991400              0.1156350              0.3304760
      2.4904900              0.6125950              0.4491460
      0.9445400              0.3937990              0.2657040
SP   3   1.00
      1.2779000             -0.2276060             -0.0175130
      0.3975900              0.00144583             0.2445330
      0.1600950              1.0927900              0.8049340
SP   1   1.00
      0.0556577              1.0000000              1.0000000
D    1   1.00
      0.6500000              1.0000000
D    1   1.00
      0.1625000              1.0000000
F    1   1.00
      0.2500000              1.0000000
****
Si     0
S    6   1.00
  16115.9000000              0.00195948
   2425.5800000              0.01492880
    553.8670000              0.07284780
    156.3400000              0.24613000
     50.0683000              0.48591400
     17.0178000              0.32500200
SP   6   1.00
    292.7180000             -0.00278094             0.00443826
     69.8731000             -0.03571460             0.03266790
     22.3363000             -0.11498500             0.13472100
      8.1503900              0.09356340             0.32867800
      3.1345800              0.60301700             0.44964000
      1.2254300              0.41895900             0.26137200
SP   3   1.00
      1.7273800             -0.24463000            -0.01779510
      0.5729220              0.00431572             0.25353900
      0.2221920              1.09818000             0.80066900
SP   1   1.00
      0.0778369              1.00000000             1.00000000
D    1   1.00
      0.9000000              1.0000000
D    1   1.00
      0.2250000              1.0000000
F    1   1.00
      0.3200000              1.0000000
****
P     0
S    6   1.00
  19413.3000000              0.0018516
   2909.4200000              0.0142062
    661.3640000              0.0699995
    185.7590000              0.2400790
     59.1943000              0.4847620
     20.0310000              0.3352000
SP   6   1.00
    339.4780000             -0.00278217             0.00456462
     81.0101000             -0.0360499              0.03369360
     25.8780000             -0.1166310              0.13975500
      9.4522100              0.0968328              0.33936200
      3.6656600              0.6144180              0.45092100
      1.4674600              0.4037980              0.23858600
SP   3   1.00
      2.1562300             -0.2529230             -0.01776530
      0.7489970              0.0328517              0.27405800
      0.2831450              1.0812500              0.78542100
SP   1   1.00
      0.0998317              1.0000000              1.00000000
D    1   1.00
      1.1000000              1.0000000
D    1   1.00
      0.2750000              1.0000000
F    1   1.00
      0.4500000              1.0000000
****
S     0
S    6   1.00
  21917.1000000              0.0018690
   3301.4900000              0.0142300
    754.1460000              0.0696960
    212.7110000              0.2384870
     67.9896000              0.4833070
     23.0515000              0.3380740
SP   6   1.00
    423.7350000             -0.0023767              0.0040610
    100.7100000             -0.0316930              0.0306810
     32.1599000             -0.1133170              0.1304520
     11.8079000              0.0560900              0.3272050
      4.6311000              0.5922550              0.4528510
      1.8702500              0.4550060              0.2560420
SP   3   1.00
      2.6158400             -0.2503740             -0.0145110
      0.9221670              0.0669570              0.3102630
      0.3412870              1.0545100              0.7544830
SP   1   1.00
      0.1171670              1.0000000              1.0000000
D    1   1.00
      1.3000000              1.0000000
D    1   1.00
      0.3250000              1.0000000
F    1   1.00
      0.5500000              1.0000000
****
Cl     0
S    6   1.00
  25180.1000000              0.0018330
   3780.3500000              0.0140340
    860.4740000              0.0690970
    242.1450000              0.2374520
     77.3349000              0.4830340
     26.2470000              0.3398560
SP   6   1.00
    491.7650000             -0.0022974              0.0039894
    116.9840000             -0.0307140              0.0303180
     37.4153000             -0.1125280              0.1298800
     13.7834000              0.0450160              0.3279510
      5.4521500              0.5893530              0.4535270
      2.2258800              0.4652060              0.2521540
SP   3   1.00
      3.1864900             -0.2518300             -0.0142990
      1.1442700              0.0615890              0.3235720
      0.4203770              1.0601800              0.7435070
SP   1   1.00
      0.1426570              1.0000000              1.0000000
D    1   1.00
      1.5000000              1.0000000
D    1   1.00
      0.3750000              1.0000000
F    1   1.00
      0.7000000              1.0000000
****
}


set {
reference uhf                          
freeze_core true
e_convergence 10                       
d_convergence 10                      
dft_spherical_points 1202
dft_radial_points 99
}

e = energy('b3lyp')

print_out('Grab this energy {0}'.format(e))
--------------------------------------------------------------------------

  Memory set to  13.039 GiB by Python driver.

Scratch directory: /tmp/

*** tstart() called on n061
*** at Thu Nov  4 15:07:48 2021

   => Loading Basis Set <=

    Name: ANONYMOUS0149ABE3
    Role: ORBITAL
    Keyword: BASIS
    atoms 1   entry C          line    48 inputblock 6-31g_2dfp_ 
    atoms 2   entry O          line    90 inputblock 6-31g_2dfp_ 
    atoms 3-5 entry H          line    15 inputblock 6-31g_2dfp_ 


         ---------------------------------------------------------
                                   SCF
               by Justin Turney, Rob Parrish, Andy Simmonett
                          and Daniel G. A. Smith
                              UKS Reference
                        1 Threads,  13351 MiB Core
         ---------------------------------------------------------

  ==> Geometry <==

    Molecular point group: c1
    Full point group: C1

    Geometry (in Bohr), charge = 0, multiplicity = 2:

       Center              X                  Y                   Z               Mass       
    ------------   -----------------  -----------------  -----------------  -----------------
         C           -1.380440860648     0.033487328719     0.082623553182    12.000000000000
         O            1.206065895452    -0.125812371081    -0.027704530318    15.994914619570
         H            1.880303800552     1.552142042819     0.140025782182     1.007825032230
         H           -2.274995726148     1.796471429719    -0.421119812618     1.007825032230
         H           -2.309776219548    -1.750607730081    -0.262999461618     1.007825032230

  Running in c1 symmetry.

  Rotational constants: A =      6.40558  B =      0.99254  C =      0.86836 [cm^-1]
  Rotational constants: A = 192034.54594  B =  29755.58841  C =  26032.85237 [MHz]
  Nuclear repulsion =   35.229756834513452

  Charge       = 0
  Multiplicity = 2
  Electrons    = 17
  Nalpha       = 9
  Nbeta        = 8

  ==> Algorithm <==

  SCF Algorithm Type is DF.
  DIIS enabled.
  MOM disabled.
  Fractional occupation disabled.
  Guess Type is SAD.
  Energy threshold   = 1.00e-10
  Density threshold  = 1.00e-10
  Integral threshold = 0.00e+00

  ==> Primary Basis <==

  Basis Set: ANONYMOUS0149ABE3
    Blend: 6-31G_2DFP_
    Number of shells: 28
    Number of basis function: 76
    Number of Cartesian functions: 86
    Spherical Harmonics?: true
    Max angular momentum: 3

  ==> DFT Potential <==

   => Composite Functional: B3LYP <= 

    B3LYP Hyb-GGA Exchange-Correlation Functional

    P. J. Stephens, F. J. Devlin, C. F. Chabalowski, and M. J. Frisch, J. Phys. Chem. 98, 11623 (1994)

    Deriv               =              1
    GGA                 =           TRUE
    Meta                =          FALSE

    Exchange Hybrid     =           TRUE
    MP2 Hybrid          =          FALSE

   => Exchange Functionals <=

    0.0800   Slater exchange
    0.7200         Becke 88

   => Exact (HF) Exchange <=

    0.2000               HF 

   => Correlation Functionals <=

    0.1900   Vosko, Wilk & Nusair (VWN5_RPA)
    0.8100   Lee, Yang & Parr

   => Molecular Quadrature <=

    Radial Scheme          =       TREUTLER
    Pruning Scheme         =           NONE
    Nuclear Scheme         =       TREUTLER

    BS radius alpha        =              1
    Pruning alpha          =              1
    Radial Points          =             99
    Spherical Points       =           1202
    Total Points           =         566949
    Total Blocks           =           3943
    Max Points             =            256
    Max Functions          =             76
    Weights Tolerance      =       1.00E-15

   => Loading Basis Set <=

    Name: (ANONYMOUS0149ABE3 AUX)
    Role: JKFIT
    Keyword: DF_BASIS_SCF
    atoms 1   entry C          line   198 file /opt/psi/4/master/share/psi4/basis/def2-universal-jkfit.gbs 
    atoms 2   entry O          line   318 file /opt/psi/4/master/share/psi4/basis/def2-universal-jkfit.gbs 
    atoms 3-5 entry H          line    18 file /opt/psi/4/master/share/psi4/basis/def2-universal-jkfit.gbs 

  ==> Integral Setup <==

  DFHelper Memory: AOs need 0.010 GiB; user supplied 8.654 GiB. Using in-core AOs.

  ==> MemDFJK: Density-Fitted J/K Matrices <==

    J tasked:                   Yes
    K tasked:                   Yes
    wK tasked:                   No
    OpenMP threads:               1
    Memory [MiB]:              8862
    Algorithm:                 Core
    Schwarz Cutoff:           1E-12
    Mask sparsity (%):       0.0000
    Fitting Condition:        1E-10

   => Auxiliary Basis Set <=

  Basis Set: (ANONYMOUS0149ABE3 AUX)
    Blend: DEF2-UNIVERSAL-JKFIT
    Number of shells: 68
    Number of basis function: 206
    Number of Cartesian functions: 242
    Spherical Harmonics?: true
    Max angular momentum: 4

  Cached 100.0% of DFT collocation blocks in 1.125 [GiB].

  Minimum eigenvalue in the overlap matrix is 5.0378656362E-03.
  Reciprocal condition number of the overlap matrix is 1.0967515743E-03.
    Using symmetric orthogonalization.

  ==> Pre-Iterations <==

  SCF Guess: Superposition of Atomic Densities via on-the-fly atomic UHF (no occupation information).

   -------------------------
    Irrep   Nso     Nmo    
   -------------------------
     A         76      76 
   -------------------------
    Total      76      76
   -------------------------

  ==> Iterations <==

                           Total Energy        Delta E     RMS |[F,P]|

   @DF-UKS iter SAD:  -114.63054129495823   -1.14631e+02   0.00000e+00 
   @DF-UKS iter   1:  -114.94852417988270   -3.17983e-01   6.65708e-03 DIIS
   @DF-UKS iter   2:  -114.90028286711859    4.82413e-02   8.36742e-03 DIIS
   @DF-UKS iter   3:  -115.06152080580017   -1.61238e-01   1.32814e-03 DIIS
   @DF-UKS iter   4:  -115.06564453168779   -4.12373e-03   2.67347e-04 DIIS
   @DF-UKS iter   5:  -115.06584051652310   -1.95985e-04   5.59886e-05 DIIS
   @DF-UKS iter   6:  -115.06585051103599   -9.99451e-06   9.84865e-06 DIIS
   @DF-UKS iter   7:  -115.06585124337542   -7.32339e-07   3.17579e-06 DIIS
   @DF-UKS iter   8:  -115.06585128923537   -4.58599e-08   6.65078e-07 DIIS
   @DF-UKS iter   9:  -115.06585129110618   -1.87082e-09   1.65096e-07 DIIS
   @DF-UKS iter  10:  -115.06585129122384   -1.17652e-10   3.73262e-08 DIIS
   @DF-UKS iter  11:  -115.06585129123150   -7.65965e-12   9.41483e-09 DIIS
   @DF-UKS iter  12:  -115.06585129123211   -6.11067e-13   2.03692e-09 DIIS
   @DF-UKS iter  13:  -115.06585129123209    1.42109e-14   5.33246e-10 DIIS
   @DF-UKS iter  14:  -115.06585129123218   -8.52651e-14   1.73868e-10 DIIS
   @DF-UKS iter  15:  -115.06585129123222   -4.26326e-14   5.86530e-11 DIIS
  Energy and wave function converged.


  ==> Post-Iterations <==

   @Spin Contamination Metric:   3.327863959E-03
   @S^2 Expected:                7.500000000E-01
   @S^2 Observed:                7.533278640E-01
   @S   Expected:                5.000000000E-01
   @S   Observed:                5.000000000E-01

    Orbital Energies [Eh]
    ---------------------

    Alpha Occupied:                                                       

       1A    -19.174360     2A    -10.216848     3A     -1.050105  
       4A     -0.665478     5A     -0.522558     6A     -0.443244  
       7A     -0.392917     8A     -0.351524     9A     -0.170716  

    Alpha Virtual:                                                        

      10A      0.066805    11A      0.123951    12A      0.175826  
      13A      0.228107    14A      0.447304    15A      0.476831  
      16A      0.497628    17A      0.515210    18A      0.531816  
      19A      0.573331    20A      0.635449    21A      0.662370  
      22A      0.704554    23A      0.741840    24A      0.803974  
      25A      0.854426    26A      0.930387    27A      0.963764  
      28A      0.997796    29A      1.111664    30A      1.152523  
      31A      1.207145    32A      1.295906    33A      1.369822  
      34A      1.430743    35A      1.476310    36A      1.570317  
      37A      1.726597    38A      1.783090    39A      1.858220  
      40A      1.904808    41A      2.129005    42A      2.316193  
      43A      2.646257    44A      2.879229    45A      3.003286  
      46A      3.025529    47A      3.065372    48A      3.112542  
      49A      3.193555    50A      3.207682    51A      3.306355  
      52A      3.338623    53A      3.370159    54A      3.608299  
      55A      3.653597    56A      3.802316    57A      3.955774  
      58A      4.041247    59A      4.129564    60A      4.184817  
      61A      4.285038    62A      4.549427    63A      5.014615  
      64A      5.067647    65A      5.198297    66A      5.343252  
      67A      5.508092    68A      5.527555    69A      5.683524  
      70A      5.943535    71A      6.395920    72A      6.904189  
      73A      6.983386    74A      7.061372    75A      7.314975  
      76A      7.443853  

    Beta Occupied:                                                        

       1A    -19.168995     2A    -10.203749     3A     -1.037745  
       4A     -0.639029     5A     -0.512465     6A     -0.434467  
       7A     -0.356473     8A     -0.336656  

    Beta Virtual:                                                         

       9A     -0.015793    10A      0.069606    11A      0.134951  
      12A      0.182384    13A      0.239375    14A      0.468074  
      15A      0.481923    16A      0.512499    17A      0.532284  
      18A      0.576807    19A      0.581077    20A      0.643385  
      21A      0.674523    22A      0.724455    23A      0.767275  
      24A      0.806819    25A      0.862817    26A      0.940747  
      27A      0.974049    28A      1.006269    29A      1.126748  
      30A      1.162961    31A      1.219316    32A      1.303647  
      33A      1.376841    34A      1.437663    35A      1.486311  
      36A      1.579513    37A      1.735239    38A      1.787790  
      39A      1.874291    40A      1.911837    41A      2.138246  
      42A      2.329066    43A      2.654807    44A      2.901568  
      45A      3.030590    46A      3.048215    47A      3.091499  
      48A      3.168332    49A      3.224650    50A      3.250048  
      51A      3.346056    52A      3.378531    53A      3.406599  
      54A      3.634693    55A      3.658648    56A      3.811713  
      57A      3.957705    58A      4.047213    59A      4.133517  
      60A      4.197130    61A      4.292833    62A      4.551486  
      63A      5.020163    64A      5.076216    65A      5.208209  
      66A      5.354495    67A      5.522112    68A      5.540208  
      69A      5.697345    70A      5.946365    71A      6.399560  
      72A      6.924823    73A      7.004022    74A      7.081670  
      75A      7.319226    76A      7.447144  

    Final Occupation by Irrep:
              A 
    DOCC [     8 ]
    SOCC [     1 ]

  @DF-UKS Final Energy:  -115.06585129123222

   => Energetics <=

    Nuclear Repulsion Energy =             35.2297568345134522
    One-Electron Energy =                -226.1258944908267381
    Two-Electron Energy =                  88.0601314982723977
    DFT Exchange-Correlation Energy =     -12.2298451331913505
    Empirical Dispersion Energy =           0.0000000000000000
    VV10 Nonlocal Energy =                  0.0000000000000000
    Total Energy =                       -115.0658512912322209

  UHF NO Occupations:
  HONO-2 :    7  A 1.9996045
  HONO-1 :    8  A 1.9990490
  HONO-0 :    9  A 1.0000000
  LUNO+0 :   10  A 0.0009510
  LUNO+1 :   11  A 0.0003955
  LUNO+2 :   12  A 0.0001982
  LUNO+3 :   13  A 0.0000871


Computation Completed


Properties will be evaluated at   0.000000,   0.000000,   0.000000 [a0]

Properties computed using the SCF density matrix

  Nuclear Dipole Moment: [e a0]
     X:    -1.3386      Y:     0.7924      Z:    -0.2700

  Electronic Dipole Moment: [e a0]
     X:     1.3276      Y:    -0.2406      Z:     0.1897

  Dipole Moment: [e a0]
     X:    -0.0110      Y:     0.5519      Z:    -0.0803     Total:     0.5578

  Dipole Moment: [D]
     X:    -0.0279      Y:     1.4027      Z:    -0.2041     Total:     1.4177


*** tstop() called on n061 at Thu Nov  4 15:08:20 2021
Module time:
	user time   =      31.65 seconds =       0.53 minutes
	system time =       0.37 seconds =       0.01 minutes
	total time  =         32 seconds =       0.53 minutes
Total time:
	user time   =      31.65 seconds =       0.53 minutes
	system time =       0.37 seconds =       0.01 minutes
	total time  =         32 seconds =       0.53 minutes
Grab this energy -115.06585129123222
    Psi4 stopped on: Thursday, 04 November 2021 03:08PM
    Psi4 wall time for execution: 0:00:32.06

*** Psi4 exiting successfully. Buy a developer a beer!
