
 Primary working directories    : /tmp/1024370.347.gen6.q
 Secondary working directories  : /tmp/1024370.347.gen6.q
 Wavefunction directory         : /home/vulcan/mel64643/wfu/
 Main file repository           : /tmp/1024370.347.gen6.q/

 ARCHNAME  : Linux/x86_64
 FC        : /opt/intel/compilers_and_libraries_2016.1.150/linux/bin/intel64/ifort
 FCVERSION : 16.0.1
 BLASLIB   : -mkl
 id        : ccgc

 Nodes     nprocs
 n087         1
 ga_uses_ma=false, calling ma_init with nominal heap.
 GA-space will be limited to   8.0 MW (determined by -G option)

 Using customized tuning parameters: mindgm=10; mindgv=16; mindgc=4; mindgr=1; noblas=0; mincuda=1000; minvec=7
 default implementation of scratch files=df  

 ***,Optimization of formic acid
 memory,1000,m
 gthresh,energy=1.0d-12,orbital=1.0d-10,oneint=1.0d-16,twoint=1.0d-16,optgrad=1.0d-6,compress=1.0d-13
 geomtyp=xyz
 
 
 symmetry,nosym
 bohr
 geometry = {
 C       -0.8307583877      3.5005984008      0.0000000000
 O        1.6226760433      3.0942398659      0.0000000000
 O       -2.4812616604      1.8854228423      0.0000000000
 H       -1.2732982054      5.5198650585      0.0000000000
 H        1.9539574316      1.2420393572      0.0000000000
 C        0.8308006388     -3.5005706041      0.0000000000
 O       -1.6226637289     -3.0943702969      0.0000000000
 O        2.4812149091     -1.8853065864      0.0000000000
 H        1.2734522884     -5.5198057024      0.0000000000
 H       -1.9540623835     -1.2422013460      0.0000000000
 }
 
 basis=AVDZ, H=VDZ
 {rhf;maxit,200}
 
 bohr
 geometry = {
  C   -0.8270856666    3.4999796592    0.0000000000
  O    1.6234588266    3.0765420157    0.0000000000
  O   -2.4887991208    1.8963395745    0.0000000000
  H   -1.2555499013    5.5222797642    0.0000000000
  H    1.9418310009    1.2220789578   -0.0000000000
  C    0.8335211790   -3.4910553341   -0.0000000000
  O   -1.6227951769   -3.1024732496    0.0000000000
  O    2.4723006899   -1.8639883990   -0.0000000000
  H    1.2906528596   -5.5070616537   -0.0000000000
  H   -1.9674777452   -1.2527303461    0.0000000000
 }
 
 basis=AVDZ, H=VDZ
 {rhf;maxit,200}
 {mp2}

 Variables initialized (661), CPU time= 0.00 sec
 Commands  initialized (458), CPU time= 0.01 sec, 486 directives.
 Default parameters read. Elapsed time= 0.05 sec

 Checking input...
 Passed
1


                                         ***  PROGRAM SYSTEM MOLPRO  ***
                         Copyright, University College Cardiff Consultants Limited, 2008

                                    Version 2010.1 linked May 16 2016 07:17:05


 **********************************************************************************************************************************
 LABEL *   Optimization of formic acid                                                   
 Linux-4.4.3/n087(x86_64) 64 bit mpp version                                             DATE: 28-Feb-24          TIME: 11:44:52  
 **********************************************************************************************************************************

 SHA1:             9e8077add272b0f3cad6f7df79ec5211205f459d
 **********************************************************************************************************************************

 THRESHOLDS:

 ZERO    =  1.00D-12  ONEINT  =  1.00D-16  TWOINT  =  1.00D-16  PREFAC  =  1.00D-14  LOCALI  =  1.00D-09  EORDER  =  1.00D-04
 ENERGY  =  1.00D-12  ETEST   =  0.00D+00  EDENS   =  0.00D+00  THRDEDEF=  1.00D-06  GRADIENT=  1.00D-02  STEP    =  1.00D-03
 ORBITAL =  1.00D-10  CIVEC   =  1.00D-05  COEFF   =  1.00D-04  PRINTCI =  5.00D-02  PUNCHCI =  9.90D+01  OPTGRAD =  1.00D-06
 OPTENERG=  1.00D-06  OPTSTEP =  3.00D-04  THRGRAD =  1.00D-10  COMPRESS=  1.00D-13  VARMIN  =  1.00D-07  VARMAX  =  1.00D-03
 THRDOUB =  0.00D+00  THRDIV  =  1.00D-05  THRRED  =  1.00D-07  THRPSP  =  1.00D+00  THRDC   =  1.00D-10  THRCS   =  1.00D-10
 THRNRM  =  1.00D-08  THREQ   =  0.00D+00  THRDE   =  1.00D+00  THRREF  =  1.00D-05  SPARFAC =  1.00D+00  THRDLP  =  1.00D-07
 THRDIA  =  1.00D-10  THRDLS  =  1.00D-07  THRGPS  =  0.00D+00  THRKEX  =  0.00D+00  THRDIS  =  2.00D-01  THRVAR  =  1.00D-10
 THRLOC  =  1.00D-06  THRGAP  =  1.00D-06  THRLOCT = -1.00D+00  THRGAPT = -1.00D+00  THRORB  =  1.00D-06  THRMLTP =  0.00D+00
 THRCPQCI=  1.00D-10  KEXTA   =  0.00D+00  THRCOARS=  0.00D+00  SYMTOL  =  1.00D-06  GRADTOL =  1.00D-06  THROVL  =  1.00D-08
 THRORTH =  1.00D-08  GRID    =  1.00D-06  GRIDMAX =  1.00D-03  DTMAX   =  0.00D+00

 SETTING GEOMTYP        =    XYZ

 Variable memory set to 1000000000 words,  buffer space   230000 words

 ZSYMEL=NOSYM
 ZUNIT=BOHR
 
 SETTING BASIS          =    AVDZ,H=VDZ


 Recomputing integrals since basis changed


 Using spherical harmonics

 Library entry C      S aug-cc-pVDZ          selected for orbital group  1
 Library entry C      P aug-cc-pVDZ          selected for orbital group  1
 Library entry C      D aug-cc-pVDZ          selected for orbital group  1
 Library entry O      S aug-cc-pVDZ          selected for orbital group  2
 Library entry O      P aug-cc-pVDZ          selected for orbital group  2
 Library entry O      D aug-cc-pVDZ          selected for orbital group  2
 Library entry H      S cc-pVDZ              selected for orbital group  3
 Library entry H      P cc-pVDZ              selected for orbital group  3

1PROGRAM * SEWARD (Integral evaluation for generally contracted gaussian basis sets)     Author: Roland Lindh, 1990

 Geometry written to block  1 of record 700


 Point group  C1  



 ATOMIC COORDINATES

 NR  ATOM    CHARGE       X              Y              Z

   1  C       6.00   -0.830758388    3.500598401    0.000000000
   2  O       8.00    1.622676043    3.094239866    0.000000000
   3  O       8.00   -2.481261660    1.885422842    0.000000000
   4  H       1.00   -1.273298205    5.519865058    0.000000000
   5  H       1.00    1.953957432    1.242039357    0.000000000
   6  C       6.00    0.830800639   -3.500570604    0.000000000
   7  O       8.00   -1.622663729   -3.094370297    0.000000000
   8  O       8.00    2.481214909   -1.885306586    0.000000000
   9  H       1.00    1.273452288   -5.519805702    0.000000000
  10  H       1.00   -1.954062383   -1.242201346    0.000000000

 Bond lengths in Bohr (Angstrom)

 1-2  2.486859016  1-3  2.309318761  1-4  2.067191168  2-5  1.881593496  6-7  2.486862701
     ( 1.315989113)     ( 1.222038856)     ( 1.093910453)     ( 0.995696394)     ( 1.315991063)

  6- 8  2.309317023   6- 9  2.067184284   7-10  1.881583081
       ( 1.222037937)       ( 1.093906810)       ( 0.995690883)

 Bond angles

  1-2-5  109.54503268   2-1-3  126.21535996   2-1-4  111.76586637   3-1-4  122.01877367

  6- 7-10  109.54500778   7- 6- 8  126.21595606   7- 6- 9  111.76537222   8- 6- 9  122.01867172

 NUCLEAR CHARGE:                   48
 NUMBER OF PRIMITIVE AOS:         250
 NUMBER OF SYMMETRY AOS:          238
 NUMBER OF CONTRACTIONS:          158   ( 158A   )
 NUMBER OF CORE ORBITALS:           6   (   6A   )
 NUMBER OF VALENCE ORBITALS:       28   (  28A   )


 NUCLEAR REPULSION ENERGY  235.53139134

 EXTRA SYMMETRY OF AOS IN SYMMETRY 1:   1 1 1 1 1 1 2 1 1 2   1 1 2 1 1 2 1 2 1 1   2 1 2 1 1 1 1 1 1 2   1 1 2 1 1 2 1 1 2 1
                                        2 1 1 2 1 2 1 1 1 1   1 1 2 1 1 2 1 1 2 1   1 2 1 2 1 1 2 1 2 1   1 1 1 2 1 1 1 1 2 1
                                        1 1 1 1 1 2 1 1 2 1   1 2 1 1 2 1 2 1 1 2   1 2 1 1 1 1 1 1 2 1   1 2 1 1 2 1 1 2 1 2
                                        1 1 2 1 2 1 1 1 1 1   1 2 1 1 2 1 1 2 1 1   2 1 2 1 1 2 1 2 1 1   1 1 2 1 1 1 1 2

 Eigenvalues of metric

         1 0.779E-03 0.127E-02 0.143E-02 0.198E-02 0.276E-02 0.420E-02 0.474E-02 0.695E-02


 Contracted 2-electron integrals neglected if value below      1.0D-16
 AO integral compression algorithm  1   Integral accuracy      1.0D-16

     364.380 MB (compressed) written to integral file ( 50.2%)

     Node minimum: 364.380 MB, node maximum: 364.380 MB


 NUMBER OF SORTED TWO-ELECTRON INTEGRALS:   78895641.     BUFFER LENGTH:  32768
 NUMBER OF SEGMENTS:   5  SEGMENT LENGTH:   15999503      RECORD LENGTH: 524288

 Memory used in sort:      16.56 MW

 SORT1 READ    90699450. AND WROTE    40406666. INTEGRALS IN    118 RECORDS. CPU TIME:     0.60 SEC, REAL TIME:     0.84 SEC
 SORT2 READ    40406666. AND WROTE    78895641. INTEGRALS IN   1390 RECORDS. CPU TIME:     0.50 SEC, REAL TIME:     0.67 SEC

 FILE SIZES:   FILE 1:   319.4 MBYTE,  FILE 4:   495.0 MBYTE,   TOTAL:    814.4 MBYTE

 OPERATOR DM      FOR CENTER  0  COORDINATES:    0.000000    0.000000    0.000000


 **********************************************************************************************************************************
 DATASETS  * FILE   NREC   LENGTH (MB)   RECORD NAMES
              1      19      319.74       500      610      700      900      950      970     1000      129      960     1100   
                                          VAR    BASINP    GEOM    SYMINP    ZMAT    AOBASIS   BASIS     P2S    ABASIS      S 
                                         1400     1410     1200     1210     1080     1600     1650     1300     1700   
                                           T        V       H0       H01     AOSYM     SMH    MOLCAS    ERIS     OPER   

 PROGRAMS   *        TOTAL       INT
 CPU TIMES  *         4.03      3.99
 REAL TIME  *         4.80 SEC
 DISK USED  *         1.18 GB      
 GA USED    *         0.00 MB       (max)       0.00 MB       (current)
 **********************************************************************************************************************************

1PROGRAM * RHF-SCF (CLOSED SHELL)       Authors: W. Meyer, H.-J. Werner


 NUMBER OF ELECTRONS:      24+   24-    SPACE SYMMETRY=1    SPIN SYMMETRY: Singlet 
 CONVERGENCE THRESHOLDS:    1.00E-10 (Density)    1.00E-13 (Energy)
 MAX. NUMBER OF ITERATIONS:      200
 INTERPOLATION TYPE:            DIIS
 INTERPOLATION STEPS:              2 (START)      1 (STEP)
 LEVEL SHIFTS:                  0.00 (CLOSED)  0.00 (OPEN) 



 Orbital guess generated from atomic densities. Full valence occupancy:   34

 Molecular orbital dump at record        2100.2

 ITERATION    DDIFF          GRAD             ENERGY        2-EL.EN.            DIPOLE MOMENTS         DIIS
    1      0.000D+00      0.000D+00      -377.47440594    746.307342    0.00004   -0.00016   -0.00000    0
    2      0.000D+00      0.724D-02      -377.56263072    743.508123    0.00003   -0.00016    0.00000    1
    3      0.137D-01      0.456D-02      -377.60997717    745.783070    0.00004   -0.00015    0.00000    2
    4      0.513D-02      0.651D-03      -377.61158629    745.385452    0.00004   -0.00014   -0.00000    3
    5      0.997D-03      0.276D-03      -377.61186912    745.422736    0.00004   -0.00014    0.00000    4
    6      0.415D-03      0.775D-04      -377.61191288    745.474432    0.00004   -0.00014   -0.00000    5
    7      0.139D-03      0.345D-04      -377.61192338    745.456409    0.00004   -0.00014   -0.00000    6
    8      0.802D-04      0.109D-04      -377.61192462    745.461924    0.00004   -0.00014   -0.00000    7
    9      0.296D-04      0.358D-05      -377.61192474    745.460591    0.00004   -0.00014   -0.00000    8
   10      0.964D-05      0.983D-06      -377.61192475    745.460824    0.00004   -0.00014   -0.00000    7
   11      0.268D-05      0.289D-06      -377.61192475    745.460747    0.00004   -0.00014    0.00000    8
   12      0.782D-06      0.891D-07      -377.61192475    745.460780    0.00004   -0.00014    0.00000    8
   13      0.222D-06      0.361D-07      -377.61192475    745.460760    0.00004   -0.00014   -0.00000    8
   14      0.654D-07      0.117D-07      -377.61192475    745.460764    0.00004   -0.00014   -0.00000    8
   15      0.273D-07      0.395D-08      -377.61192475    745.460765    0.00004   -0.00014   -0.00000    8
   16      0.755D-08      0.123D-08      -377.61192475    745.460764    0.00004   -0.00014   -0.00000    8
   17      0.218D-08      0.311D-09      -377.61192475    745.460764    0.00004   -0.00014    0.00000    8
   18      0.577D-09      0.964D-10      -377.61192475    745.460764    0.00004   -0.00014    0.00000    8
   19      0.197D-09      0.302D-10      -377.61192475    745.460764    0.00004   -0.00014   -0.00000    8
   20      0.637D-10      0.879D-11      -377.61192475    745.460764    0.00004   -0.00014   -0.00000    7
   21      0.196D-10      0.346D-11      -377.61192475    745.460764    0.00004   -0.00014    0.00000    8
   22      0.595D-11      0.123D-11      -377.61192475    745.460764    0.00004   -0.00014    0.00000    8
   23      0.266D-11      0.245D-12      -377.61192475    745.460764    0.00004   -0.00014    0.00000    7
   24      0.953D-12      0.998D-13      -377.61192475    745.460764    0.00004   -0.00014    0.00000    8
   25      0.606D-12      0.718D-13      -377.61192475    745.460764    0.00004   -0.00014    0.00000    8
   26      0.586D-12      0.435D-13      -377.61192475    745.460764    0.00004   -0.00014    0.00000    0

 Final occupancy:  24

 !RHF STATE 1.1 Energy               -377.611924750321
 Nuclear energy                       235.53139134
 One-electron energy                 -985.87369819
 Two-electron energy                  372.73038210
 Virial quotient                       -1.00164129
 !RHF STATE 1.1 Dipole moment           0.00003665    -0.00014001     0.00000000
 Dipole moment /Debye                   0.00009315    -0.00035585     0.00000000

 Orbital energies:

         1.1          2.1          3.1          4.1          5.1          6.1          7.1          8.1          9.1         10.1
    -20.626259   -20.626246   -20.587610   -20.587601   -11.419905   -11.419895    -1.490281    -1.477612    -1.392143    -1.378189

        11.1         12.1         13.1         14.1         15.1         16.1         17.1         18.1         19.1         20.1
     -0.921868    -0.886170    -0.771403    -0.735450    -0.726765    -0.698118    -0.645608    -0.635276    -0.622433    -0.581949

        21.1         22.1         23.1         24.1         25.1         26.1
     -0.506858    -0.498049    -0.495132    -0.475647     0.069507     0.070575


 **********************************************************************************************************************************
 DATASETS  * FILE   NREC   LENGTH (MB)   RECORD NAMES
              1      19      319.74       500      610      700      900      950      970     1000      129      960     1100   
                                          VAR    BASINP    GEOM    SYMINP    ZMAT    AOBASIS   BASIS     P2S    ABASIS      S 
                                         1400     1410     1200     1210     1080     1600     1650     1300     1700   
                                           T        V       H0       H01     AOSYM     SMH    MOLCAS    ERIS     OPER   

              2       3        0.94       700     1000     2100   
                                         GEOM     BASIS     RHF  

 PROGRAMS   *        TOTAL       RHF       INT
 CPU TIMES  *        16.27     12.24      3.99
 REAL TIME  *        17.84 SEC
 DISK USED  *         1.18 GB      
 GA USED    *         0.00 MB       (max)       0.00 MB       (current)
 **********************************************************************************************************************************
 ZUNIT=BOHR
 
 SETTING BASIS          =    AVDZ,H=VDZ


 Recomputing integrals since geometry and symmetry changed


 Using spherical harmonics

 Library entry C      S aug-cc-pVDZ          selected for orbital group  1
 Library entry C      P aug-cc-pVDZ          selected for orbital group  1
 Library entry C      D aug-cc-pVDZ          selected for orbital group  1
 Library entry O      S aug-cc-pVDZ          selected for orbital group  2
 Library entry O      P aug-cc-pVDZ          selected for orbital group  2
 Library entry O      D aug-cc-pVDZ          selected for orbital group  2
 Library entry H      S cc-pVDZ              selected for orbital group  3
 Library entry H      P cc-pVDZ              selected for orbital group  3

1PROGRAM * SEWARD (Integral evaluation for generally contracted gaussian basis sets)     Author: Roland Lindh, 1990

 Geometry written to block  1 of record 701


 Point group  Cs  



 ATOMIC COORDINATES

 NR  ATOM    CHARGE       X              Y              Z

   1  C       6.00   -0.827085667    3.499979659    0.000000000
   2  O       8.00    1.623458827    3.076542016    0.000000000
   3  O       8.00   -2.488799121    1.896339575    0.000000000
   4  H       1.00   -1.255549901    5.522279764    0.000000000
   5  H       1.00    1.941831001    1.222078958    0.000000000
   6  C       6.00    0.833521179   -3.491055334    0.000000000
   7  O       8.00   -1.622795177   -3.102473250    0.000000000
   8  O       8.00    2.472300690   -1.863988399    0.000000000
   9  H       1.00    1.290652860   -5.507061654    0.000000000
  10  H       1.00   -1.967477745   -1.252730346    0.000000000

 Bond lengths in Bohr (Angstrom)

 1-2  2.486859013  1-3  2.309318758  1-4  2.067191166  2-5  1.881593493  6-7  2.486862698
     ( 1.315989112)     ( 1.222038855)     ( 1.093910451)     ( 0.995696393)     ( 1.315991061)

  6- 8  2.309317020   6- 9  2.067184282   7-10  1.881583079
       ( 1.222037935)       ( 1.093906809)       ( 0.995690882)

 Bond angles

  1-2-5  109.54503268   2-1-3  126.21535996   2-1-4  111.76586637   3-1-4  122.01877367

  6- 7-10  109.54500778   7- 6- 8  126.21595606   7- 6- 9  111.76537222   8- 6- 9  122.01867171

 NUCLEAR CHARGE:                   48
 NUMBER OF PRIMITIVE AOS:         250
 NUMBER OF SYMMETRY AOS:          238
 NUMBER OF CONTRACTIONS:          158   ( 112A'  +  46A"  )
 NUMBER OF CORE ORBITALS:           6   (   6A'  +   0A"  )
 NUMBER OF VALENCE ORBITALS:       28   (  22A'  +   6A"  )

 SYMMETRY CHANGED: INITIALIZING OCCUPATION


 NUCLEAR REPULSION ENERGY  235.68735295


 Eigenvalues of metric

         1 0.778E-03 0.127E-02 0.142E-02 0.198E-02 0.275E-02 0.419E-02 0.472E-02 0.692E-02
         2 0.270E-01 0.379E-01 0.473E-01 0.520E-01 0.617E-01 0.743E-01 0.105E+00 0.138E+00


 Contracted 2-electron integrals neglected if value below      1.0D-16
 AO integral compression algorithm  1   Integral accuracy      1.0D-16

     353.632 MB (compressed) written to integral file ( 94.6%)

     Node minimum: 353.632 MB, node maximum: 353.632 MB


 NUMBER OF SORTED TWO-ELECTRON INTEGRALS:   41131481.     BUFFER LENGTH:  32768
 NUMBER OF SEGMENTS:   3  SEGMENT LENGTH:   15997996      RECORD LENGTH: 524288

 Memory used in sort:      16.56 MW

 SORT1 READ    46708508. AND WROTE    40806421. INTEGRALS IN    118 RECORDS. CPU TIME:     0.46 SEC, REAL TIME:     0.72 SEC
 SORT2 READ    40806421. AND WROTE    41131481. INTEGRALS IN   1349 RECORDS. CPU TIME:     0.32 SEC, REAL TIME:     0.50 SEC

 FILE SIZES:   FILE 1:   320.3 MBYTE,  FILE 4:   495.0 MBYTE,   TOTAL:    815.2 MBYTE

 OPERATOR DM      FOR CENTER  0  COORDINATES:    0.000000    0.000000    0.000000


 **********************************************************************************************************************************
 DATASETS  * FILE   NREC   LENGTH (MB)   RECORD NAMES
              1      20      320.41       500      610      700      701      900      950      970     1001      129      960   
                                          VAR    BASINP    GEOM     GEOM    SYMINP    ZMAT    AOBASIS   BASIS     P2S    ABASIS    
                                         1100     1400     1410     1200     1210     1080     1600     1650     1300     1700   
                                           S        T        V       H0       H01     AOSYM     SMH    MOLCAS    ERIS     OPER   

              2       5        1.81       700     1000     2100      701     1001   
                                         GEOM     BASIS     RHF     GEOM     BASIS   

 PROGRAMS   *        TOTAL       INT       RHF       INT
 CPU TIMES  *        20.10      3.83     12.24      3.99
 REAL TIME  *        22.33 SEC
 DISK USED  *         1.18 GB      
 GA USED    *         0.00 MB       (max)       0.00 MB       (current)
 **********************************************************************************************************************************

1PROGRAM * RHF-SCF (CLOSED SHELL)       Authors: W. Meyer, H.-J. Werner


 NUMBER OF ELECTRONS:      24+   24-
 CONVERGENCE THRESHOLDS:    1.00E-10 (Density)    1.00E-13 (Energy)
 MAX. NUMBER OF ITERATIONS:      200
 INTERPOLATION TYPE:            DIIS
 INTERPOLATION STEPS:              2 (START)      1 (STEP)
 LEVEL SHIFTS:                  0.00 (CLOSED)  0.00 (OPEN) 



 Orbital guess generated from atomic densities. Full valence occupancy:   28   6

 Molecular orbital dump at record        2101.2

 Initial alpha occupancy:  20   4
 Initial beta  occupancy:  20   4
 Wave function symmetry:    1

 ITERATION    DDIFF          GRAD             ENERGY        2-EL.EN.            DIPOLE MOMENTS         DIIS
    1      0.000D+00      0.000D+00      -377.47443275    746.614789    0.00832   -0.04005    0.00000    0
    2      0.000D+00      0.943D-02      -377.56266618    743.821590    0.00679   -0.03571    0.00000    1
    3      0.179D-01      0.592D-02      -377.60988903    746.094466    0.00950   -0.03467    0.00000    2
    4      0.668D-02      0.846D-03      -377.61149494    745.695260    0.00871   -0.03372    0.00000    3
    5      0.130D-02      0.358D-03      -377.61177654    745.733524    0.00905   -0.03341    0.00000    4
    6      0.539D-03      0.101D-03      -377.61182016    745.785005    0.00895   -0.03326    0.00000    5
    7      0.181D-03      0.449D-04      -377.61183062    745.767015    0.00897   -0.03320    0.00000    6
    8      0.104D-03      0.141D-04      -377.61183186    745.772511    0.00894   -0.03319    0.00000    7
    9      0.385D-04      0.465D-05      -377.61183198    745.771185    0.00896   -0.03318    0.00000    8
   10      0.125D-04      0.128D-05      -377.61183198    745.771416    0.00894   -0.03319    0.00000    7
   11      0.348D-05      0.383D-06      -377.61183199    745.771341    0.00896   -0.03318    0.00000    8
   12      0.101D-05      0.142D-06      -377.61183199    745.771367    0.00894   -0.03319    0.00000    8
   13      0.285D-06      0.497D-07      -377.61183199    745.771354    0.00895   -0.03319    0.00000    8
   14      0.873D-07      0.146D-07      -377.61183199    745.771356    0.00895   -0.03319    0.00000    8
   15      0.295D-07      0.631D-08      -377.61183199    745.771357    0.00895   -0.03319    0.00000    8
   16      0.114D-07      0.167D-08      -377.61183199    745.771356    0.00895   -0.03319    0.00000    8
   17      0.278D-08      0.505D-09      -377.61183199    745.771356    0.00895   -0.03319    0.00000    8
   18      0.950D-09      0.197D-09      -377.61183199    745.771356    0.00895   -0.03319    0.00000    8
   19      0.354D-09      0.858D-10      -377.61183199    745.771356    0.00895   -0.03319    0.00000    8
   20      0.166D-09      0.421D-10      -377.61183199    745.771356    0.00895   -0.03319    0.00000    8
   21      0.854D-10      0.118D-10      -377.61183199    745.771356    0.00895   -0.03319    0.00000    8
   22      0.309D-10      0.408D-11      -377.61183199    745.771356    0.00895   -0.03319    0.00000    9
   23      0.883D-11      0.179D-11      -377.61183199    745.771356    0.00895   -0.03319    0.00000    9
   24      0.430D-11      0.372D-12      -377.61183199    745.771356    0.00895   -0.03319    0.00000    9
   25      0.128D-11      0.170D-12      -377.61183199    745.771356    0.00895   -0.03319    0.00000    0

 Final occupancy:  20   4

 !RHF STATE 1.1 Energy               -377.611831985541
 Nuclear energy                       235.68735295
 One-electron energy                 -986.18486308
 Two-electron energy                  372.88567814
 Virial quotient                       -1.00163113
 !RHF STATE 1.1 Dipole moment           0.00894745    -0.03318612     0.00000000
 Dipole moment /Debye                   0.02274065    -0.08434519     0.00000000

 Orbital energies:

         1.1          2.1          3.1          4.1          5.1          6.1          7.1          8.1          9.1         10.1
    -20.627557   -20.624456   -20.588618   -20.586692   -11.421073   -11.418817    -1.490483    -1.477388    -1.392432    -1.378033

        11.1         12.1         13.1         14.1         15.1         16.1         17.1         18.1         19.1         20.1
     -0.922160    -0.885960    -0.771979    -0.735637    -0.726562    -0.697866    -0.622637    -0.581804    -0.498151    -0.475583

        21.1         22.1
      0.069366     0.070682

         1.2          2.2          3.2          4.2          5.2          6.2
     -0.645767    -0.635048    -0.507095    -0.494957     0.080687     0.093025


 **********************************************************************************************************************************
 DATASETS  * FILE   NREC   LENGTH (MB)   RECORD NAMES
              1      20      320.41       500      610      700      701      900      950      970     1001      129      960   
                                          VAR    BASINP    GEOM     GEOM    SYMINP    ZMAT    AOBASIS   BASIS     P2S    ABASIS    
                                         1100     1400     1410     1200     1210     1080     1600     1650     1300     1700   
                                           S        T        V       H0       H01     AOSYM     SMH    MOLCAS    ERIS     OPER   

              2       6        2.14       700     1000     2100      701     1001     2101   
                                         GEOM     BASIS     RHF     GEOM     BASIS     RHF  

 PROGRAMS   *        TOTAL       RHF       INT       RHF       INT
 CPU TIMES  *        24.76      4.66      3.83     12.24      3.99
 REAL TIME  *        27.79 SEC
 DISK USED  *         1.18 GB      
 GA USED    *         0.00 MB       (max)       0.00 MB       (current)
 **********************************************************************************************************************************


1PROGRAM * MP2 (Closed-shell)     Authors: C. Hampel, H.-J. Werner, 1991, M. Deegan, P.J. Knowles, 1992


 Convergence thresholds:  THRVAR = 1.00D-08  THRDEN = 1.00D-12

 Number of core orbitals:           6 (   6   0 )
 Number of closed-shell orbitals:  18 (  14   4 )
 Number of external orbitals:     134 (  92  42 )

 Molecular orbitals read from record     2101.2  Type=RHF/CANONICAL (state 1.1)

 Number of N-1 electron functions:              18
 Number of N-2 electron functions:             171
 Number of singly external CSFs:              1456
 Number of doubly external CSFs:           1518142
 Total number of CSFs:                     1519599

 Length of J-op  integral file:               0.00 MB
 Length of K-op  integral file:               1.05 MB

 Integral transformation finished. Total CPU:   0.49 sec, npass=  1  Memory used:   2.48 MW

 Memory needed for MP2:                      0.07 MW

 SCS-MP2 correlation energy:           -1.026323377183   (PS=  1.200000  PT=  0.333333)
 SCS-MP2 total energy:               -378.638155362722


  Reference energy                   -377.611831985539
  MP2 singlet pair energy              -0.631983372969
  MP2 triplet pair energy              -0.430623208319
  MP2 correlation energy               -1.062606581288

 !MP2 total energy                   -378.674438566827


 **********************************************************************************************************************************
 DATASETS  * FILE   NREC   LENGTH (MB)   RECORD NAMES
              1      21      348.19       500      610      700      701      900      950      970     1001      129      960   
                                          VAR    BASINP    GEOM     GEOM    SYMINP    ZMAT    AOBASIS   BASIS     P2S    ABASIS    
                                         1100     1400     1410     1200     1210     1080     1600     1650     1300     1700   
                                           S        T        V       H0       H01     AOSYM     SMH    MOLCAS    ERIS     OPER   
                                         1380   
                                         JKOP   

              2       6        2.14       700     1000     2100      701     1001     2101   
                                         GEOM     BASIS     RHF     GEOM     BASIS     RHF  

 PROGRAMS   *        TOTAL       MP2       RHF       INT       RHF       INT
 CPU TIMES  *        25.31      0.55      4.66      3.83     12.24      3.99
 REAL TIME  *        28.44 SEC
 DISK USED  *         1.18 GB      
 GA USED    *         0.00 MB       (max)       0.00 MB       (current)
 **********************************************************************************************************************************

        MP2             RHF-SCF         RHF-SCF 
   -378.67443857   -377.61183199   -377.61192475
 **********************************************************************************************************************************
 Variable memory released
