
 Primary working directories    : /tmp/944438.217.gen5.q
 Secondary working directories  : /tmp/944438.217.gen5.q
 Wavefunction directory         : /home/vulcan/mel64643/wfu/
 Main file repository           : /tmp/944438.217.gen5.q/

 ARCHNAME  : Linux/x86_64
 FC        : /opt/intel/compilers_and_libraries_2016.1.150/linux/bin/intel64/ifort
 FCVERSION : 16.0.1
 BLASLIB   : -mkl
 id        : ccgc

 Nodes     nprocs
 n073         1
 ga_uses_ma=false, calling ma_init with nominal heap.
 GA-space will be limited to   8.0 MW (determined by -G option)

 Using customized tuning parameters: mindgm=10; mindgv=16; mindgc=4; mindgr=1; noblas=0; mincuda=1000; minvec=7
 default implementation of scratch files=df  

 ***,Optimization of min3
 memory,1000,m
 gthresh,energy=1.0d-12,orbital=1.0d-10,oneint=1.0d-16,twoint=1.0d-16,optgrad=1.0d-6,compress=1.0d-13
 geomtyp=xyz
 
 
 
  bohr
  geometry = {
  C   -0.2867863364    2.3989834946   -2.1314124329
  C    0.7651435482    0.0042785948   -0.8954935111
  C    0.1919732225    0.0043710603    1.8323349627
  N   -0.2967246362    0.0044278100    3.9755783083
  H    2.8245580527    0.0051115404   -1.0662772139
  C   -0.2899334707   -2.4033090505   -2.1368719354
  H   -2.3444539062   -2.4588390442   -1.9580959261
  H    0.4767900708   -4.0991535158   -1.2525055096
  H    0.2032024740   -2.4196425797   -4.1396130423
  H   -2.3413521172    2.4528535680   -1.9526496598
  H    0.2063360996    2.4152411963   -4.1341574830
  H    0.4785310288    4.0956769259   -1.2474564694
 }
 
 basis=cc-pvdz
 {rhf;maxit,200}
 {ccsd(t);maxit,200}

 Variables initialized (661), CPU time= 0.00 sec
 Commands  initialized (458), CPU time= 0.00 sec, 486 directives.
 Default parameters read. Elapsed time= 0.04 sec

 Checking input...
 Passed
1


                                         ***  PROGRAM SYSTEM MOLPRO  ***
                         Copyright, University College Cardiff Consultants Limited, 2008

                                    Version 2010.1 linked May 16 2016 07:17:05


 **********************************************************************************************************************************
 LABEL *   Optimization of min3                                                          
 Linux-4.4.3/n073(x86_64) 64 bit mpp version                                             DATE: 27-Oct-23          TIME: 10:39:19  
 **********************************************************************************************************************************

 SHA1:             9e8077add272b0f3cad6f7df79ec5211205f459d
 **********************************************************************************************************************************

 THRESHOLDS:

 ZERO    =  1.00D-12  ONEINT  =  1.00D-16  TWOINT  =  1.00D-16  PREFAC  =  1.00D-14  LOCALI  =  1.00D-09  EORDER  =  1.00D-04
 ENERGY  =  1.00D-12  ETEST   =  0.00D+00  EDENS   =  0.00D+00  THRDEDEF=  1.00D-06  GRADIENT=  1.00D-02  STEP    =  1.00D-03
 ORBITAL =  1.00D-10  CIVEC   =  1.00D-05  COEFF   =  1.00D-04  PRINTCI =  5.00D-02  PUNCHCI =  9.90D+01  OPTGRAD =  1.00D-06
 OPTENERG=  1.00D-06  OPTSTEP =  3.00D-04  THRGRAD =  1.00D-10  COMPRESS=  1.00D-13  VARMIN  =  1.00D-07  VARMAX  =  1.00D-03
 THRDOUB =  0.00D+00  THRDIV  =  1.00D-05  THRRED  =  1.00D-07  THRPSP  =  1.00D+00  THRDC   =  1.00D-10  THRCS   =  1.00D-10
 THRNRM  =  1.00D-08  THREQ   =  0.00D+00  THRDE   =  1.00D+00  THRREF  =  1.00D-05  SPARFAC =  1.00D+00  THRDLP  =  1.00D-07
 THRDIA  =  1.00D-10  THRDLS  =  1.00D-07  THRGPS  =  0.00D+00  THRKEX  =  0.00D+00  THRDIS  =  2.00D-01  THRVAR  =  1.00D-10
 THRLOC  =  1.00D-06  THRGAP  =  1.00D-06  THRLOCT = -1.00D+00  THRGAPT = -1.00D+00  THRORB  =  1.00D-06  THRMLTP =  0.00D+00
 THRCPQCI=  1.00D-10  KEXTA   =  0.00D+00  THRCOARS=  0.00D+00  SYMTOL  =  1.00D-06  GRADTOL =  1.00D-06  THROVL  =  1.00D-08
 THRORTH =  1.00D-08  GRID    =  1.00D-06  GRIDMAX =  1.00D-03  DTMAX   =  0.00D+00

 SETTING GEOMTYP        =    XYZ
 ZUNIT=BOHR
 

 Variable memory set to 1000000000 words,  buffer space   230000 words

 SETTING BASIS          =    CC-PVDZ


 Recomputing integrals since basis changed


 Using spherical harmonics

 Library entry C      S cc-pVDZ              selected for orbital group  1
 Library entry C      P cc-pVDZ              selected for orbital group  1
 Library entry C      D cc-pVDZ              selected for orbital group  1
 Library entry N      S cc-pVDZ              selected for orbital group  2
 Library entry N      P cc-pVDZ              selected for orbital group  2
 Library entry N      D cc-pVDZ              selected for orbital group  2
 Library entry H      S cc-pVDZ              selected for orbital group  3
 Library entry H      P cc-pVDZ              selected for orbital group  3

1PROGRAM * SEWARD (Integral evaluation for generally contracted gaussian basis sets)     Author: Roland Lindh, 1990

 Geometry written to block  1 of record 700


 Point group  C1  



 ATOMIC COORDINATES

 NR  ATOM    CHARGE       X              Y              Z

   1  C       6.00   -0.286786336    2.398983495   -2.131412433
   2  C       6.00    0.765143548    0.004278595   -0.895493511
   3  C       6.00    0.191973223    0.004371060    1.832334963
   4  N       7.00   -0.296724636    0.004427810    3.975578308
   5  H       1.00    2.824558053    0.005111540   -1.066277214
   6  C       6.00   -0.289933471   -2.403309050   -2.136871935
   7  H       1.00   -2.344453906   -2.458839044   -1.958095926
   8  H       1.00    0.476790071   -4.099153516   -1.252505510
   9  H       1.00    0.203202474   -2.419642580   -4.139613042
  10  H       1.00   -2.341352117    2.452853568   -1.952649660
  11  H       1.00    0.206336100    2.415241196   -4.134157483
  12  H       1.00    0.478531029    4.095676926   -1.247456469

 Bond lengths in Bohr (Angstrom)

  1- 2  2.892864259   1-10  2.063031425   1-11  2.062624975   1-12  2.060547843   2- 3  2.787395274
       ( 1.530837835)       ( 1.091709212)       ( 1.091494127)       ( 1.090394957)       ( 1.475026051)

 2-5  2.066483939  2-6  2.907006395  3-4  2.198253315  6-7  2.063031425  6-8  2.060547843
     ( 1.093536203)     ( 1.538321530)     ( 1.163265554)     ( 1.091709212)     ( 1.090394957)

 6-9  2.062624974
     ( 1.091494127)

 Bond angles

  1- 2- 3  110.07805271   1- 2- 5  109.07122528   1- 2- 6  111.78757136   2- 1-10  110.28761032

  2- 1-11  109.53710888   2- 1-12  111.30230143   2- 3- 4  179.02148592   2- 6- 7  110.28761032

  2-6-8  111.30230143   2-6-9  109.53710887   3-2-5  106.60693501   3-2-6  110.07805272

  5-2-6  109.07122528   7-6-8  108.13258474   7-6-9  108.78533006   8-6-9  108.73856886

 10- 1-11  108.78533007  10- 1-12  108.13258473  11- 1-12  108.73856886

 NUCLEAR CHARGE:                   38
 NUMBER OF PRIMITIVE AOS:         184
 NUMBER OF SYMMETRY AOS:          179
 NUMBER OF CONTRACTIONS:          105   ( 105A   )
 NUMBER OF CORE ORBITALS:           5   (   5A   )
 NUMBER OF VALENCE ORBITALS:       27   (  27A   )


 NUCLEAR REPULSION ENERGY  158.94667735


 Eigenvalues of metric

         1 0.197E-02 0.463E-02 0.573E-02 0.601E-02 0.167E-01 0.195E-01 0.210E-01 0.264E-01


 Contracted 2-electron integrals neglected if value below      1.0D-16
 AO integral compression algorithm  1   Integral accuracy      1.0D-16

     129.499 MB (compressed) written to integral file ( 94.7%)

     Node minimum: 129.499 MB, node maximum: 129.499 MB


 NUMBER OF SORTED TWO-ELECTRON INTEGRALS:   15487395.     BUFFER LENGTH:  32768
 NUMBER OF SEGMENTS:   1  SEGMENT LENGTH:   15487395      RECORD LENGTH: 524288

 Memory used in sort:      16.04 MW

 SORT1 READ    17101285. AND WROTE    15442593. INTEGRALS IN     45 RECORDS. CPU TIME:     0.16 SEC, REAL TIME:     0.25 SEC
 SORT2 READ    15442593. AND WROTE    15487395. INTEGRALS IN    494 RECORDS. CPU TIME:     0.15 SEC, REAL TIME:     0.24 SEC

 FILE SIZES:   FILE 1:   120.4 MBYTE,  FILE 4:   188.8 MBYTE,   TOTAL:    309.2 MBYTE

 OPERATOR DM      FOR CENTER  0  COORDINATES:    0.000000    0.000000    0.000000


 **********************************************************************************************************************************
 DATASETS  * FILE   NREC   LENGTH (MB)   RECORD NAMES
              1      19      120.54       500      610      700      900      950      970     1000      129      960     1100   
                                          VAR    BASINP    GEOM    SYMINP    ZMAT    AOBASIS   BASIS     P2S    ABASIS      S 
                                         1400     1410     1200     1210     1080     1600     1650     1300     1700   
                                           T        V       H0       H01     AOSYM     SMH    MOLCAS    ERIS     OPER   

 PROGRAMS   *        TOTAL       INT
 CPU TIMES  *         1.96      1.91
 REAL TIME  *         2.43 SEC
 DISK USED  *       439.53 MB      
 GA USED    *         0.00 MB       (max)       0.00 MB       (current)
 **********************************************************************************************************************************

1PROGRAM * RHF-SCF (CLOSED SHELL)       Authors: W. Meyer, H.-J. Werner


 NUMBER OF ELECTRONS:      19+   19-    SPACE SYMMETRY=1    SPIN SYMMETRY: Singlet 
 CONVERGENCE THRESHOLDS:    1.00E-10 (Density)    1.00E-13 (Energy)
 MAX. NUMBER OF ITERATIONS:      200
 INTERPOLATION TYPE:            DIIS
 INTERPOLATION STEPS:              2 (START)      1 (STEP)
 LEVEL SHIFTS:                  0.00 (CLOSED)  0.00 (OPEN) 



 Orbital guess generated from atomic densities. Full valence occupancy:   32

 Molecular orbital dump at record        2100.2

 ITERATION    DDIFF          GRAD             ENERGY        2-EL.EN.            DIPOLE MOMENTS         DIIS
    1      0.000D+00      0.000D+00      -209.94376991    457.117877    0.48633    0.00022   -2.24854    0
    2      0.000D+00      0.590D-02      -209.98971945    456.672161    0.15094   -0.00108   -1.29257    1
    3      0.124D-01      0.414D-02      -210.01005181    456.357053    0.30703   -0.00100   -1.70088    2
    4      0.554D-02      0.106D-02      -210.01229887    456.684122    0.29368   -0.00125   -1.61262    3
    5      0.196D-02      0.235D-03      -210.01241698    456.524560    0.28735   -0.00121   -1.62398    4
    6      0.425D-03      0.579D-04      -210.01242637    456.543562    0.28756   -0.00124   -1.62205    5
    7      0.169D-03      0.160D-04      -210.01242692    456.541564    0.28792   -0.00125   -1.62336    6
    8      0.307D-04      0.501D-05      -210.01242697    456.541235    0.28779   -0.00125   -1.62347    7
    9      0.110D-04      0.107D-05      -210.01242697    456.541170    0.28782   -0.00125   -1.62346    7
   10      0.263D-05      0.384D-06      -210.01242697    456.541267    0.28782   -0.00125   -1.62349    7
   11      0.967D-06      0.203D-06      -210.01242697    456.541234    0.28781   -0.00125   -1.62348    7
   12      0.691D-06      0.929D-07      -210.01242697    456.541251    0.28781   -0.00125   -1.62348    7
   13      0.437D-06      0.238D-07      -210.01242697    456.541244    0.28781   -0.00125   -1.62348    8
   14      0.113D-06      0.457D-08      -210.01242697    456.541244    0.28781   -0.00125   -1.62348    8
   15      0.144D-07      0.178D-08      -210.01242697    456.541244    0.28781   -0.00125   -1.62348    8
   16      0.345D-08      0.527D-09      -210.01242697    456.541244    0.28781   -0.00125   -1.62348    8
   17      0.112D-08      0.104D-09      -210.01242697    456.541244    0.28781   -0.00125   -1.62348    8
   18      0.234D-09      0.259D-10      -210.01242697    456.541244    0.28781   -0.00125   -1.62348    7
   19      0.604D-10      0.893D-11      -210.01242697    456.541244    0.28781   -0.00125   -1.62348    7
   20      0.210D-10      0.330D-11      -210.01242697    456.541244    0.28781   -0.00125   -1.62348    7
   21      0.845D-11      0.130D-11      -210.01242697    456.541244    0.28781   -0.00125   -1.62348    7
   22      0.325D-11      0.632D-12      -210.01242697    456.541244    0.28781   -0.00125   -1.62348    7
   23      0.188D-11      0.307D-12      -210.01242697    456.541244    0.28781   -0.00125   -1.62348    8
   24      0.131D-11      0.123D-12      -210.01242697    456.541244    0.28781   -0.00125   -1.62348    8
   25      0.536D-12      0.524D-13      -210.01242697    456.541244    0.28781   -0.00125   -1.62348    0

 Final occupancy:  19

 !RHF STATE 1.1 Energy               -210.012426974659
 Nuclear energy                       158.94667735
 One-electron energy                 -597.22972639
 Two-electron energy                  228.27062206
 Virial quotient                       -1.00163695
 !RHF STATE 1.1 Dipole moment           0.28781189    -0.00124839    -1.62348442
 Dipole moment /Debye                   0.73149693    -0.00317289    -4.12621553

 Orbital energies:

         1.1          2.1          3.1          4.1          5.1          6.1          7.1          8.1          9.1         10.1
    -15.572650   -11.290167   -11.274808   -11.250415   -11.249837    -1.212683    -1.107761    -0.960740    -0.876252    -0.704307

        11.1         12.1         13.1         14.1         15.1         16.1         17.1         18.1         19.1         20.1
     -0.642528    -0.596539    -0.572617    -0.564211    -0.530211    -0.523638    -0.520112    -0.447542    -0.447222     0.155224

        21.1
      0.190275


 **********************************************************************************************************************************
 DATASETS  * FILE   NREC   LENGTH (MB)   RECORD NAMES
              1      19      120.54       500      610      700      900      950      970     1000      129      960     1100   
                                          VAR    BASINP    GEOM    SYMINP    ZMAT    AOBASIS   BASIS     P2S    ABASIS      S 
                                         1400     1410     1200     1210     1080     1600     1650     1300     1700   
                                           T        V       H0       H01     AOSYM     SMH    MOLCAS    ERIS     OPER   

              2       3        0.68       700     1000     2100   
                                         GEOM     BASIS     RHF  

 PROGRAMS   *        TOTAL       RHF       INT
 CPU TIMES  *         4.90      2.94      1.91
 REAL TIME  *         5.75 SEC
 DISK USED  *       439.53 MB      
 GA USED    *         0.00 MB       (max)       0.00 MB       (current)
 **********************************************************************************************************************************


1PROGRAM * CCSD (Closed-shell coupled cluster)     Authors: C. Hampel, H.-J. Werner, 1991, M. Deegan, P.J. Knowles, 1992


 Convergence thresholds:  THRVAR = 1.00D-08  THRDEN = 1.00D-12

 CCSD(T)     terms to be evaluated (factor= 1.000)


 Number of core orbitals:           5 (   5 )
 Number of closed-shell orbitals:  14 (  14 )
 Number of external orbitals:      86 (  86 )

 Molecular orbitals read from record     2100.2  Type=RHF/CANONICAL (state 1.1)

 Number of N-1 electron functions:              14
 Number of N-2 electron functions:             105
 Number of singly external CSFs:              1204
 Number of doubly external CSFs:            725410
 Total number of CSFs:                      726615

 Length of J-op  integral file:               0.00 MB
 Length of K-op  integral file:               0.79 MB
 Length of 3-ext integral record:             0.00 MB

 Memory could be reduced to 12.72 Mwords without degradation in triples

 Integral transformation finished. Total CPU:   0.75 sec, npass=  1  Memory used:  10.92 MW

 Reference energy:                   -210.01242697

 MP2 singlet pair energy:              -0.45163399
 MP2 triplet pair energy:              -0.25975860
 MP2 correlation energy:               -0.71139259
 MP2 total energy:                   -210.72381957

 SCS-MP2 correlation energy:           -0.70358836   (PS=  1.200000  PT=  0.333333)
 SCS-MP2 total energy:               -210.71601533

 ITER.      SQ.NORM     CORR.ENERGY   TOTAL ENERGY   ENERGY CHANGE        DEN1      VAR(S)    VAR(P)  DIIS     TIME
   1      1.27015959    -0.75346773  -210.76589470    -0.04207514    -0.01887850  0.35D-02  0.56D-02  1  1     2.58
   2      1.29282003    -0.75712522  -210.76955219    -0.00365749    -0.02204527  0.58D-04  0.76D-03  2  2     4.46
   3      1.30020184    -0.75750187  -210.76992884    -0.00037665    -0.00407657  0.27D-04  0.55D-04  3  3     6.36
   4      1.30276668    -0.75759862  -210.77002559    -0.00009675    -0.00100779  0.13D-05  0.65D-05  4  4     8.24
   5      1.30333412    -0.75760718  -210.77003416    -0.00000856    -0.00016830  0.16D-06  0.78D-06  5  5    10.13
   6      1.30345692    -0.75760161  -210.77002859     0.00000557    -0.00003130  0.97D-08  0.53D-07  6  6    12.01
   7      1.30347506    -0.75760401  -210.77003098    -0.00000240    -0.00000405  0.15D-08  0.48D-08  6  2    13.91
   8      1.30347650    -0.75760393  -210.77003091     0.00000008    -0.00000004  0.14D-09  0.42D-09  6  1    15.79
   9      1.30347685    -0.75760392  -210.77003089     0.00000002     0.00000023  0.16D-10  0.36D-10  6  3    17.69
  10      1.30347712    -0.75760393  -210.77003090    -0.00000001    -0.00000006  0.17D-11  0.33D-11  6  4    19.58
  11      1.30347674    -0.75760395  -210.77003093    -0.00000002     0.00000022  0.35D-12  0.34D-12  6  6    21.46
  12      1.30347667    -0.75760396  -210.77003093    -0.00000001     0.00000004  0.44D-13  0.27D-13  6  5    23.35
  13      1.30347663    -0.75760396  -210.77003094    -0.00000000     0.00000002  0.52D-14  0.45D-14  6  2    25.23
  14      1.30347663    -0.75760396  -210.77003094     0.00000000     0.00000000  0.15D-14  0.65D-15  6  1    27.12
  15      1.30347663    -0.75760396  -210.77003094     0.00000000    -0.00000000  0.10D-15  0.10D-15  6  4    29.01
  16      1.30347663    -0.75760396  -210.77003094     0.00000000    -0.00000000  0.15D-16  0.71D-17  6  3    30.90
  17      1.30347663    -0.75760396  -210.77003094     0.00000000    -0.00000000  0.33D-17  0.15D-17  6  6    32.79
  18      1.30347663    -0.75760396  -210.77003094    -0.00000000    -0.00000000  0.54D-18  0.25D-18  6  5    34.68
  19      1.30347663    -0.75760396  -210.77003094     0.00000000     0.00000000  0.59D-19  0.41D-19  6  2    36.56
  20      1.30347663    -0.75760396  -210.77003094     0.00000000    -0.00000000  0.63D-20  0.39D-20  6  4    38.45

 Norm of t1 vector:      0.07770516      S-energy:    -0.00000000      T1 diagnostic:  0.01038379
                                                                       D1 diagnostic:  0.02936165


 Total CPU time for triples:     22.78 sec


 RESULTS
 =======

  Reference energy                   -210.012426974660
  CCSD singlet pair energy             -0.527325017979
  CCSD triplet pair energy             -0.230278944203
  CCSD correlation energy              -0.757603962182

  Triples (T) contribution             -0.026791005136
  Total correlation energy             -0.784394967318

  CCSD total energy                  -210.770030936842
  CCSD[T] energy                     -210.797831288890
  CCSD-T energy                      -210.796352108670
 !CCSD(T) total energy               -210.796821941978

 Timing summary (sec):

 STEP                 CPU(USER)    SYS     CPU(TOT)    WALL
 Transformation          0.78      0.09      0.87      0.87
 CCSD iterations        37.68      1.10     38.78     38.82
 Triples                22.78      0.50     23.28     23.29

 Program statistics:

 Available memory in ccsd:               999999116
 Min. memory needed in ccsd:               1995783
 Max. memory used in ccsd:                 2628247
 Max. memory used in cckext:               2458865 (20 integral passes)



 **********************************************************************************************************************************
 DATASETS  * FILE   NREC   LENGTH (MB)   RECORD NAMES
              1      20      170.69       500      610      700      900      950      970     1000      129      960     1100   
                                          VAR    BASINP    GEOM    SYMINP    ZMAT    AOBASIS   BASIS     P2S    ABASIS      S 
                                         1400     1410     1200     1210     1080     1600     1650     1300     1700     1380   
                                           T        V       H0       H01     AOSYM     SMH    MOLCAS    ERIS     OPER     JKOP   

              2       3        0.68       700     1000     2100   
                                         GEOM     BASIS     RHF  

 PROGRAMS   *        TOTAL   CCSD(T)       RHF       INT
 CPU TIMES  *        66.15     61.25      2.94      1.91
 REAL TIME  *        68.78 SEC
 DISK USED  *       439.53 MB      
 GA USED    *         0.00 MB       (max)       0.00 MB       (current)
 **********************************************************************************************************************************

        CCSD(T)         RHF-SCF 
   -210.79682194   -210.01242697
 **********************************************************************************************************************************
 Variable memory released
