
 Primary working directories    : /tmp/872836.1.gen4.q
 Secondary working directories  : /tmp/872836.1.gen4.q
 Wavefunction directory         : /home/vulcan/lo21740/wfu/
 Main file repository           : /tmp/872836.1.gen4.q/

 ARCHNAME  : Linux/x86_64
 FC        : /opt/intel/compilers_and_libraries_2016.1.150/linux/bin/intel64/ifort
 FCVERSION : 16.0.1
 BLASLIB   : -mkl
 id        : ccgc

 Nodes     nprocs
 n022         3
 Number of processes for MPI-2 version of Molpro:   nprocs(total)=    4   nprocs(compute)=    3   nprocs(helper)=    1
 ga_uses_ma=false, calling ma_init with nominal heap.
 GA-space will be limited to   8.0 MW (determined by -G option)

 Using customized tuning parameters: mindgm=10; mindgv=16; mindgc=4; mindgr=1; noblas=0; mincuda=1000; minvec=7
 default implementation of scratch files=sf  

 ***,Optimization of formic acid
 memory,1000,m
 gthresh,energy=1.0d-12,orbital=1.0d-10,oneint=1.0d-16,twoint=1.0d-16,optgrad=1.0d-6,compress=1.0d-13
 geomtyp=xyz
 
 bohr
 geometry = {
  C   -3.5009830771   -0.8306211645   -0.0019766118
  O   -3.0924152417    1.6226521865    0.0003198671
  O   -1.8870353697   -2.4813530330    0.0006172802
  H   -5.5196413737   -1.2736293493    0.0005940348
  H   -1.2451679398    1.9538316082    0.0004454297
  C    3.5009830771    0.8306211645   -0.0019766118
  O    3.0924152417   -1.6226521865    0.0003198671
  O    1.8870353697    2.4813530330    0.0006172802
  H    5.5196413737    1.2736293493    0.0005940348
  H    1.2451679398   -1.9538316082    0.0004454297
 }
 
 basis=AVTZ
 {rhf;maxit,200}
 {mp2}

 Variables initialized (661), CPU time= 0.00 sec
 Commands  initialized (458), CPU time= 0.01 sec, 486 directives.
 Default parameters read. Elapsed time= 0.08 sec

 Checking input...
 Passed
1


                                         ***  PROGRAM SYSTEM MOLPRO  ***
                         Copyright, University College Cardiff Consultants Limited, 2008

                                    Version 2010.1 linked May 16 2016 07:17:05


 **********************************************************************************************************************************
 LABEL *   Optimization of formic acid                                                   
 Linux-4.4.3/n022(x86_64) 64 bit mpp version                                             DATE: 15-May-23          TIME: 15:31:23  
 **********************************************************************************************************************************

 SHA1:             9e8077add272b0f3cad6f7df79ec5211205f459d
 **********************************************************************************************************************************

 THRESHOLDS:

 ZERO    =  1.00D-12  ONEINT  =  1.00D-16  TWOINT  =  1.00D-16  PREFAC  =  1.00D-14  LOCALI  =  1.00D-09  EORDER  =  1.00D-04
 ENERGY  =  1.00D-12  ETEST   =  0.00D+00  EDENS   =  0.00D+00  THRDEDEF=  1.00D-06  GRADIENT=  1.00D-02  STEP    =  1.00D-03
 ORBITAL =  1.00D-10  CIVEC   =  1.00D-05  COEFF   =  1.00D-04  PRINTCI =  5.00D-02  PUNCHCI =  9.90D+01  OPTGRAD =  1.00D-06
 OPTENERG=  1.00D-06  OPTSTEP =  3.00D-04  THRGRAD =  1.00D-10  COMPRESS=  1.00D-13  VARMIN  =  1.00D-07  VARMAX  =  1.00D-03
 THRDOUB =  0.00D+00  THRDIV  =  1.00D-05  THRRED  =  1.00D-07  THRPSP  =  1.00D+00  THRDC   =  1.00D-10  THRCS   =  1.00D-10
 THRNRM  =  1.00D-08  THREQ   =  0.00D+00  THRDE   =  1.00D+00  THRREF  =  1.00D-05  SPARFAC =  1.00D+00  THRDLP  =  1.00D-07
 THRDIA  =  1.00D-10  THRDLS  =  1.00D-07  THRGPS  =  0.00D+00  THRKEX  =  0.00D+00  THRDIS  =  2.00D-01  THRVAR  =  1.00D-10
 THRLOC  =  1.00D-06  THRGAP  =  1.00D-06  THRLOCT = -1.00D+00  THRGAPT = -1.00D+00  THRORB  =  1.00D-06  THRMLTP =  0.00D+00
 THRCPQCI=  1.00D-10  KEXTA   =  0.00D+00  THRCOARS=  0.00D+00  SYMTOL  =  1.00D-06  GRADTOL =  1.00D-06  THROVL  =  1.00D-08
 THRORTH =  1.00D-08  GRID    =  1.00D-06  GRIDMAX =  1.00D-03  DTMAX   =  0.00D+00

 SETTING GEOMTYP        =    XYZ
 ZUNIT=BOHR
 

 Variable memory set to 1000000000 words,  buffer space   230000 words

 SETTING BASIS          =    AVTZ


 Recomputing integrals since basis changed


 Using spherical harmonics

 Library entry C      S aug-cc-pVTZ          selected for orbital group  1
 Library entry C      P aug-cc-pVTZ          selected for orbital group  1
 Library entry C      D aug-cc-pVTZ          selected for orbital group  1
 Library entry C      F aug-cc-pVTZ          selected for orbital group  1
 Library entry O      S aug-cc-pVTZ          selected for orbital group  2
 Library entry O      P aug-cc-pVTZ          selected for orbital group  2
 Library entry O      D aug-cc-pVTZ          selected for orbital group  2
 Library entry O      F aug-cc-pVTZ          selected for orbital group  2
 Library entry H      S aug-cc-pVTZ          selected for orbital group  3
 Library entry H      P aug-cc-pVTZ          selected for orbital group  3
 Library entry H      D aug-cc-pVTZ          selected for orbital group  3

1PROGRAM * SEWARD (Integral evaluation for generally contracted gaussian basis sets)     Author: Roland Lindh, 1990

 Geometry written to block  1 of record 700


 Point group  C2  



 ATOMIC COORDINATES

 NR  ATOM    CHARGE       X              Y              Z

   1  C       6.00   -3.500983077   -0.830621165   -0.001976612
   2  C       6.00    3.500983077    0.830621165   -0.001976612
   3  O       8.00   -3.092415242    1.622652187    0.000319867
   4  O       8.00    3.092415242   -1.622652187    0.000319867
   5  O       8.00   -1.887035370   -2.481353033    0.000617280
   6  O       8.00    1.887035370    2.481353033    0.000617280
   7  H       1.00   -5.519641374   -1.273629349    0.000594035
   8  H       1.00    5.519641374    1.273629349    0.000594035
   9  H       1.00   -1.245167940    1.953831608    0.000445430
  10  H       1.00    1.245167940   -1.953831608    0.000445430

 Bond lengths in Bohr (Angstrom)

 1-3  2.487063144  1-5  2.308625052  1-7  2.066698860  2-4  2.487063144  2-6  2.308625052
     ( 1.316097133)     ( 1.221671762)     ( 1.093649935)     ( 1.316097133)     ( 1.221671762)

  2- 8  2.066698860   3- 9  1.876699875   4-10  1.876699875
       ( 1.093649935)       ( 0.993106802)       ( 0.993106802)

 Bond angles

  1- 3- 9  109.61940715   2- 4-10  109.61940715   3- 1- 5  126.19017035   3- 1- 7  111.83288134

  4-2-6  126.19017035   4-2-8  111.83288134   5-1-7  121.97658724   6-2-8  121.97658724

 NUCLEAR CHARGE:                   48
 NUMBER OF PRIMITIVE AOS:         510
 NUMBER OF SYMMETRY AOS:          448
 NUMBER OF CONTRACTIONS:          368   ( 184A   + 184B   )
 NUMBER OF CORE ORBITALS:           6   (   3A   +   3B   )
 NUMBER OF VALENCE ORBITALS:       28   (  14A   +  14B   )


 NUCLEAR REPULSION ENERGY  235.56390654


 Eigenvalues of metric

         1 0.341E-04 0.627E-04 0.168E-03 0.231E-03 0.272E-03 0.341E-03 0.534E-03 0.640E-03
         2 0.373E-04 0.554E-04 0.145E-03 0.224E-03 0.262E-03 0.380E-03 0.520E-03 0.660E-03


 Contracted 2-electron integrals neglected if value below      1.0D-16
 AO integral compression algorithm  1   Integral accuracy      1.0D-16

     9874.440 MB (compressed) written to integral file ( 88.4%)

     Node minimum: 2580.021 MB, node maximum: 3662.938 MB


 NUMBER OF SORTED TWO-ELECTRON INTEGRALS:  386229186.     BUFFER LENGTH:  32768
 NUMBER OF SEGMENTS:  13  SEGMENT LENGTH:   31999488      RECORD LENGTH: 524288

 Memory used in sort:      32.56 MW

 SORT1 READ  1395541424. AND WROTE   383754731. INTEGRALS IN   1104 RECORDS. CPU TIME:    77.87 SEC, REAL TIME:   102.59 SEC
 SORT2 READ  1151457944. AND WROTE  1158738620. INTEGRALS IN  29526 RECORDS. CPU TIME:     7.90 SEC, REAL TIME:    63.05 SEC

 Node minimum:   386217840.  Node maximum:   386291594. integrals

 OPERATOR DM      FOR CENTER  0  COORDINATES:    0.000000    0.000000    0.000000


 **********************************************************************************************************************************
 DATASETS  * FILE   NREC   LENGTH (MB)   RECORD NAMES
              1      18        5.28       500      610      700      900      950      970     1000      129      960     1100   
                                          VAR    BASINP    GEOM    SYMINP    ZMAT    AOBASIS   BASIS     P2S    ABASIS      S 
                                         1400     1410     1200     1210     1080     1600     1650     1700   
                                           T        V       H0       H01     AOSYM     SMH    MOLCAS    OPER   

 PROGRAMS   *        TOTAL       INT
 CPU TIMES  *       107.21    107.12
 REAL TIME  *       210.62 SEC
 DISK USED  *        23.91 GB      
 GA USED    *         0.00 MB       (max)       0.00 MB       (current)
 **********************************************************************************************************************************

1PROGRAM * RHF-SCF (CLOSED SHELL)       Authors: W. Meyer, H.-J. Werner


 NUMBER OF ELECTRONS:      24+   24-
 CONVERGENCE THRESHOLDS:    1.00E-10 (Density)    1.00E-13 (Energy)
 MAX. NUMBER OF ITERATIONS:      200
 INTERPOLATION TYPE:            DIIS
 INTERPOLATION STEPS:              2 (START)      1 (STEP)
 LEVEL SHIFTS:                  0.00 (CLOSED)  0.00 (OPEN) 



 Orbital guess generated from atomic densities. Full valence occupancy:   17  17

 Molecular orbital dump at record        2100.2

 Initial alpha occupancy:  12  12
 Initial beta  occupancy:  12  12
 Wave function symmetry:    1

 ITERATION    DDIFF          GRAD             ENERGY        2-EL.EN.            DIPOLE MOMENTS         DIIS
    1      0.000D+00      0.000D+00      -377.56705730    747.097584    0.00000    0.00000   -0.00567    0
    2      0.000D+00      0.455D-02      -377.65498024    743.990555    0.00000    0.00000    0.00000    1
    3      0.743D-02      0.298D-02      -377.70474602    746.348144    0.00000    0.00000   -0.00222    2
    4      0.290D-02      0.400D-03      -377.70632839    745.993494    0.00000    0.00000   -0.00213    3
    5      0.603D-03      0.176D-03      -377.70661331    746.033509    0.00000    0.00000   -0.00210    4
    6      0.234D-03      0.506D-04      -377.70666060    746.079247    0.00000    0.00000   -0.00210    5
    7      0.875D-04      0.218D-04      -377.70667153    746.060312    0.00000    0.00000   -0.00210    6
    8      0.474D-04      0.711D-05      -377.70667290    746.066583    0.00000    0.00000   -0.00210    7
    9      0.184D-04      0.231D-05      -377.70667303    746.065194    0.00000    0.00000   -0.00210    8
   10      0.571D-05      0.675D-06      -377.70667304    746.065390    0.00000    0.00000   -0.00210    8
   11      0.184D-05      0.214D-06      -377.70667304    746.065353    0.00000    0.00000   -0.00210    8
   12      0.595D-06      0.388D-07      -377.70667304    746.065343    0.00000    0.00000   -0.00210    8
   13      0.926D-07      0.139D-07      -377.70667304    746.065347    0.00000    0.00000   -0.00210    8
   14      0.298D-07      0.369D-08      -377.70667304    746.065347    0.00000    0.00000   -0.00210    7
   15      0.699D-08      0.117D-08      -377.70667304    746.065346    0.00000    0.00000   -0.00210    7
   16      0.207D-08      0.519D-09      -377.70667304    746.065347    0.00000    0.00000   -0.00210    8
   17      0.904D-09      0.164D-09      -377.70667304    746.065347    0.00000    0.00000   -0.00210    8
   18      0.271D-09      0.418D-10      -377.70667304    746.065347    0.00000    0.00000   -0.00210    8
   19      0.747D-10      0.175D-10      -377.70667304    746.065347    0.00000    0.00000   -0.00210    8
   20      0.364D-10      0.588D-11      -377.70667304    746.065347    0.00000    0.00000   -0.00210    8
   21      0.172D-10      0.187D-11      -377.70667304    746.065347    0.00000    0.00000   -0.00210    8
   22      0.896D-11      0.564D-12      -377.70667304    746.065347    0.00000    0.00000   -0.00210    8
   23      0.753D-11      0.304D-12      -377.70667304    746.065347    0.00000    0.00000   -0.00210    8
   24      0.986D-11      0.135D-12      -377.70667304    746.065347    0.00000    0.00000   -0.00210    8
   25      0.712D-11      0.970D-13      -377.70667304    746.065347    0.00000    0.00000   -0.00210    9
   26      0.314D-11      0.870D-13      -377.70667304    746.065347    0.00000    0.00000   -0.00210    9
   27      0.286D-11      0.907D-13      -377.70667304    746.065347    0.00000    0.00000   -0.00210    9
   28      0.137D-11      0.928D-13      -377.70667304    746.065347    0.00000    0.00000   -0.00210    9
   29      0.145D-11      0.120D-12      -377.70667304    746.065347    0.00000    0.00000   -0.00210    0

 Final occupancy:  12  12

 !RHF STATE 1.1 Energy               -377.706673043645
 Nuclear energy                       235.56390654
 One-electron energy                 -986.30325296
 Two-electron energy                  373.03267337
 Virial quotient                       -1.00179998
 !RHF STATE 1.1 Dipole moment           0.00000000     0.00000000    -0.00210116
 Dipole moment /Debye                   0.00000000     0.00000000    -0.00534026

 Orbital energies:

         1.1          2.1          3.1          4.1          5.1          6.1          7.1          8.1          9.1         10.1
    -20.617542   -20.577135   -11.409004    -1.485830    -1.373785    -0.919983    -0.733850    -0.696242    -0.645584    -0.621994

        11.1         12.1         13.1         14.1
     -0.498385    -0.495831     0.029623     0.054809

         1.2          2.2          3.2          4.2          5.2          6.2          7.2          8.2          9.2         10.2
    -20.617542   -20.577136   -11.409004    -1.473094    -1.387770    -0.884504    -0.769564    -0.725033    -0.635220    -0.581626

        11.2         12.2         13.2         14.2
     -0.507424    -0.475873     0.033629     0.056830


 **********************************************************************************************************************************
 DATASETS  * FILE   NREC   LENGTH (MB)   RECORD NAMES
              1      18        5.28       500      610      700      900      950      970     1000      129      960     1100   
                                          VAR    BASINP    GEOM    SYMINP    ZMAT    AOBASIS   BASIS     P2S    ABASIS      S 
                                         1400     1410     1200     1210     1080     1600     1650     1700   
                                           T        V       H0       H01     AOSYM     SMH    MOLCAS    OPER   

              2       3        1.84       700     1000     2100   
                                         GEOM     BASIS     RHF  

 PROGRAMS   *        TOTAL       RHF       INT
 CPU TIMES  *       195.89     88.68    107.12
 REAL TIME  *       309.93 SEC
 DISK USED  *        23.95 GB      
 SF USED    *         0.27 MB      
 GA USED    *         0.00 MB       (max)       0.00 MB       (current)
 **********************************************************************************************************************************


1PROGRAM * MP2 (Closed-shell)     Authors: C. Hampel, H.-J. Werner, 1991, M. Deegan, P.J. Knowles, 1992


 Convergence thresholds:  THRVAR = 1.00D-08  THRDEN = 1.00D-12

 Number of core orbitals:           6 (   3   3 )
 Number of closed-shell orbitals:  18 (   9   9 )
 Number of external orbitals:     344 ( 172 172 )

 Molecular orbitals read from record     2100.2  Type=RHF/CANONICAL (state 1.1)

 Number of N-1 electron functions:              18
 Number of N-2 electron functions:             171
 Number of singly external CSFs:              3096
 Number of doubly external CSFs:           9588312
 Total number of CSFs:                     9591409

 Length of J-op  integral file:               0.00 MB
 Length of K-op  integral file:               4.67 MB

 Integral transformation finished. Total CPU:  15.13 sec, npass=  1  Memory used:  14.22 MW

 Memory needed for MP2:                      0.33 MW

 SCS-MP2 correlation energy:           -1.263598171836   (PS=  1.200000  PT=  0.333333)
 SCS-MP2 total energy:               -378.970271215480


  Reference energy                   -377.706673043644
  MP2 singlet pair energy              -0.793992262875
  MP2 triplet pair energy              -0.499511983478
  MP2 correlation energy               -1.293504246353

 !MP2 total energy                   -379.000177289996


 **********************************************************************************************************************************
 DATASETS  * FILE   NREC   LENGTH (MB)   RECORD NAMES
              1      19      146.07       500      610      700      900      950      970     1000      129      960     1100   
                                          VAR    BASINP    GEOM    SYMINP    ZMAT    AOBASIS   BASIS     P2S    ABASIS      S 
                                         1400     1410     1200     1210     1080     1600     1650     1700     1380   
                                           T        V       H0       H01     AOSYM     SMH    MOLCAS    OPER     JKOP   

              2       3        1.84       700     1000     2100   
                                         GEOM     BASIS     RHF  

 PROGRAMS   *        TOTAL       MP2       RHF       INT
 CPU TIMES  *       211.54     15.64     88.68    107.12
 REAL TIME  *       326.76 SEC
 DISK USED  *        23.95 GB      
 SF USED    *       350.07 MB      
 GA USED    *         0.00 MB       (max)       0.00 MB       (current)
 **********************************************************************************************************************************

        MP2             RHF-SCF 
   -379.00017729   -377.70667304
 **********************************************************************************************************************************
 Variable memory released
