
 Primary working directories    : /tmp/1047041.876.gen6.q
 Secondary working directories  : /tmp/1047041.876.gen6.q
 Wavefunction directory         : /home/vulcan/mel64643/wfu/
 Main file repository           : /tmp/1047041.876.gen6.q/

 ARCHNAME  : Linux/x86_64
 FC        : /opt/intel/compilers_and_libraries_2016.1.150/linux/bin/intel64/ifort
 FCVERSION : 16.0.1
 BLASLIB   : -mkl
 id        : ccgc

 Nodes     nprocs
 n080         1
 ga_uses_ma=false, calling ma_init with nominal heap.
 GA-space will be limited to   8.0 MW (determined by -G option)

 Using customized tuning parameters: mindgm=10; mindgv=16; mindgc=4; mindgr=1; noblas=0; mincuda=1000; minvec=7
 default implementation of scratch files=df  

 ***,Optimization of ben_hcn
 memory,1000,m
 gthresh,energy=1.0d-12,orbital=1.0d-10,oneint=1.0d-16,twoint=1.0d-16,optgrad=1.0d-6,compress=1.0d-13
 geomtyp=xyz
 
 
 
 bohr
 geometry = {
  C   -1.8863405573    1.3685698617    2.2844640061
  C   -1.8590247641    2.6892852684   -0.0054030524
  C   -1.8760149452    1.3666952954   -2.2942727304
  C   -1.9202836766   -1.2763998159   -2.2931917421
  C   -1.9475857186   -2.5969325185   -0.0034551912
  C   -1.9305884518   -1.2745447141    2.2853226254
  H   -1.8673552851    2.3930160051    4.0576897318
  H   -1.8190866328    4.7368695602    0.0010780051
  H   -1.8487687382    2.3959449230   -4.0646012135
  H   -1.9270019002   -2.3010463628   -4.0663592865
  H   -1.9752477395   -4.6446640162    0.0045690662
  H   -1.9452508083   -2.2914920185    4.0628742953
  N    6.6328293211   -0.1993742392    0.0069847770
  C    4.4431013596   -0.0767007285    0.0094757140
  H    2.4134197840    0.0372970479    0.0119255093
 }
 
 basis=aug-cc-pvdz, H=cc-pvdz
 {rhf;maxit,200}
 {ccsd(t)}

 Variables initialized (661), CPU time= 0.01 sec
 Commands  initialized (458), CPU time= 0.00 sec, 486 directives.
 Default parameters read. Elapsed time= 0.05 sec

 Checking input...
 Passed
1


                                         ***  PROGRAM SYSTEM MOLPRO  ***
                         Copyright, University College Cardiff Consultants Limited, 2008

                                    Version 2010.1 linked May 16 2016 07:17:05


 **********************************************************************************************************************************
 LABEL *   Optimization of ben_hcn                                                       
 Linux-4.4.3/n080(x86_64) 64 bit mpp version                                             DATE: 08-Mar-24          TIME: 14:35:37  
 **********************************************************************************************************************************

 SHA1:             9e8077add272b0f3cad6f7df79ec5211205f459d
 **********************************************************************************************************************************

 THRESHOLDS:

 ZERO    =  1.00D-12  ONEINT  =  1.00D-16  TWOINT  =  1.00D-16  PREFAC  =  1.00D-14  LOCALI  =  1.00D-09  EORDER  =  1.00D-04
 ENERGY  =  1.00D-12  ETEST   =  0.00D+00  EDENS   =  0.00D+00  THRDEDEF=  1.00D-06  GRADIENT=  1.00D-02  STEP    =  1.00D-03
 ORBITAL =  1.00D-10  CIVEC   =  1.00D-05  COEFF   =  1.00D-04  PRINTCI =  5.00D-02  PUNCHCI =  9.90D+01  OPTGRAD =  1.00D-06
 OPTENERG=  1.00D-06  OPTSTEP =  3.00D-04  THRGRAD =  1.00D-10  COMPRESS=  1.00D-13  VARMIN  =  1.00D-07  VARMAX  =  1.00D-03
 THRDOUB =  0.00D+00  THRDIV  =  1.00D-05  THRRED  =  1.00D-07  THRPSP  =  1.00D+00  THRDC   =  1.00D-10  THRCS   =  1.00D-10
 THRNRM  =  1.00D-08  THREQ   =  0.00D+00  THRDE   =  1.00D+00  THRREF  =  1.00D-05  SPARFAC =  1.00D+00  THRDLP  =  1.00D-07
 THRDIA  =  1.00D-10  THRDLS  =  1.00D-07  THRGPS  =  0.00D+00  THRKEX  =  0.00D+00  THRDIS  =  2.00D-01  THRVAR  =  1.00D-10
 THRLOC  =  1.00D-06  THRGAP  =  1.00D-06  THRLOCT = -1.00D+00  THRGAPT = -1.00D+00  THRORB  =  1.00D-06  THRMLTP =  0.00D+00
 THRCPQCI=  1.00D-10  KEXTA   =  0.00D+00  THRCOARS=  0.00D+00  SYMTOL  =  1.00D-06  GRADTOL =  1.00D-06  THROVL  =  1.00D-08
 THRORTH =  1.00D-08  GRID    =  1.00D-06  GRIDMAX =  1.00D-03  DTMAX   =  0.00D+00

 SETTING GEOMTYP        =    XYZ
 ZUNIT=BOHR
 

 Variable memory set to 1000000000 words,  buffer space   230000 words

 SETTING BASIS          =    AUG-CC-PVDZ,H=CC-PVDZ


 Recomputing integrals since basis changed


 Using spherical harmonics

 Library entry C      S aug-cc-pVDZ          selected for orbital group  1
 Library entry C      P aug-cc-pVDZ          selected for orbital group  1
 Library entry C      D aug-cc-pVDZ          selected for orbital group  1
 Library entry H      S cc-pVDZ              selected for orbital group  2
 Library entry H      P cc-pVDZ              selected for orbital group  2
 Library entry N      S aug-cc-pVDZ          selected for orbital group  3
 Library entry N      P aug-cc-pVDZ          selected for orbital group  3
 Library entry N      D aug-cc-pVDZ          selected for orbital group  3

1PROGRAM * SEWARD (Integral evaluation for generally contracted gaussian basis sets)     Author: Roland Lindh, 1990

 Geometry written to block  1 of record 700


 Point group  C1  



 ATOMIC COORDINATES

 NR  ATOM    CHARGE       X              Y              Z

   1  C       6.00   -1.886340557    1.368569862    2.284464006
   2  C       6.00   -1.859024764    2.689285268   -0.005403052
   3  C       6.00   -1.876014945    1.366695295   -2.294272730
   4  C       6.00   -1.920283677   -1.276399816   -2.293191742
   5  C       6.00   -1.947585719   -2.596932519   -0.003455191
   6  C       6.00   -1.930588452   -1.274544714    2.285322625
   7  H       1.00   -1.867355285    2.393016005    4.057689732
   8  H       1.00   -1.819086633    4.736869560    0.001078005
   9  H       1.00   -1.848768738    2.395944923   -4.064601213
  10  H       1.00   -1.927001900   -2.301046363   -4.066359287
  11  H       1.00   -1.975247740   -4.644664016    0.004569066
  12  H       1.00   -1.945250808   -2.291492019    4.062874295
  13  N       7.00    6.632829321   -0.199374239    0.006984777
  14  C       6.00    4.443101360   -0.076700728    0.009475714
  15  H       1.00    2.413419784    0.037297048    0.011925509

 Bond lengths in Bohr (Angstrom)

 1-2  2.643582131  1-6  2.643485062  1-7  2.047969681  2-3  2.643569047  2-8  2.047984006
     ( 1.398923414)     ( 1.398872047)     ( 1.083738880)     ( 1.398916490)     ( 1.083746461)

  3- 4  2.643466031   3- 9  2.047964865   4- 5  2.643377667   4-10  2.047942582   5- 6  2.643388414
       ( 1.398861976)       ( 1.083736332)       ( 1.398815216)       ( 1.083724540)       ( 1.398820903)

  5-11  2.047934047   6-12  2.047946958  13-14  2.193162908  14-15  2.032881893
       ( 1.083720023)       ( 1.083726856)       ( 1.160571826)       ( 1.075754767)

 Bond angles

  1- 2- 3  119.99746550   1- 2- 8  119.79880920   1- 6- 5  120.00123550   1- 6-12  119.79520438

  2-1-6  119.99850415   2-1-7  119.99930036   2-3-4  119.99920945   2-3-9  119.79667732

  3- 2- 8  120.20347502   3- 4- 5  120.00130471   3- 4-10  119.99737974   4- 3- 9  120.20382774

  4- 5- 6  120.00228068   4- 5-11  120.20177742   5- 4-10  120.00098991   5- 6-12  120.20324188

  6- 1- 7  120.00192398   6- 5-11  119.79559032  13-14-15  179.99091354

 NUCLEAR CHARGE:                   56
 NUMBER OF PRIMITIVE AOS:         345
 NUMBER OF SYMMETRY AOS:          329
 NUMBER OF CONTRACTIONS:          219   ( 219A   )
 NUMBER OF CORE ORBITALS:           8   (   8A   )
 NUMBER OF VALENCE ORBITALS:       39   (  39A   )


 NUCLEAR REPULSION ENERGY  303.29390051


 Eigenvalues of metric

         1 0.864E-05 0.186E-04 0.229E-04 0.534E-04 0.631E-04 0.631E-04 0.930E-04 0.930E-04


 Contracted 2-electron integrals neglected if value below      1.0D-16
 AO integral compression algorithm  1   Integral accuracy      1.0D-16

     2339.635 MB (compressed) written to integral file ( 91.2%)

     Node minimum: 2339.635 MB, node maximum: 2339.635 MB


 NUMBER OF SORTED TWO-ELECTRON INTEGRALS:  290176095.     BUFFER LENGTH:  32768
 NUMBER OF SEGMENTS:  19  SEGMENT LENGTH:   15999762      RECORD LENGTH: 524288

 Memory used in sort:      16.56 MW

 SORT1 READ   320642736. AND WROTE   287579991. INTEGRALS IN    832 RECORDS. CPU TIME:     2.92 SEC, REAL TIME:     4.65 SEC
 SORT2 READ   287579991. AND WROTE   290176095. INTEGRALS IN   8925 RECORDS. CPU TIME:     1.97 SEC, REAL TIME:     3.04 SEC

 FILE SIZES:   FILE 1:  2150.7 MBYTE,  FILE 4:  3489.7 MBYTE,   TOTAL:   5640.4 MBYTE

 OPERATOR DM      FOR CENTER  0  COORDINATES:    0.000000    0.000000    0.000000


 **********************************************************************************************************************************
 DATASETS  * FILE   NREC   LENGTH (MB)   RECORD NAMES
              1      19     2151.26       500      610      700      900      950      970     1000      129      960     1100   
                                          VAR    BASINP    GEOM    SYMINP    ZMAT    AOBASIS   BASIS     P2S    ABASIS      S 
                                         1400     1410     1200     1210     1080     1600     1650     1300     1700   
                                           T        V       H0       H01     AOSYM     SMH    MOLCAS    ERIS     OPER   

 PROGRAMS   *        TOTAL       INT
 CPU TIMES  *        15.80     15.76
 REAL TIME  *        19.81 SEC
 DISK USED  *         7.98 GB      
 GA USED    *         0.01 MB       (max)       0.00 MB       (current)
 **********************************************************************************************************************************

1PROGRAM * RHF-SCF (CLOSED SHELL)       Authors: W. Meyer, H.-J. Werner


 NUMBER OF ELECTRONS:      28+   28-    SPACE SYMMETRY=1    SPIN SYMMETRY: Singlet 
 CONVERGENCE THRESHOLDS:    1.00E-10 (Density)    1.00E-13 (Energy)
 MAX. NUMBER OF ITERATIONS:      200
 INTERPOLATION TYPE:            DIIS
 INTERPOLATION STEPS:              2 (START)      1 (STEP)
 LEVEL SHIFTS:                  0.00 (CLOSED)  0.00 (OPEN) 



 Orbital guess generated from atomic densities. Full valence occupancy:   47

 Molecular orbital dump at record        2100.2

 ITERATION    DDIFF          GRAD             ENERGY        2-EL.EN.            DIPOLE MOMENTS         DIIS
    1      0.000D+00      0.000D+00      -323.54118493    821.928074   -1.90574    0.10320    0.00280    0
    2      0.000D+00      0.292D-02      -323.59762295    818.908563   -1.37141    0.05108    0.00147    1
    3      0.782D-02      0.180D-02      -323.61439795    820.051849   -1.73386    0.07964    0.00168    2
    4      0.261D-02      0.575D-03      -323.61673245    820.256031   -1.64320    0.07254    0.00150    3
    5      0.963D-03      0.133D-03      -323.61686174    819.996047   -1.66712    0.07328    0.00156    4
    6      0.223D-03      0.229D-04      -323.61686789    820.022909   -1.66850    0.07322    0.00151    5
    7      0.845D-04      0.437D-05      -323.61686809    820.018025   -1.66885    0.07317    0.00154    6
    8      0.108D-04      0.124D-05      -323.61686811    820.019025   -1.66916    0.07322    0.00152    7
    9      0.345D-05      0.268D-06      -323.61686811    820.019055   -1.66913    0.07318    0.00154    6
   10      0.817D-06      0.657D-07      -323.61686811    820.019036   -1.66913    0.07321    0.00152    6
   11      0.184D-06      0.339D-07      -323.61686811    820.019050   -1.66913    0.07320    0.00153    7
   12      0.768D-07      0.681D-08      -323.61686811    820.019045   -1.66913    0.07320    0.00153    7
   13      0.228D-07      0.239D-08      -323.61686811    820.019048   -1.66913    0.07320    0.00153    7
   14      0.612D-08      0.709D-09      -323.61686811    820.019046   -1.66913    0.07320    0.00153    7
   15      0.213D-08      0.285D-09      -323.61686811    820.019047   -1.66913    0.07320    0.00153    8
   16      0.733D-09      0.903D-10      -323.61686811    820.019047   -1.66913    0.07320    0.00153    8
   17      0.232D-09      0.377D-10      -323.61686811    820.019047   -1.66913    0.07320    0.00153    8
   18      0.155D-09      0.178D-10      -323.61686811    820.019047   -1.66913    0.07320    0.00153    8
   19      0.198D-09      0.820D-11      -323.61686811    820.019047   -1.66913    0.07320    0.00153    8
   20      0.153D-09      0.320D-11      -323.61686811    820.019047   -1.66913    0.07320    0.00153    9
   21      0.157D-09      0.138D-11      -323.61686811    820.019047   -1.66913    0.07320    0.00153    9
   22      0.969D-10      0.728D-12      -323.61686811    820.019047   -1.66913    0.07320    0.00153    9
   23      0.650D-10      0.567D-12      -323.61686811    820.019047   -1.66913    0.07320    0.00153    9
   24      0.516D-10      0.525D-12      -323.61686811    820.019047   -1.66913    0.07320    0.00153    9
   25      0.425D-10      0.524D-12      -323.61686811    820.019047   -1.66913    0.07320    0.00153    0

 Final occupancy:  28

 !RHF STATE 1.1 Energy               -323.616868106624
 Nuclear energy                       303.29390051
 One-electron energy                -1036.92029201
 Two-electron energy                  410.00952339
 Virial quotient                       -1.00173490
 !RHF STATE 1.1 Dipole moment          -1.66912897     0.07319774     0.00153030
 Dipole moment /Debye                  -4.24222481     0.18603791     0.00388939

 Orbital energies:

         1.1          2.1          3.1          4.1          5.1          6.1          7.1          8.1          9.1         10.1
    -15.591542   -11.284166   -11.266311   -11.265757   -11.265739   -11.264576   -11.264562   -11.263969    -1.218251    -1.173972

        11.1         12.1         13.1         14.1         15.1         16.1         17.1         18.1         19.1         20.1
     -1.037840    -1.037838    -0.845769    -0.845768    -0.787901    -0.729403    -0.664921    -0.639245    -0.608611    -0.608609

        21.1         22.1         23.1         24.1         25.1         26.1         27.1         28.1         29.1         30.1
     -0.565071    -0.520387    -0.514901    -0.514898    -0.475589    -0.475585    -0.359723    -0.359718     0.055857     0.060063


 **********************************************************************************************************************************
 DATASETS  * FILE   NREC   LENGTH (MB)   RECORD NAMES
              1      19     2151.26       500      610      700      900      950      970     1000      129      960     1100   
                                          VAR    BASINP    GEOM    SYMINP    ZMAT    AOBASIS   BASIS     P2S    ABASIS      S 
                                         1400     1410     1200     1210     1080     1600     1650     1300     1700   
                                           T        V       H0       H01     AOSYM     SMH    MOLCAS    ERIS     OPER   

              2       3        1.49       700     1000     2100   
                                         GEOM     BASIS     RHF  

 PROGRAMS   *        TOTAL       RHF       INT
 CPU TIMES  *        64.40     48.60     15.76
 REAL TIME  *        73.32 SEC
 DISK USED  *         7.98 GB      
 GA USED    *         0.01 MB       (max)       0.00 MB       (current)
 **********************************************************************************************************************************


1PROGRAM * CCSD (Closed-shell coupled cluster)     Authors: C. Hampel, H.-J. Werner, 1991, M. Deegan, P.J. Knowles, 1992


 Convergence thresholds:  THRVAR = 1.00D-08  THRDEN = 1.00D-12

 CCSD(T)     terms to be evaluated (factor= 1.000)


 Number of core orbitals:           8 (   8 )
 Number of closed-shell orbitals:  20 (  20 )
 Number of external orbitals:     191 ( 191 )

 Molecular orbitals read from record     2100.2  Type=RHF/CANONICAL (state 1.1)

 Number of N-1 electron functions:              20
 Number of N-2 electron functions:             210
 Number of singly external CSFs:              3820
 Number of doubly external CSFs:           7298110
 Total number of CSFs:                     7301931

 Length of J-op  integral file:               0.00 MB
 Length of K-op  integral file:               3.32 MB
 Length of 3-ext integral record:             0.00 MB

 Memory could be reduced to 174.82 Mwords without degradation in triples

 Integral transformation finished. Total CPU:  14.22 sec, npass=  1  Memory used: 128.13 MW

 Reference energy:                   -323.61686811

 MP2 singlet pair energy:              -0.67340173
 MP2 triplet pair energy:              -0.43521335
 MP2 correlation energy:               -1.10861508
 MP2 total energy:                   -324.72548319

 SCS-MP2 correlation energy:           -1.07888150   (PS=  1.200000  PT=  0.333333)
 SCS-MP2 total energy:               -324.69574961

 ITER.      SQ.NORM     CORR.ENERGY   TOTAL ENERGY   ENERGY CHANGE        DEN1      VAR(S)    VAR(P)  DIIS     TIME
   1      1.42883711    -1.14470805  -324.76157615    -0.03609296    -0.00288883  0.51D-02  0.99D-02  1  1    60.66
   2      1.46318113    -1.15058679  -324.76745489    -0.00587874    -0.03104199  0.83D-04  0.13D-02  2  2   107.39
   3      1.47648895    -1.15103595  -324.76790406    -0.00044916    -0.00656603  0.41D-04  0.12D-03  3  3   154.17
   4      1.48218509    -1.15128576  -324.76815386    -0.00024981    -0.00178690  0.23D-05  0.15D-04  4  4   200.94
   5      1.48371644    -1.15132168  -324.76818979    -0.00003592    -0.00036633  0.26D-06  0.14D-05  5  5   247.71
   6      1.48402350    -1.15131312  -324.76818122     0.00000856    -0.00005050  0.24D-07  0.91D-07  6  6   294.51
   7      1.48405830    -1.15131652  -324.76818463    -0.00000340    -0.00000227  0.34D-08  0.80D-08  6  2   341.33
   8      1.48406298    -1.15131688  -324.76818498    -0.00000035    -0.00000042  0.41D-09  0.83D-09  6  1   388.11
   9      1.48406320    -1.15131705  -324.76818515    -0.00000017     0.00000079  0.62D-10  0.78D-10  6  3   434.90
  10      1.48406357    -1.15131710  -324.76818521    -0.00000006     0.00000002  0.99D-11  0.99D-11  6  4   481.69
  11      1.48406329    -1.15131714  -324.76818525    -0.00000004     0.00000022  0.16D-11  0.14D-11  6  5   528.51
  12      1.48406313    -1.15131715  -324.76818526    -0.00000001     0.00000008  0.25D-12  0.27D-12  6  6   575.34
  13      1.48406299    -1.15131716  -324.76818526    -0.00000000     0.00000005  0.14D-13  0.51D-13  6  2   622.12
  14      1.48406293    -1.15131716  -324.76818526    -0.00000000     0.00000002  0.22D-14  0.93D-14  6  1   668.91
  15      1.48406290    -1.15131716  -324.76818526     0.00000000     0.00000001  0.45D-15  0.13D-14  6  3   715.70
  16      1.48406290    -1.15131716  -324.76818526    -0.00000000     0.00000000  0.97D-16  0.19D-15  6  4   762.50
  17      1.48406289    -1.15131716  -324.76818526    -0.00000000     0.00000000  0.19D-16  0.28D-16  6  5   809.32
  18      1.48406289    -1.15131716  -324.76818526    -0.00000000     0.00000000  0.36D-17  0.36D-17  6  6   856.13
  19      1.48406289    -1.15131716  -324.76818526    -0.00000000     0.00000000  0.82D-18  0.60D-18  6  2   902.94
  20      1.48406289    -1.15131716  -324.76818526    -0.00000000     0.00000000  0.18D-18  0.13D-18  6  1   949.72
  21      1.48406289    -1.15131716  -324.76818526    -0.00000000     0.00000000  0.68D-19  0.42D-19  6  3   996.54
  22      1.48406289    -1.15131716  -324.76818526     0.00000000     0.00000000  0.31D-19  0.18D-19  6  4  1043.31

 Norm of t1 vector:      0.09778253      S-energy:     0.00000000      T1 diagnostic:  0.01093242
                                                                       D1 diagnostic:  0.02771549

 Doubles amplitudes (print threshold =  0.500E-01):

         I         J         SYM. A    SYM. B    A         B      T(IJ, AB)

        19        19         1         1         7         7     -0.06204093
        20        20         1         1         8         8     -0.06204168


 Total CPU time for triples:   1005.99 sec


 RESULTS
 =======

  Reference energy                   -323.616868106625
  CCSD singlet pair energy             -0.770111799688
  CCSD triplet pair energy             -0.381205357696
  CCSD correlation energy              -1.151317157384

  Triples (T) contribution             -0.054027530522
  Total correlation energy             -1.205344687906

  CCSD total energy                  -324.768185264009
  CCSD[T] energy                     -324.823546111605
  CCSD-T energy                      -324.821607152128
 !CCSD(T) total energy               -324.822212794531

 Timing summary (sec):

 STEP                 CPU(USER)    SYS     CPU(TOT)    WALL
 Transformation         14.68      0.97     15.65     15.66
 CCSD iterations      1028.64     13.39   1042.03   1042.21
 Triples              1005.99     14.67   1020.66   1020.79

 Program statistics:

 Available memory in ccsd:               999998300
 Min. memory needed in ccsd:              17709720
 Max. memory used in ccsd:                24415330
 Max. memory used in cckext:              20754978 (22 integral passes)



 **********************************************************************************************************************************
 DATASETS  * FILE   NREC   LENGTH (MB)   RECORD NAMES
              1      20     2833.43       500      610      700      900      950      970     1000      129      960     1100   
                                          VAR    BASINP    GEOM    SYMINP    ZMAT    AOBASIS   BASIS     P2S    ABASIS      S 
                                         1400     1410     1200     1210     1080     1600     1650     1300     1700     1380   
                                           T        V       H0       H01     AOSYM     SMH    MOLCAS    ERIS     OPER     JKOP   

              2       3        1.49       700     1000     2100   
                                         GEOM     BASIS     RHF  

 PROGRAMS   *        TOTAL   CCSD(T)       RHF       INT
 CPU TIMES  *      2113.72   2049.31     48.60     15.76
 REAL TIME  *      2152.10 SEC
 DISK USED  *         7.98 GB      
 GA USED    *         0.01 MB       (max)       0.00 MB       (current)
 **********************************************************************************************************************************

        CCSD(T)         RHF-SCF 
   -324.82221279   -323.61686811
 **********************************************************************************************************************************
 Variable memory released
