
 Primary working directories    : /tmp/943419.290.gen5.q
 Secondary working directories  : /tmp/943419.290.gen5.q
 Wavefunction directory         : /home/vulcan/mel64643/wfu/
 Main file repository           : /tmp/943419.290.gen5.q/

 ARCHNAME  : Linux/x86_64
 FC        : /opt/intel/compilers_and_libraries_2016.1.150/linux/bin/intel64/ifort
 FCVERSION : 16.0.1
 BLASLIB   : -mkl
 id        : ccgc

 Nodes     nprocs
 n070         1
 ga_uses_ma=false, calling ma_init with nominal heap.
 GA-space will be limited to   8.0 MW (determined by -G option)

 Using customized tuning parameters: mindgm=10; mindgv=16; mindgc=4; mindgr=1; noblas=0; mincuda=1000; minvec=7
 default implementation of scratch files=df  

 ***,Optimization of nh3_nitrosmethane
 memory,1000,m
 gthresh,energy=1.0d-12,orbital=1.0d-10,oneint=1.0d-16,twoint=1.0d-16,optgrad=1.0d-6,compress=1.0d-13
 geomtyp=xyz
 
 bohr
 geometry = {
  N   -5.2242410912   -0.1854546942    0.0048861630
  H   -6.2964329083    0.2161757885   -1.5344753395
  H   -3.7605516516    1.0583712966   -0.0033320211
  H   -6.3011355687    0.2419835612    1.5339809915
  H   -0.9312773285   -2.3980031889   -0.0021474228
  H    1.8824038177   -3.4301875997   -1.6660151327
  H    1.8810996528   -3.4352585700    1.6607714006
  C    1.1373514778   -2.4698938597   -0.0014460594
  N    2.2696985594    0.0970957087    0.0029106639
  O    0.7072035307    1.7822285666    0.0048667564
 }
 
 basis=aug-cc-pvtz
 {rhf;maxit,200}
 {mp2}

 Variables initialized (661), CPU time= 0.00 sec
 Commands  initialized (458), CPU time= 0.01 sec, 486 directives.
 Default parameters read. Elapsed time= 0.08 sec

 Checking input...
 Passed
1


                                         ***  PROGRAM SYSTEM MOLPRO  ***
                         Copyright, University College Cardiff Consultants Limited, 2008

                                    Version 2010.1 linked May 16 2016 07:17:05


 **********************************************************************************************************************************
 LABEL *   Optimization of nh3_nitrosmethane                                             
 Linux-4.4.3/n070(x86_64) 64 bit mpp version                                             DATE: 26-Oct-23          TIME: 00:08:37  
 **********************************************************************************************************************************

 SHA1:             9e8077add272b0f3cad6f7df79ec5211205f459d
 **********************************************************************************************************************************

 THRESHOLDS:

 ZERO    =  1.00D-12  ONEINT  =  1.00D-16  TWOINT  =  1.00D-16  PREFAC  =  1.00D-14  LOCALI  =  1.00D-09  EORDER  =  1.00D-04
 ENERGY  =  1.00D-12  ETEST   =  0.00D+00  EDENS   =  0.00D+00  THRDEDEF=  1.00D-06  GRADIENT=  1.00D-02  STEP    =  1.00D-03
 ORBITAL =  1.00D-10  CIVEC   =  1.00D-05  COEFF   =  1.00D-04  PRINTCI =  5.00D-02  PUNCHCI =  9.90D+01  OPTGRAD =  1.00D-06
 OPTENERG=  1.00D-06  OPTSTEP =  3.00D-04  THRGRAD =  1.00D-10  COMPRESS=  1.00D-13  VARMIN  =  1.00D-07  VARMAX  =  1.00D-03
 THRDOUB =  0.00D+00  THRDIV  =  1.00D-05  THRRED  =  1.00D-07  THRPSP  =  1.00D+00  THRDC   =  1.00D-10  THRCS   =  1.00D-10
 THRNRM  =  1.00D-08  THREQ   =  0.00D+00  THRDE   =  1.00D+00  THRREF  =  1.00D-05  SPARFAC =  1.00D+00  THRDLP  =  1.00D-07
 THRDIA  =  1.00D-10  THRDLS  =  1.00D-07  THRGPS  =  0.00D+00  THRKEX  =  0.00D+00  THRDIS  =  2.00D-01  THRVAR  =  1.00D-10
 THRLOC  =  1.00D-06  THRGAP  =  1.00D-06  THRLOCT = -1.00D+00  THRGAPT = -1.00D+00  THRORB  =  1.00D-06  THRMLTP =  0.00D+00
 THRCPQCI=  1.00D-10  KEXTA   =  0.00D+00  THRCOARS=  0.00D+00  SYMTOL  =  1.00D-06  GRADTOL =  1.00D-06  THROVL  =  1.00D-08
 THRORTH =  1.00D-08  GRID    =  1.00D-06  GRIDMAX =  1.00D-03  DTMAX   =  0.00D+00

 SETTING GEOMTYP        =    XYZ
 ZUNIT=BOHR
 

 Variable memory set to 1000000000 words,  buffer space   230000 words

 SETTING BASIS          =    AUG-CC-PVTZ


 Recomputing integrals since basis changed


 Using spherical harmonics

 Library entry N      S aug-cc-pVTZ          selected for orbital group  1
 Library entry N      P aug-cc-pVTZ          selected for orbital group  1
 Library entry N      D aug-cc-pVTZ          selected for orbital group  1
 Library entry N      F aug-cc-pVTZ          selected for orbital group  1
 Library entry H      S aug-cc-pVTZ          selected for orbital group  2
 Library entry H      P aug-cc-pVTZ          selected for orbital group  2
 Library entry H      D aug-cc-pVTZ          selected for orbital group  2
 Library entry C      S aug-cc-pVTZ          selected for orbital group  3
 Library entry C      P aug-cc-pVTZ          selected for orbital group  3
 Library entry C      D aug-cc-pVTZ          selected for orbital group  3
 Library entry C      F aug-cc-pVTZ          selected for orbital group  3
 Library entry O      S aug-cc-pVTZ          selected for orbital group  5
 Library entry O      P aug-cc-pVTZ          selected for orbital group  5
 Library entry O      D aug-cc-pVTZ          selected for orbital group  5
 Library entry O      F aug-cc-pVTZ          selected for orbital group  5

1PROGRAM * SEWARD (Integral evaluation for generally contracted gaussian basis sets)     Author: Roland Lindh, 1990

 Geometry written to block  1 of record 700


 Point group  C1  



 ATOMIC COORDINATES

 NR  ATOM    CHARGE       X              Y              Z

   1  N       7.00   -5.224241091   -0.185454694    0.004886163
   2  H       1.00   -6.296432908    0.216175788   -1.534475339
   3  H       1.00   -3.760551652    1.058371297   -0.003332021
   4  H       1.00   -6.301135569    0.241983561    1.533980992
   5  H       1.00   -0.931277329   -2.398003189   -0.002147423
   6  H       1.00    1.882403818   -3.430187600   -1.666015133
   7  H       1.00    1.881099653   -3.435258570    1.660771401
   8  C       6.00    1.137351478   -2.469893860   -0.001446059
   9  N       7.00    2.269698559    0.097095709    0.002910664
  10  O       8.00    0.707203531    1.782228567    0.004866756

 Bond lengths in Bohr (Angstrom)

 1-2  1.918472354  1-3  1.920822066  1-4  1.918472354  5-8  2.069877750  6-8  2.061081574
     ( 1.015211846)     ( 1.016455260)     ( 1.015211846)     ( 1.095332131)     ( 1.090677395)

  7- 8  2.061081574   8- 9  2.805648648   9-10  2.298057286
       ( 1.090677395)       ( 1.484685321)       ( 1.216079541)

 Bond angles

  2-1-3  106.67095323   2-1-4  106.21107521   3-1-4  106.67095314   5-8-6  112.15889765

  5-8-7  112.15889778   5-8-9  111.81278739   6-8-7  107.61735087   6-8-9  106.35838672

  7- 8- 9  106.35838679   8- 9-10  113.35946297

 NUCLEAR CHARGE:                   34
 NUMBER OF PRIMITIVE AOS:         430
 NUMBER OF SYMMETRY AOS:          382
 NUMBER OF CONTRACTIONS:          322   ( 322A   )
 NUMBER OF CORE ORBITALS:           4   (   4A   )
 NUMBER OF VALENCE ORBITALS:       22   (  22A   )


 NUCLEAR REPULSION ENERGY  117.37377647


 Eigenvalues of metric

         1 0.335E-04 0.527E-04 0.816E-04 0.106E-03 0.119E-03 0.170E-03 0.233E-03 0.237E-03


 Contracted 2-electron integrals neglected if value below      1.0D-16
 AO integral compression algorithm  1   Integral accuracy      1.0D-16

     9719.775 MB (compressed) written to integral file ( 80.6%)

     Node minimum: 9719.775 MB, node maximum: 9719.775 MB


 NUMBER OF SORTED TWO-ELECTRON INTEGRALS: 1352182006.     BUFFER LENGTH:  32768
 NUMBER OF SEGMENTS:  43  SEGMENT LENGTH:   31998710      RECORD LENGTH: 524288

 Memory used in sort:      32.56 MW

 SORT1 READ  1506454996. AND WROTE  1291358514. INTEGRALS IN   3716 RECORDS. CPU TIME:    15.94 SEC, REAL TIME:    23.88 SEC
 SORT2 READ  1291358514. AND WROTE  1352182006. INTEGRALS IN  37078 RECORDS. CPU TIME:     9.65 SEC, REAL TIME:    15.07 SEC

 FILE SIZES:   FILE 1:  8827.9 MBYTE,  FILE 4: 15586.1 MBYTE,   TOTAL:  24414.0 MBYTE

 OPERATOR DM      FOR CENTER  0  COORDINATES:    0.000000    0.000000    0.000000


 **********************************************************************************************************************************
 DATASETS  * FILE   NREC   LENGTH (MB)   RECORD NAMES
              1      19     8829.18       500      610      700      900      950      970     1000      129      960     1100   
                                          VAR    BASINP    GEOM    SYMINP    ZMAT    AOBASIS   BASIS     P2S    ABASIS      S 
                                         1400     1410     1200     1210     1080     1600     1650     1300     1700   
                                           T        V       H0       H01     AOSYM     SMH    MOLCAS    ERIS     OPER   

 PROGRAMS   *        TOTAL       INT
 CPU TIMES  *        66.66     66.57
 REAL TIME  *        86.53 SEC
 DISK USED  *        34.13 GB      
 GA USED    *         0.00 MB       (max)       0.00 MB       (current)
 **********************************************************************************************************************************

1PROGRAM * RHF-SCF (CLOSED SHELL)       Authors: W. Meyer, H.-J. Werner


 NUMBER OF ELECTRONS:      17+   17-    SPACE SYMMETRY=1    SPIN SYMMETRY: Singlet 
 CONVERGENCE THRESHOLDS:    1.00E-10 (Density)    1.00E-13 (Energy)
 MAX. NUMBER OF ITERATIONS:      200
 INTERPOLATION TYPE:            DIIS
 INTERPOLATION STEPS:              2 (START)      1 (STEP)
 LEVEL SHIFTS:                  0.00 (CLOSED)  0.00 (OPEN) 



 Orbital guess generated from atomic densities. Full valence occupancy:   26

 Molecular orbital dump at record        2100.2

 ITERATION    DDIFF          GRAD             ENERGY        2-EL.EN.            DIPOLE MOMENTS         DIIS
    1      0.000D+00      0.000D+00      -225.01766939    393.462296    0.06778   -0.60552   -0.00956    0
    2      0.000D+00      0.279D-02      -225.07802633    392.894267   -0.57971   -0.38038   -0.00545    1
    3      0.488D-02      0.202D-02      -225.11357977    393.498015   -0.23468   -0.56063   -0.00648    2
    4      0.205D-02      0.389D-03      -225.11583843    393.355390   -0.31037   -0.46305   -0.00659    3
    5      0.554D-03      0.159D-03      -225.11627853    393.364679   -0.30709   -0.49154   -0.00656    4
    6      0.234D-03      0.389D-04      -225.11632631    393.389998   -0.31294   -0.48788   -0.00657    5
    7      0.831D-04      0.148D-04      -225.11633324    393.374293   -0.31479   -0.48787   -0.00657    6
    8      0.341D-04      0.605D-05      -225.11633436    393.381001   -0.31586   -0.48774   -0.00658    7
    9      0.133D-04      0.267D-05      -225.11633462    393.379522   -0.31618   -0.48741   -0.00657    8
   10      0.735D-05      0.820D-06      -225.11633465    393.379223   -0.31629   -0.48720   -0.00657    8
   11      0.240D-05      0.270D-06      -225.11633465    393.379344   -0.31631   -0.48711   -0.00657    8
   12      0.748D-06      0.870D-07      -225.11633465    393.379294   -0.31631   -0.48708   -0.00657    8
   13      0.293D-06      0.298D-07      -225.11633465    393.379288   -0.31631   -0.48707   -0.00658    8
   14      0.733D-07      0.144D-07      -225.11633465    393.379291   -0.31631   -0.48707   -0.00658    9
   15      0.318D-07      0.186D-08      -225.11633465    393.379291   -0.31631   -0.48707   -0.00658    8
   16      0.479D-08      0.100D-08      -225.11633465    393.379291   -0.31631   -0.48707   -0.00658    7
   17      0.303D-08      0.723D-09      -225.11633465    393.379291   -0.31631   -0.48707   -0.00658    7
   18      0.334D-08      0.478D-09      -225.11633465    393.379291   -0.31631   -0.48707   -0.00658    8
   19      0.423D-08      0.164D-09      -225.11633465    393.379291   -0.31631   -0.48707   -0.00658    9
   20      0.147D-08      0.362D-10      -225.11633465    393.379291   -0.31631   -0.48707   -0.00658    9
   21      0.200D-09      0.117D-10      -225.11633465    393.379291   -0.31631   -0.48707   -0.00658    9
   22      0.338D-10      0.431D-11      -225.11633465    393.379291   -0.31631   -0.48707   -0.00658    9
   23      0.201D-10      0.147D-11      -225.11633465    393.379291   -0.31631   -0.48707   -0.00658    9
   24      0.241D-10      0.552D-12      -225.11633465    393.379291   -0.31631   -0.48707   -0.00658    9
   25      0.124D-10      0.273D-12      -225.11633465    393.379291   -0.31631   -0.48707   -0.00658    9
   26      0.123D-10      0.198D-12      -225.11633465    393.379291   -0.31631   -0.48707   -0.00658    9
   27      0.570D-11      0.123D-12      -225.11633465    393.379291   -0.31631   -0.48707   -0.00658    9
   28      0.451D-11      0.159D-12      -225.11633465    393.379291   -0.31631   -0.48707   -0.00658    9
   29      0.271D-11      0.134D-12      -225.11633465    393.379291   -0.31631   -0.48707   -0.00658    9
   30      0.146D-11      0.135D-12      -225.11633465    393.379291   -0.31631   -0.48707   -0.00658    9
   31      0.188D-11      0.150D-12      -225.11633465    393.379291   -0.31631   -0.48707   -0.00658    9
   32      0.163D-11      0.132D-12      -225.11633465    393.379291   -0.31631   -0.48707   -0.00658    9
   33      0.999D-12      0.121D-12      -225.11633465    393.379291   -0.31631   -0.48707   -0.00658    9
   34      0.735D-12      0.141D-12      -225.11633465    393.379291   -0.31631   -0.48707   -0.00658    9
   35      0.462D-12      0.135D-12      -225.11633465    393.379291   -0.31631   -0.48707   -0.00658    9
   36      0.151D-11      0.167D-12      -225.11633465    393.379291   -0.31631   -0.48707   -0.00658    9
   37      0.170D-11      0.143D-12      -225.11633465    393.379291   -0.31631   -0.48707   -0.00658    9
   38      0.277D-11      0.131D-12      -225.11633465    393.379291   -0.31631   -0.48707   -0.00658    9
   39      0.182D-11      0.148D-12      -225.11633465    393.379291   -0.31631   -0.48707   -0.00658    9
   40      0.329D-11      0.157D-12      -225.11633465    393.379291   -0.31631   -0.48707   -0.00658    9
   41      0.209D-11      0.114D-12      -225.11633465    393.379291   -0.31631   -0.48707   -0.00658    9
   42      0.155D-11      0.124D-12      -225.11633465    393.379291   -0.31631   -0.48707   -0.00658    9
   43      0.240D-11      0.124D-12      -225.11633465    393.379291   -0.31631   -0.48707   -0.00658    9
   44      0.200D-11      0.130D-12      -225.11633465    393.379291   -0.31631   -0.48707   -0.00658    9
   45      0.188D-11      0.123D-12      -225.11633465    393.379291   -0.31631   -0.48707   -0.00658    9
   46      0.154D-11      0.152D-12      -225.11633465    393.379291   -0.31631   -0.48707   -0.00658    9
   47      0.134D-11      0.111D-12      -225.11633465    393.379291   -0.31631   -0.48707   -0.00658    9
   48      0.169D-11      0.118D-12      -225.11633465    393.379291   -0.31631   -0.48707   -0.00658    9
   49      0.169D-11      0.125D-12      -225.11633465    393.379291   -0.31631   -0.48707   -0.00658    9
   50      0.445D-12      0.219D-12      -225.11633465    393.379291   -0.31631   -0.48707   -0.00658    0

 Final occupancy:  17

 !RHF STATE 1.1 Energy               -225.116334652876
 Nuclear energy                       117.37377647
 One-electron energy                 -539.17975644
 Two-electron energy                  196.68964531
 Virial quotient                       -1.00202878
 !RHF STATE 1.1 Dipole moment          -0.31631428    -0.48707223    -0.00657543
 Dipole moment /Debye                  -0.80393804    -1.23793304    -0.01671198

 Orbital energies:

         1.1          2.1          3.1          4.1          5.1          6.1          7.1          8.1          9.1         10.1
    -20.630978   -15.706116   -15.538999   -11.263892    -1.509467    -1.138889    -1.073884    -0.860739    -0.691430    -0.674606

        11.1         12.1         13.1         14.1         15.1         16.1         17.1         18.1         19.1
     -0.636306    -0.624393    -0.623936    -0.555808    -0.534850    -0.429307    -0.406633     0.028801     0.038550


 **********************************************************************************************************************************
 DATASETS  * FILE   NREC   LENGTH (MB)   RECORD NAMES
              1      19     8829.18       500      610      700      900      950      970     1000      129      960     1100   
                                          VAR    BASINP    GEOM    SYMINP    ZMAT    AOBASIS   BASIS     P2S    ABASIS      S 
                                         1400     1410     1200     1210     1080     1600     1650     1300     1700   
                                           T        V       H0       H01     AOSYM     SMH    MOLCAS    ERIS     OPER   

              2       3        2.54       700     1000     2100   
                                         GEOM     BASIS     RHF  

 PROGRAMS   *        TOTAL       RHF       INT
 CPU TIMES  *       696.06    629.40     66.57
 REAL TIME  *       767.47 SEC
 DISK USED  *        34.13 GB      
 GA USED    *         0.00 MB       (max)       0.00 MB       (current)
 **********************************************************************************************************************************


1PROGRAM * MP2 (Closed-shell)     Authors: C. Hampel, H.-J. Werner, 1991, M. Deegan, P.J. Knowles, 1992


 Convergence thresholds:  THRVAR = 1.00D-08  THRDEN = 1.00D-12

 Number of core orbitals:           4 (   4 )
 Number of closed-shell orbitals:  13 (  13 )
 Number of external orbitals:     305 ( 305 )

 Molecular orbitals read from record     2100.2  Type=RHF/CANONICAL (state 1.1)

 Number of N-1 electron functions:              13
 Number of N-2 electron functions:              91
 Number of singly external CSFs:              3965
 Number of doubly external CSFs:           7862595
 Total number of CSFs:                     7866561

 Length of J-op  integral file:               0.00 MB
 Length of K-op  integral file:               7.17 MB

 Integral transformation finished. Total CPU:  26.43 sec, npass=  1  Memory used:  17.90 MW

 Memory needed for MP2:                      0.51 MW

 SCS-MP2 correlation energy:           -0.859119393624   (PS=  1.200000  PT=  0.333333)
 SCS-MP2 total energy:               -225.975454046501


  Reference energy                   -225.116334652877
  MP2 singlet pair energy              -0.557137520550
  MP2 triplet pair energy              -0.306248092977
  MP2 correlation energy               -0.863385613527

 !MP2 total energy                   -225.979720266404


 **********************************************************************************************************************************
 DATASETS  * FILE   NREC   LENGTH (MB)   RECORD NAMES
              1      20     8944.42       500      610      700      900      950      970     1000      129      960     1100   
                                          VAR    BASINP    GEOM    SYMINP    ZMAT    AOBASIS   BASIS     P2S    ABASIS      S 
                                         1400     1410     1200     1210     1080     1600     1650     1300     1700     1380   
                                           T        V       H0       H01     AOSYM     SMH    MOLCAS    ERIS     OPER     JKOP   

              2       3        2.54       700     1000     2100   
                                         GEOM     BASIS     RHF  

 PROGRAMS   *        TOTAL       MP2       RHF       INT
 CPU TIMES  *       723.32     27.26    629.40     66.57
 REAL TIME  *       796.02 SEC
 DISK USED  *        34.13 GB      
 GA USED    *         0.00 MB       (max)       0.00 MB       (current)
 **********************************************************************************************************************************

        MP2             RHF-SCF 
   -225.97972027   -225.11633465
 **********************************************************************************************************************************
 Variable memory released
