
 Primary working directories    : /tmp/880701.509.gen4.q
 Secondary working directories  : /tmp/880701.509.gen4.q
 Wavefunction directory         : /home/vulcan/lo21740/wfu/
 Main file repository           : /tmp/880701.509.gen4.q/

 ARCHNAME  : Linux/x86_64
 FC        : /opt/intel/compilers_and_libraries_2016.1.150/linux/bin/intel64/ifort
 FCVERSION : 16.0.1
 BLASLIB   : -mkl
 id        : ccgc

 Nodes     nprocs
 n023         1
 ga_uses_ma=false, calling ma_init with nominal heap.
 GA-space will be limited to   8.0 MW (determined by -G option)

 Using customized tuning parameters: mindgm=10; mindgv=16; mindgc=4; mindgr=1; noblas=0; mincuda=1000; minvec=7
 default implementation of scratch files=df  

 ***,Optimization of formamide
 memory,1000,m
 gthresh,energy=1.0d-12,orbital=1.0d-10,oneint=1.0d-16,twoint=1.0d-16,optgrad=1.0d-6,compress=1.0d-13
 geomtyp=xyz
 
 bohr
 geometry = {
  C   -3.8216164129    0.0868198210   -0.0000000000
  O   -2.7265640409    2.1369700655    0.0000000000
  N   -2.6855776622   -2.1808341289   -0.0000000000
  H   -3.7462539019   -3.7561417176   -0.0000000000
  H   -0.7487899154   -2.3113370059   -0.0000000000
  H   -5.9003853973   -0.0091120042   -0.0000000000
  C    3.8261189940   -0.0843940995   -0.0000000000
  O    2.7345245303   -2.1413373281   -0.0000000000
  N    2.6814789426    2.1757760760    0.0000000000
  H    3.7307666674    3.7564797364    0.0000000000
  H    0.7509016114    2.2994675180    0.0000000000
  H    5.9053965849    0.0276430672   -0.0000000000
 }
 
 basis=AVDZ
 {rhf;maxit,200}
 {ccsd(t);maxit,200}

 Variables initialized (661), CPU time= 0.01 sec
 Commands  initialized (458), CPU time= 0.00 sec, 486 directives.
 Default parameters read. Elapsed time= 0.06 sec

 Checking input...
 Passed
1


                                         ***  PROGRAM SYSTEM MOLPRO  ***
                         Copyright, University College Cardiff Consultants Limited, 2008

                                    Version 2010.1 linked May 16 2016 07:17:05


 **********************************************************************************************************************************
 LABEL *   Optimization of formamide                                                     
 Linux-4.4.3/n023(x86_64) 64 bit mpp version                                             DATE: 24-May-23          TIME: 23:56:53  
 **********************************************************************************************************************************

 SHA1:             9e8077add272b0f3cad6f7df79ec5211205f459d
 **********************************************************************************************************************************

 THRESHOLDS:

 ZERO    =  1.00D-12  ONEINT  =  1.00D-16  TWOINT  =  1.00D-16  PREFAC  =  1.00D-14  LOCALI  =  1.00D-09  EORDER  =  1.00D-04
 ENERGY  =  1.00D-12  ETEST   =  0.00D+00  EDENS   =  0.00D+00  THRDEDEF=  1.00D-06  GRADIENT=  1.00D-02  STEP    =  1.00D-03
 ORBITAL =  1.00D-10  CIVEC   =  1.00D-05  COEFF   =  1.00D-04  PRINTCI =  5.00D-02  PUNCHCI =  9.90D+01  OPTGRAD =  1.00D-06
 OPTENERG=  1.00D-06  OPTSTEP =  3.00D-04  THRGRAD =  1.00D-10  COMPRESS=  1.00D-13  VARMIN  =  1.00D-07  VARMAX  =  1.00D-03
 THRDOUB =  0.00D+00  THRDIV  =  1.00D-05  THRRED  =  1.00D-07  THRPSP  =  1.00D+00  THRDC   =  1.00D-10  THRCS   =  1.00D-10
 THRNRM  =  1.00D-08  THREQ   =  0.00D+00  THRDE   =  1.00D+00  THRREF  =  1.00D-05  SPARFAC =  1.00D+00  THRDLP  =  1.00D-07
 THRDIA  =  1.00D-10  THRDLS  =  1.00D-07  THRGPS  =  0.00D+00  THRKEX  =  0.00D+00  THRDIS  =  2.00D-01  THRVAR  =  1.00D-10
 THRLOC  =  1.00D-06  THRGAP  =  1.00D-06  THRLOCT = -1.00D+00  THRGAPT = -1.00D+00  THRORB  =  1.00D-06  THRMLTP =  0.00D+00
 THRCPQCI=  1.00D-10  KEXTA   =  0.00D+00  THRCOARS=  0.00D+00  SYMTOL  =  1.00D-06  GRADTOL =  1.00D-06  THROVL  =  1.00D-08
 THRORTH =  1.00D-08  GRID    =  1.00D-06  GRIDMAX =  1.00D-03  DTMAX   =  0.00D+00

 SETTING GEOMTYP        =    XYZ
 ZUNIT=BOHR
 

 Variable memory set to 1000000000 words,  buffer space   230000 words

 SETTING BASIS          =    AVDZ


 Recomputing integrals since basis changed


 Using spherical harmonics

 Library entry C      S aug-cc-pVDZ          selected for orbital group  1
 Library entry C      P aug-cc-pVDZ          selected for orbital group  1
 Library entry C      D aug-cc-pVDZ          selected for orbital group  1
 Library entry O      S aug-cc-pVDZ          selected for orbital group  2
 Library entry O      P aug-cc-pVDZ          selected for orbital group  2
 Library entry O      D aug-cc-pVDZ          selected for orbital group  2
 Library entry N      S aug-cc-pVDZ          selected for orbital group  3
 Library entry N      P aug-cc-pVDZ          selected for orbital group  3
 Library entry N      D aug-cc-pVDZ          selected for orbital group  3
 Library entry H      S aug-cc-pVDZ          selected for orbital group  4
 Library entry H      P aug-cc-pVDZ          selected for orbital group  4

1PROGRAM * SEWARD (Integral evaluation for generally contracted gaussian basis sets)     Author: Roland Lindh, 1990

 Geometry written to block  1 of record 700


 Point group  Cs  



 ATOMIC COORDINATES

 NR  ATOM    CHARGE       X              Y              Z

   1  C       6.00   -3.821616413    0.086819821    0.000000000
   2  O       8.00   -2.726564041    2.136970065    0.000000000
   3  N       7.00   -2.685577662   -2.180834129    0.000000000
   4  H       1.00   -3.746253902   -3.756141718    0.000000000
   5  H       1.00   -0.748789915   -2.311337006    0.000000000
   6  H       1.00   -5.900385397   -0.009112004    0.000000000
   7  C       6.00    3.826118994   -0.084394099    0.000000000
   8  O       8.00    2.734524530   -2.141337328    0.000000000
   9  N       7.00    2.681478943    2.175776076    0.000000000
  10  H       1.00    3.730766667    3.756479736    0.000000000
  11  H       1.00    0.750901611    2.299467518    0.000000000
  12  H       1.00    5.905396585    0.027643067    0.000000000

 Bond lengths in Bohr (Angstrom)

 1-2  2.324275311  1-3  2.536304098  1-6  2.080981356  3-4  1.899112447  3-5  1.941179481
     ( 1.229953522)     ( 1.342154324)     ( 1.101207906)     ( 1.004967024)     ( 1.027227940)

  7- 8  2.328646371   7- 9  2.533489702   7-12  2.082293838   9-10  1.897268772   9-11  1.934535708
       ( 1.232266587)       ( 1.340665009)       ( 1.101902441)       ( 1.003991393)       ( 1.023712207)

 Bond angles

  1-3-4  119.43733511   1-3-5  120.46456631   2-1-3  125.28212444   2-1-6  120.75036757

  3- 1- 6  113.96750799   4- 3- 5  120.09809858   7- 9-10  119.56390726   7- 9-11  120.52537801

  8- 7- 9  125.18619052   8- 7-12  121.03861302   9- 7-12  113.77519646  10- 9-11  119.91071473

 NUCLEAR CHARGE:                   48
 NUMBER OF PRIMITIVE AOS:         288
 NUMBER OF SYMMETRY AOS:          276
 NUMBER OF CONTRACTIONS:          192   ( 138A'  +  54A"  )
 NUMBER OF CORE ORBITALS:           6   (   6A'  +   0A"  )
 NUMBER OF VALENCE ORBITALS:       30   (  24A'  +   6A"  )


 NUCLEAR REPULSION ENERGY  230.53902801


 Eigenvalues of metric

         1 0.231E-03 0.269E-03 0.525E-03 0.529E-03 0.565E-03 0.700E-03 0.713E-03 0.714E-03
         2 0.181E-01 0.198E-01 0.282E-01 0.284E-01 0.334E-01 0.339E-01 0.417E-01 0.453E-01


 Contracted 2-electron integrals neglected if value below      1.0D-16
 AO integral compression algorithm  1   Integral accuracy      1.0D-16

     746.324 MB (compressed) written to integral file ( 93.7%)

     Node minimum: 746.324 MB, node maximum: 746.324 MB


 NUMBER OF SORTED TWO-ELECTRON INTEGRALS:   89829696.     BUFFER LENGTH:  32768
 NUMBER OF SEGMENTS:   6  SEGMENT LENGTH:   15998004      RECORD LENGTH: 524288

 Memory used in sort:      16.56 MW

 SORT1 READ    99568560. AND WROTE    89009222. INTEGRALS IN    258 RECORDS. CPU TIME:     1.22 SEC, REAL TIME:     1.80 SEC
 SORT2 READ    89009222. AND WROTE    89829696. INTEGRALS IN   2847 RECORDS. CPU TIME:     0.76 SEC, REAL TIME:     1.20 SEC

 FILE SIZES:   FILE 1:   691.9 MBYTE,  FILE 4:  1082.2 MBYTE,   TOTAL:   1774.1 MBYTE

 OPERATOR DM      FOR CENTER  0  COORDINATES:    0.000000    0.000000    0.000000


 **********************************************************************************************************************************
 DATASETS  * FILE   NREC   LENGTH (MB)   RECORD NAMES
              1      19      692.18       500      610      700      900      950      970     1000      129      960     1100   
                                          VAR    BASINP    GEOM    SYMINP    ZMAT    AOBASIS   BASIS     P2S    ABASIS      S 
                                         1400     1410     1200     1210     1080     1600     1650     1300     1700   
                                           T        V       H0       H01     AOSYM     SMH    MOLCAS    ERIS     OPER   

 PROGRAMS   *        TOTAL       INT
 CPU TIMES  *         9.17      9.11
 REAL TIME  *        10.72 SEC
 DISK USED  *         2.52 GB      
 GA USED    *         0.00 MB       (max)       0.00 MB       (current)
 **********************************************************************************************************************************

1PROGRAM * RHF-SCF (CLOSED SHELL)       Authors: W. Meyer, H.-J. Werner


 NUMBER OF ELECTRONS:      24+   24-
 CONVERGENCE THRESHOLDS:    1.00E-10 (Density)    1.00E-13 (Energy)
 MAX. NUMBER OF ITERATIONS:      200
 INTERPOLATION TYPE:            DIIS
 INTERPOLATION STEPS:              2 (START)      1 (STEP)
 LEVEL SHIFTS:                  0.00 (CLOSED)  0.00 (OPEN) 



 Orbital guess generated from atomic densities. Full valence occupancy:   30   6

 Molecular orbital dump at record        2100.2

 Initial alpha occupancy:  20   4
 Initial beta  occupancy:  20   4
 Wave function symmetry:    1

 ITERATION    DDIFF          GRAD             ENERGY        2-EL.EN.            DIPOLE MOMENTS         DIIS
    1      0.000D+00      0.000D+00      -337.80619209    704.756694   -0.00294    0.01232    0.00000    0
    2      0.000D+00      0.728D-02      -337.88358372    699.148742   -0.00305    0.00791    0.00000    1
    3      0.138D-01      0.531D-02      -337.94126127    701.882428   -0.00270    0.01097    0.00000    2
    4      0.561D-02      0.701D-03      -337.94346839    701.788560   -0.00279    0.01025    0.00000    3
    5      0.134D-02      0.241D-03      -337.94373521    701.721299   -0.00268    0.01082    0.00000    4
    6      0.456D-03      0.791D-04      -337.94379594    701.746802   -0.00274    0.01058    0.00000    5
    7      0.201D-03      0.350D-04      -337.94380686    701.738100   -0.00267    0.01080    0.00000    6
    8      0.955D-04      0.104D-04      -337.94380780    701.743470   -0.00273    0.01060    0.00000    7
    9      0.300D-04      0.326D-05      -337.94380787    701.741222   -0.00267    0.01080    0.00000    8
   10      0.777D-05      0.128D-05      -337.94380788    701.741448   -0.00270    0.01066    0.00000    7
   11      0.342D-05      0.524D-06      -337.94380788    701.741607   -0.00269    0.01073    0.00000    8
   12      0.846D-06      0.161D-06      -337.94380788    701.741551   -0.00269    0.01072    0.00000    9
   13      0.402D-06      0.236D-07      -337.94380788    701.741550   -0.00269    0.01072    0.00000    8
   14      0.630D-07      0.875D-08      -337.94380788    701.741555   -0.00269    0.01072    0.00000    7
   15      0.249D-07      0.331D-08      -337.94380788    701.741553   -0.00269    0.01072    0.00000    8
   16      0.759D-08      0.553D-09      -337.94380788    701.741553   -0.00269    0.01072    0.00000    8
   17      0.117D-08      0.183D-09      -337.94380788    701.741553   -0.00269    0.01072    0.00000    7
   18      0.356D-09      0.554D-10      -337.94380788    701.741553   -0.00269    0.01072    0.00000    7
   19      0.126D-09      0.186D-10      -337.94380788    701.741553   -0.00269    0.01072    0.00000    7
   20      0.322D-10      0.900D-11      -337.94380788    701.741553   -0.00269    0.01072    0.00000    8
   21      0.241D-10      0.294D-11      -337.94380788    701.741553   -0.00269    0.01072    0.00000    8
   22      0.791D-11      0.180D-11      -337.94380788    701.741553   -0.00269    0.01072    0.00000    8
   23      0.570D-11      0.443D-12      -337.94380788    701.741553   -0.00269    0.01072    0.00000    0

 Final occupancy:  20   4

 !RHF STATE 1.1 Energy               -337.943807881753
 Nuclear energy                       230.53902801
 One-electron energy                 -919.35361256
 Two-electron energy                  350.87077666
 Virial quotient                       -1.00172275
 !RHF STATE 1.1 Dipole moment          -0.00268938     0.01071904     0.00000000
 Dipole moment /Debye                  -0.00683527     0.02724330     0.00000000

 Orbital energies:

         1.1          2.1          3.1          4.1          5.1          6.1          7.1          8.1          9.1         10.1
    -20.541081   -20.540904   -15.589221   -15.589151   -11.367726   -11.367439    -1.389516    -1.384564    -1.219162    -1.212878

        11.1         12.1         13.1         14.1         15.1         16.1         17.1         18.1         19.1         20.1
     -0.860665    -0.835534    -0.750428    -0.741162    -0.705847    -0.644979    -0.618742    -0.593404    -0.454347    -0.428765

        21.1         22.1
      0.033377     0.036357

         1.2          2.2          3.2          4.2          5.2          6.2
     -0.574054    -0.565998    -0.420518    -0.409945     0.092355     0.103454


 **********************************************************************************************************************************
 DATASETS  * FILE   NREC   LENGTH (MB)   RECORD NAMES
              1      19      692.18       500      610      700      900      950      970     1000      129      960     1100   
                                          VAR    BASINP    GEOM    SYMINP    ZMAT    AOBASIS   BASIS     P2S    ABASIS      S 
                                         1400     1410     1200     1210     1080     1600     1650     1300     1700   
                                           T        V       H0       H01     AOSYM     SMH    MOLCAS    ERIS     OPER   

              2       3        0.91       700     1000     2100   
                                         GEOM     BASIS     RHF  

 PROGRAMS   *        TOTAL       RHF       INT
 CPU TIMES  *        22.22     13.05      9.11
 REAL TIME  *        25.55 SEC
 DISK USED  *         2.52 GB      
 GA USED    *         0.00 MB       (max)       0.00 MB       (current)
 **********************************************************************************************************************************


1PROGRAM * CCSD (Closed-shell coupled cluster)     Authors: C. Hampel, H.-J. Werner, 1991, M. Deegan, P.J. Knowles, 1992


 Convergence thresholds:  THRVAR = 1.00D-08  THRDEN = 1.00D-12

 CCSD(T)     terms to be evaluated (factor= 1.000)


 Number of core orbitals:           6 (   6   0 )
 Number of closed-shell orbitals:  18 (  14   4 )
 Number of external orbitals:     168 ( 118  50 )

 Molecular orbitals read from record     2100.2  Type=RHF/CANONICAL (state 1.1)

 Number of N-1 electron functions:              18
 Number of N-2 electron functions:             171
 Number of singly external CSFs:              1852
 Number of doubly external CSFs:           2403256
 Total number of CSFs:                     2405109

 Length of J-op  integral file:               0.00 MB
 Length of K-op  integral file:               1.55 MB
 Length of 3-ext integral record:             0.00 MB

 Memory could be reduced to 56.93 Mwords without degradation in triples

 Integral transformation finished. Total CPU:   4.47 sec, npass=  1  Memory used:  23.60 MW

 Reference energy:                   -337.94380788

 MP2 singlet pair energy:              -0.62270272
 MP2 triplet pair energy:              -0.40616590
 MP2 correlation energy:               -1.02886862
 MP2 total energy:                   -338.97267650

 SCS-MP2 correlation energy:           -0.99996871   (PS=  1.200000  PT=  0.333333)
 SCS-MP2 total energy:               -338.94377659

 ITER.      SQ.NORM     CORR.ENERGY   TOTAL ENERGY   ENERGY CHANGE        DEN1      VAR(S)    VAR(P)  DIIS     TIME
   1      1.31930647    -1.05739475  -339.00120263    -0.02852613     0.00277045  0.10D-01  0.60D-02  1  1    14.83
   2      1.34480797    -1.05928078  -339.00308866    -0.00188603    -0.02594991  0.22D-03  0.11D-02  2  2    25.32
   3      1.35743374    -1.06017228  -339.00398016    -0.00089150    -0.00556230  0.22D-03  0.52D-04  3  3    35.83
   4      1.36263452    -1.05990807  -339.00371596     0.00026420    -0.00169289  0.22D-04  0.96D-05  4  4    46.35
   5      1.36477713    -1.05985077  -339.00365865     0.00005731    -0.00044891  0.27D-05  0.12D-05  5  5    56.87
   6      1.36529715    -1.05982216  -339.00363004     0.00002860    -0.00004966  0.27D-06  0.19D-06  6  6    67.41
   7      1.36542418    -1.05980985  -339.00361773     0.00001231    -0.00000192  0.35D-07  0.23D-07  6  1    77.96
   8      1.36546143    -1.05980865  -339.00361653     0.00000120    -0.00000699  0.76D-08  0.33D-08  6  2    88.50
   9      1.36546298    -1.05980881  -339.00361670    -0.00000016     0.00000265  0.13D-08  0.49D-09  6  3    99.02
  10      1.36546775    -1.05980827  -339.00361615     0.00000055    -0.00000110  0.32D-09  0.69D-10  6  4   109.55
  11      1.36546751    -1.05980852  -339.00361640    -0.00000025     0.00000047  0.59D-10  0.13D-10  6  5   120.08
  12      1.36546751    -1.05980849  -339.00361637     0.00000003     0.00000002  0.42D-11  0.35D-11  6  6   130.61
  13      1.36546723    -1.05980853  -339.00361641    -0.00000004     0.00000012  0.11D-11  0.38D-12  6  1   141.14
  14      1.36546713    -1.05980854  -339.00361642    -0.00000001     0.00000004  0.86D-13  0.71D-13  6  2   151.68
  15      1.36546711    -1.05980854  -339.00361642     0.00000000     0.00000001  0.19D-13  0.11D-13  6  3   162.19
  16      1.36546710    -1.05980854  -339.00361642    -0.00000000     0.00000000  0.43D-14  0.19D-14  6  4   172.74
  17      1.36546710    -1.05980854  -339.00361642     0.00000000    -0.00000000  0.60D-15  0.36D-15  6  5   183.26
  18      1.36546711    -1.05980854  -339.00361642     0.00000000    -0.00000000  0.17D-15  0.63D-16  6  6   193.79
  19      1.36546711    -1.05980854  -339.00361642    -0.00000000    -0.00000000  0.30D-16  0.13D-16  6  1   204.32
  20      1.36546711    -1.05980854  -339.00361642     0.00000000    -0.00000000  0.65D-17  0.30D-17  6  2   214.85
  21      1.36546711    -1.05980854  -339.00361642    -0.00000000     0.00000000  0.16D-17  0.58D-18  6  3   225.40
  22      1.36546711    -1.05980854  -339.00361642    -0.00000000     0.00000000  0.22D-18  0.13D-18  6  4   235.90
  23      1.36546711    -1.05980854  -339.00361642     0.00000000     0.00000000  0.70D-19  0.28D-19  6  5   246.42
  24      1.36546711    -1.05980854  -339.00361642    -0.00000000     0.00000000  0.14D-19  0.66D-20  6  6   256.97
  25      1.36546711    -1.05980854  -339.00361642    -0.00000000    -0.00000000  0.39D-20  0.12D-20  6  3   267.51
  26      1.36546711    -1.05980854  -339.00361642    -0.00000000    -0.00000000  0.71D-21  0.21D-21  6  1   278.03

 Norm of t1 vector:      0.14817352      S-energy:     0.00000000      T1 diagnostic:  0.01746242
                                                                       D1 diagnostic:  0.05898543


 Total CPU time for triples:    247.85 sec


 RESULTS
 =======

  Reference energy                   -337.943807881756
  CCSD singlet pair energy             -0.699621258526
  CCSD triplet pair energy             -0.360187282086
  CCSD correlation energy              -1.059808540612

  Triples (T) contribution             -0.039929553850
  Total correlation energy             -1.099738094462

  CCSD total energy                  -339.003616422367
  CCSD[T] energy                     -339.046765073559
  CCSD-T energy                      -339.042424218036
 !CCSD(T) total energy               -339.043545976217

 Timing summary (sec):

 STEP                 CPU(USER)    SYS     CPU(TOT)    WALL
 Transformation          4.62      0.39      5.01      5.01
 CCSD iterations       273.42      5.33    278.75    279.48
 Triples               247.85      4.03    251.88    251.93

 Program statistics:

 Available memory in ccsd:               999998604
 Min. memory needed in ccsd:               6087664
 Max. memory used in ccsd:                 8297292
 Max. memory used in cckext:               8019339 (26 integral passes)



 **********************************************************************************************************************************
 DATASETS  * FILE   NREC   LENGTH (MB)   RECORD NAMES
              1      20      912.67       500      610      700      900      950      970     1000      129      960     1100   
                                          VAR    BASINP    GEOM    SYMINP    ZMAT    AOBASIS   BASIS     P2S    ABASIS      S 
                                         1400     1410     1200     1210     1080     1600     1650     1300     1700     1380   
                                           T        V       H0       H01     AOSYM     SMH    MOLCAS    ERIS     OPER     JKOP   

              2       3        0.91       700     1000     2100   
                                         GEOM     BASIS     RHF  

 PROGRAMS   *        TOTAL   CCSD(T)       RHF       INT
 CPU TIMES  *       548.14    525.91     13.05      9.11
 REAL TIME  *       562.04 SEC
 DISK USED  *         2.52 GB      
 GA USED    *         0.00 MB       (max)       0.00 MB       (current)
 **********************************************************************************************************************************

        CCSD(T)         RHF-SCF 
   -339.04354598   -337.94380788
 **********************************************************************************************************************************
 Variable memory released
