
 Primary working directories    : /tmp/917047.553.gen5.q
 Secondary working directories  : /tmp/917047.553.gen5.q
 Wavefunction directory         : /home/vulcan/lo21740/wfu/
 Main file repository           : /tmp/917047.553.gen5.q/

 ARCHNAME  : Linux/x86_64
 FC        : /opt/intel/compilers_and_libraries_2016.1.150/linux/bin/intel64/ifort
 FCVERSION : 16.0.1
 BLASLIB   : -mkl
 id        : ccgc

 Nodes     nprocs
 n071         1
 ga_uses_ma=false, calling ma_init with nominal heap.
 GA-space will be limited to   8.0 MW (determined by -G option)

 Using customized tuning parameters: mindgm=10; mindgv=16; mindgc=4; mindgr=1; noblas=0; mincuda=1000; minvec=7
 default implementation of scratch files=df  

 ***,Optimization of h2o_2
 memory,1000,m
 gthresh,energy=1.0d-12,orbital=1.0d-10,oneint=1.0d-16,twoint=1.0d-16,optgrad=1.0d-6,compress=1.0d-13
 geomtyp=xyz
 
 bohr
 geometry = {
  C   -0.0021893563   -3.4262943225   -0.0037563284
  H   -0.9718761579   -2.7323667866   -1.6834074135
  H   -0.9670049833   -2.7317132988    1.6784278747
  H    1.9371199628   -2.7319588609    0.0017280519
  H    0.0027104545   -5.4860815891    0.0050355568
  C    0.0036848214    3.4254981651    0.0015812701
  H   -0.0102973328    5.4852624473    0.0008842191
  H    0.9702279636    2.7320821909   -1.6800918038
  H    0.9736703942    2.7332432503    1.6817499546
  H   -1.9360457662    2.7323288044   -0.0021513816
 }
 
 basis=AVDZ, H=VDZ
 {rhf;maxit,200}
 {ccsd(t);maxit,200}

 Variables initialized (661), CPU time= 0.00 sec
 Commands  initialized (458), CPU time= 0.01 sec, 486 directives.
 Default parameters read. Elapsed time= 0.08 sec

 Checking input...
 Passed
1


                                         ***  PROGRAM SYSTEM MOLPRO  ***
                         Copyright, University College Cardiff Consultants Limited, 2008

                                    Version 2010.1 linked May 16 2016 07:17:05


 **********************************************************************************************************************************
 LABEL *   Optimization of h2o_2                                                         
 Linux-4.4.3/n071(x86_64) 64 bit mpp version                                             DATE: 20-Jul-23          TIME: 13:30:29  
 **********************************************************************************************************************************

 SHA1:             9e8077add272b0f3cad6f7df79ec5211205f459d
 **********************************************************************************************************************************

 THRESHOLDS:

 ZERO    =  1.00D-12  ONEINT  =  1.00D-16  TWOINT  =  1.00D-16  PREFAC  =  1.00D-14  LOCALI  =  1.00D-09  EORDER  =  1.00D-04
 ENERGY  =  1.00D-12  ETEST   =  0.00D+00  EDENS   =  0.00D+00  THRDEDEF=  1.00D-06  GRADIENT=  1.00D-02  STEP    =  1.00D-03
 ORBITAL =  1.00D-10  CIVEC   =  1.00D-05  COEFF   =  1.00D-04  PRINTCI =  5.00D-02  PUNCHCI =  9.90D+01  OPTGRAD =  1.00D-06
 OPTENERG=  1.00D-06  OPTSTEP =  3.00D-04  THRGRAD =  1.00D-10  COMPRESS=  1.00D-13  VARMIN  =  1.00D-07  VARMAX  =  1.00D-03
 THRDOUB =  0.00D+00  THRDIV  =  1.00D-05  THRRED  =  1.00D-07  THRPSP  =  1.00D+00  THRDC   =  1.00D-10  THRCS   =  1.00D-10
 THRNRM  =  1.00D-08  THREQ   =  0.00D+00  THRDE   =  1.00D+00  THRREF  =  1.00D-05  SPARFAC =  1.00D+00  THRDLP  =  1.00D-07
 THRDIA  =  1.00D-10  THRDLS  =  1.00D-07  THRGPS  =  0.00D+00  THRKEX  =  0.00D+00  THRDIS  =  2.00D-01  THRVAR  =  1.00D-10
 THRLOC  =  1.00D-06  THRGAP  =  1.00D-06  THRLOCT = -1.00D+00  THRGAPT = -1.00D+00  THRORB  =  1.00D-06  THRMLTP =  0.00D+00
 THRCPQCI=  1.00D-10  KEXTA   =  0.00D+00  THRCOARS=  0.00D+00  SYMTOL  =  1.00D-06  GRADTOL =  1.00D-06  THROVL  =  1.00D-08
 THRORTH =  1.00D-08  GRID    =  1.00D-06  GRIDMAX =  1.00D-03  DTMAX   =  0.00D+00

 SETTING GEOMTYP        =    XYZ
 ZUNIT=BOHR
 

 Variable memory set to 1000000000 words,  buffer space   230000 words

 SETTING BASIS          =    AVDZ,H=VDZ


 Recomputing integrals since basis changed


 Using spherical harmonics

 Library entry C      S aug-cc-pVDZ          selected for orbital group  1
 Library entry C      P aug-cc-pVDZ          selected for orbital group  1
 Library entry C      D aug-cc-pVDZ          selected for orbital group  1
 Library entry H      S cc-pVDZ              selected for orbital group  2
 Library entry H      P cc-pVDZ              selected for orbital group  2

1PROGRAM * SEWARD (Integral evaluation for generally contracted gaussian basis sets)     Author: Roland Lindh, 1990

 Geometry written to block  1 of record 700


 Point group  C1  



 ATOMIC COORDINATES

 NR  ATOM    CHARGE       X              Y              Z

   1  C       6.00   -0.002189356   -3.426294322   -0.003756328
   2  H       1.00   -0.971876158   -2.732366787   -1.683407413
   3  H       1.00   -0.967004983   -2.731713299    1.678427875
   4  H       1.00    1.937119963   -2.731958861    0.001728052
   5  H       1.00    0.002710454   -5.486081589    0.005035557
   6  C       6.00    0.003684821    3.425498165    0.001581270
   7  H       1.00   -0.010297333    5.485262447    0.000884219
   8  H       1.00    0.970227964    2.732082191   -1.680091804
   9  H       1.00    0.973670394    2.733243250    1.681749955
  10  H       1.00   -1.936045766    2.732328804   -0.002151382

 Bond lengths in Bohr (Angstrom)

 1-2  2.059867881  1-3  2.059867881  1-4  2.059867094  1-5  2.059811858  6-7  2.059811857
     ( 1.090035136)     ( 1.090035136)     ( 1.090034720)     ( 1.090005490)     ( 1.090005489)

  6- 8  2.059867881   6- 9  2.059867881   6-10  2.059867095
       ( 1.090035136)       ( 1.090035136)       ( 1.090034720)

 Bond angles

  2-1-3  109.37919214   2-1-4  109.37907610   2-1-5  109.96681698   3-1-4  108.97393374

  3-1-5  109.56167466   4-1-5  109.56176675   7-6-8  109.84838651   7-6-9  109.84838650

  7- 6-10  109.27552076   8- 6- 9  109.37942507   8- 6-10  109.09283013   9- 6-10  109.37930903

 NUCLEAR CHARGE:                   20
 NUMBER OF PRIMITIVE AOS:         130
 NUMBER OF SYMMETRY AOS:          126
 NUMBER OF CONTRACTIONS:           86   (  86A   )
 NUMBER OF CORE ORBITALS:           2   (   2A   )
 NUMBER OF VALENCE ORBITALS:       16   (  16A   )


 NUCLEAR REPULSION ENERGY   41.33079170


 Eigenvalues of metric

         1 0.535E-02 0.665E-02 0.907E-02 0.115E-01 0.117E-01 0.117E-01 0.140E-01 0.140E-01


 Contracted 2-electron integrals neglected if value below      1.0D-16
 AO integral compression algorithm  1   Integral accuracy      1.0D-16

     57.934 MB (compressed) written to integral file ( 88.2%)

     Node minimum: 57.934 MB, node maximum: 57.934 MB


 NUMBER OF SORTED TWO-ELECTRON INTEGRALS:    6999411.     BUFFER LENGTH:  32768
 NUMBER OF SEGMENTS:   1  SEGMENT LENGTH:    6999411      RECORD LENGTH: 524288

 Memory used in sort:       7.56 MW

 SORT1 READ     8242194. AND WROTE     6853725. INTEGRALS IN     20 RECORDS. CPU TIME:     0.11 SEC, REAL TIME:     0.17 SEC
 SORT2 READ     6853725. AND WROTE     6999411. INTEGRALS IN    221 RECORDS. CPU TIME:     0.11 SEC, REAL TIME:     0.16 SEC

 FILE SIZES:   FILE 1:    52.4 MBYTE,  FILE 4:    83.9 MBYTE,   TOTAL:    136.3 MBYTE

 OPERATOR DM      FOR CENTER  0  COORDINATES:    0.000000    0.000000    0.000000


 **********************************************************************************************************************************
 DATASETS  * FILE   NREC   LENGTH (MB)   RECORD NAMES
              1      19       52.46       500      610      700      900      950      970     1000      129      960     1100   
                                          VAR    BASINP    GEOM    SYMINP    ZMAT    AOBASIS   BASIS     P2S    ABASIS      S 
                                         1400     1410     1200     1210     1080     1600     1650     1300     1700   
                                           T        V       H0       H01     AOSYM     SMH    MOLCAS    ERIS     OPER   

 PROGRAMS   *        TOTAL       INT
 CPU TIMES  *         1.33      1.20
 REAL TIME  *         2.00 SEC
 DISK USED  *       195.00 MB      
 GA USED    *         0.00 MB       (max)       0.00 MB       (current)
 **********************************************************************************************************************************

1PROGRAM * RHF-SCF (CLOSED SHELL)       Authors: W. Meyer, H.-J. Werner


 NUMBER OF ELECTRONS:      10+   10-    SPACE SYMMETRY=1    SPIN SYMMETRY: Singlet 
 CONVERGENCE THRESHOLDS:    1.00E-10 (Density)    1.00E-13 (Energy)
 MAX. NUMBER OF ITERATIONS:      200
 INTERPOLATION TYPE:            DIIS
 INTERPOLATION STEPS:              2 (START)      1 (STEP)
 LEVEL SHIFTS:                  0.00 (CLOSED)  0.00 (OPEN) 



 Orbital guess generated from atomic densities. Full valence occupancy:   18

 Molecular orbital dump at record        2100.2

 ITERATION    DDIFF          GRAD             ENERGY        2-EL.EN.            DIPOLE MOMENTS         DIIS
    1      0.000D+00      0.000D+00       -80.36120121    134.755389   -0.00114    0.00063    0.00165    0
    2      0.000D+00      0.502D-02       -80.39313451    132.468403   -0.00041    0.00026    0.00052    1
    3      0.106D-01      0.186D-02       -80.39708717    133.288731   -0.00058    0.00031    0.00077    2
    4      0.347D-02      0.507D-03       -80.39767063    133.156510   -0.00053    0.00028    0.00069    3
    5      0.114D-02      0.611D-04       -80.39767845    133.163902   -0.00052    0.00027    0.00068    4
    6      0.162D-03      0.345D-05       -80.39767848    133.163733   -0.00052    0.00027    0.00068    5
    7      0.156D-04      0.266D-06       -80.39767848    133.163723   -0.00052    0.00027    0.00068    5
    8      0.861D-06      0.476D-07       -80.39767848    133.163723   -0.00052    0.00027    0.00068    4
    9      0.112D-06      0.797D-08       -80.39767848    133.163725   -0.00052    0.00027    0.00068    4
   10      0.231D-07      0.118D-08       -80.39767848    133.163724   -0.00052    0.00027    0.00068    5
   11      0.265D-08      0.300D-09       -80.39767848    133.163725   -0.00052    0.00027    0.00068    5
   12      0.677D-09      0.859D-10       -80.39767848    133.163725   -0.00052    0.00027    0.00068    6
   13      0.198D-09      0.154D-10       -80.39767848    133.163725   -0.00052    0.00027    0.00068    6
   14      0.386D-10      0.343D-11       -80.39767848    133.163725   -0.00052    0.00027    0.00068    0

 Final occupancy:  10

 !RHF STATE 1.1 Energy                -80.397678481801
 Nuclear energy                        41.33079170
 One-electron energy                 -188.31033245
 Two-electron energy                   66.58186227
 Virial quotient                       -1.00212636
 !RHF STATE 1.1 Dipole moment          -0.00052109     0.00027361     0.00067872
 Dipole moment /Debye                  -0.00132440     0.00069541     0.00172503

 Orbital energies:

         1.1          2.1          3.1          4.1          5.1          6.1          7.1          8.1          9.1         10.1
    -11.215517   -11.215505    -0.945501    -0.939637    -0.551225    -0.546618    -0.545706    -0.539249    -0.538373    -0.535974

        11.1         12.1
      0.080165     0.084255


 **********************************************************************************************************************************
 DATASETS  * FILE   NREC   LENGTH (MB)   RECORD NAMES
              1      19       52.46       500      610      700      900      950      970     1000      129      960     1100   
                                          VAR    BASINP    GEOM    SYMINP    ZMAT    AOBASIS   BASIS     P2S    ABASIS      S 
                                         1400     1410     1200     1210     1080     1600     1650     1300     1700   
                                           T        V       H0       H01     AOSYM     SMH    MOLCAS    ERIS     OPER   

              2       3        0.57       700     1000     2100   
                                         GEOM     BASIS     RHF  

 PROGRAMS   *        TOTAL       RHF       INT
 CPU TIMES  *         2.16      0.83      1.20
 REAL TIME  *         2.97 SEC
 DISK USED  *       195.00 MB      
 GA USED    *         0.00 MB       (max)       0.00 MB       (current)
 **********************************************************************************************************************************


1PROGRAM * CCSD (Closed-shell coupled cluster)     Authors: C. Hampel, H.-J. Werner, 1991, M. Deegan, P.J. Knowles, 1992


 Convergence thresholds:  THRVAR = 1.00D-08  THRDEN = 1.00D-12

 CCSD(T)     terms to be evaluated (factor= 1.000)


 Number of core orbitals:           2 (   2 )
 Number of closed-shell orbitals:   8 (   8 )
 Number of external orbitals:      76 (  76 )

 Molecular orbitals read from record     2100.2  Type=RHF/CANONICAL (state 1.1)

 Number of N-1 electron functions:               8
 Number of N-2 electron functions:              36
 Number of singly external CSFs:               608
 Number of doubly external CSFs:            185136
 Total number of CSFs:                      185745

 Length of J-op  integral file:               0.00 MB
 Length of K-op  integral file:               0.54 MB
 Length of 3-ext integral record:             0.00 MB

 Memory could be reduced to 5.45 Mwords without degradation in triples

 Integral transformation finished. Total CPU:   0.23 sec, npass=  1  Memory used:   3.53 MW

 Reference energy:                    -80.39767848

 MP2 singlet pair energy:              -0.23821052
 MP2 triplet pair energy:              -0.09578558
 MP2 correlation energy:               -0.33399610
 MP2 total energy:                    -80.73167458

 SCS-MP2 correlation energy:           -0.34545254   (PS=  1.200000  PT=  0.333333)
 SCS-MP2 total energy:                -80.74313102

 ITER.      SQ.NORM     CORR.ENERGY   TOTAL ENERGY   ENERGY CHANGE        DEN1      VAR(S)    VAR(P)  DIIS     TIME
   1      1.13988333    -0.37811426   -80.77579275    -0.04411816    -0.03297289  0.68D-03  0.24D-02  1  1     0.55
   2      1.15302614    -0.38090771   -80.77858619    -0.00279344    -0.01280919  0.15D-04  0.11D-03  2  2     0.89
   3      1.15509706    -0.38104590   -80.77872438    -0.00013819    -0.00107884  0.24D-05  0.62D-05  3  3     1.28
   4      1.15552527    -0.38106354   -80.77874202    -0.00001764    -0.00017348  0.60D-07  0.37D-06  4  4     1.60
   5      1.15558583    -0.38105958   -80.77873807     0.00000396    -0.00002811  0.29D-08  0.21D-07  5  5     1.92
   6      1.15558805    -0.38105894   -80.77873742     0.00000064    -0.00000060  0.19D-09  0.15D-08  6  6     2.24
   7      1.15558822    -0.38105922   -80.77873770    -0.00000028     0.00000005  0.15D-10  0.95D-10  6  1     2.56
   8      1.15558828    -0.38105923   -80.77873771    -0.00000001    -0.00000009  0.18D-11  0.64D-11  6  2     2.88
   9      1.15558819    -0.38105923   -80.77873771     0.00000000     0.00000002  0.37D-12  0.44D-12  6  4     3.20
  10      1.15558819    -0.38105923   -80.77873771    -0.00000000    -0.00000000  0.29D-13  0.33D-13  6  3     3.52
  11      1.15558818    -0.38105923   -80.77873771    -0.00000000     0.00000000  0.24D-14  0.30D-14  6  5     3.84
  12      1.15558817    -0.38105923   -80.77873771    -0.00000000     0.00000000  0.20D-15  0.31D-15  6  6     4.16
  13      1.15558817    -0.38105923   -80.77873771    -0.00000000     0.00000000  0.12D-16  0.39D-16  6  1     4.48
  14      1.15558817    -0.38105923   -80.77873771    -0.00000000     0.00000000  0.16D-17  0.49D-17  6  2     4.79
  15      1.15558817    -0.38105923   -80.77873771    -0.00000000     0.00000000  0.11D-18  0.51D-18  6  4     5.16
  16      1.15558817    -0.38105923   -80.77873771    -0.00000000     0.00000000  0.11D-19  0.44D-19  6  3     5.48
  17      1.15558817    -0.38105923   -80.77873771     0.00000000    -0.00000000  0.22D-21  0.38D-20  6  6     5.80
  18      1.15558817    -0.38105923   -80.77873771     0.00000000    -0.00000000  0.36D-22  0.80D-22  6  5     6.22

 Norm of t1 vector:      0.03875473      S-energy:    -0.00000000      T1 diagnostic:  0.00685093
                                                                       D1 diagnostic:  0.01214103


 Total CPU time for triples:      3.28 sec


 RESULTS
 =======

  Reference energy                    -80.397678481801
  CCSD singlet pair energy             -0.287787646260
  CCSD triplet pair energy             -0.093271585817
  CCSD correlation energy              -0.381059232077

  Triples (T) contribution             -0.008787736700
  Total correlation energy             -0.389846968777

  CCSD total energy                   -80.778737713878
  CCSD[T] energy                      -80.787740049778
  CCSD-T energy                       -80.787413407399
 !CCSD(T) total energy                -80.787525450578

 Timing summary (sec):

 STEP                 CPU(USER)    SYS     CPU(TOT)    WALL
 Transformation          0.24      0.03      0.27      0.27
 CCSD iterations         5.98      0.33      6.31      6.37
 Triples                 3.28      0.05      3.33      3.33

 Program statistics:

 Available memory in ccsd:               999999644
 Min. memory needed in ccsd:                591289
 Max. memory used in ccsd:                  742713
 Max. memory used in cckext:                619606 (18 integral passes)



 **********************************************************************************************************************************
 DATASETS  * FILE   NREC   LENGTH (MB)   RECORD NAMES
              1      20       70.05       500      610      700      900      950      970     1000      129      960     1100   
                                          VAR    BASINP    GEOM    SYMINP    ZMAT    AOBASIS   BASIS     P2S    ABASIS      S 
                                         1400     1410     1200     1210     1080     1600     1650     1300     1700     1380   
                                           T        V       H0       H01     AOSYM     SMH    MOLCAS    ERIS     OPER     JKOP   

              2       3        0.57       700     1000     2100   
                                         GEOM     BASIS     RHF  

 PROGRAMS   *        TOTAL   CCSD(T)       RHF       INT
 CPU TIMES  *        11.68      9.51      0.83      1.20
 REAL TIME  *        12.96 SEC
 DISK USED  *       195.00 MB      
 GA USED    *         0.00 MB       (max)       0.00 MB       (current)
 **********************************************************************************************************************************

        CCSD(T)         RHF-SCF 
    -80.78752545    -80.39767848
 **********************************************************************************************************************************
 Variable memory released
