
 Primary working directories    : /tmp/999602.478.gen6.q
 Secondary working directories  : /tmp/999602.478.gen6.q
 Wavefunction directory         : /home/vulcan/jj04645/wfu/
 Main file repository           : /tmp/999602.478.gen6.q/

 ARCHNAME  : Linux/x86_64
 FC        : /opt/intel/compilers_and_libraries_2016.1.150/linux/bin/intel64/ifort
 FCVERSION : 16.0.1
 BLASLIB   : -mkl
 id        : ccgc

 Nodes     nprocs
 n075         1
 ga_uses_ma=false, calling ma_init with nominal heap.
 GA-space will be limited to   8.0 MW (determined by -G option)

 Using customized tuning parameters: mindgm=10; mindgv=16; mindgc=4; mindgr=1; noblas=0; mincuda=1000; minvec=7
 default implementation of scratch files=df  

 ***,Optimization of 1,3-difluorobenzene
 memory,1000,m
 gthresh,energy=1.0d-12,orbital=1.0d-10,oneint=1.0d-16,twoint=1.0d-16,optgrad=1.0d-6,compress=1.0d-13
 geomtyp=xyz
 
 bohr
 geometry = {
  F   -0.0000000000    4.4356142966   -1.7646166698
  C   -0.0000000000    2.2456950784   -0.4823225621
  C   -0.0000000000   -2.3018833407    2.1439022506
  C   -0.0000000000   -0.0000000000   -1.8458758589
  C   -0.0000000000    2.3018833407    2.1439022506
  C   -0.0000000000    0.0000000000    3.4353274755
  C   -0.0000000000   -2.2456950784   -0.4823225621
  H   -0.0000000000   -0.0000000000   -3.8872718518
  H   -0.0000000000    4.0940227798    3.1235376343
  H   -0.0000000000    0.0000000000    5.4903453646
  F    0.0000000000   -4.4356142966   -1.7646166698
  H    0.0000000000   -4.0940227798    3.1235376343
 }
 
 basis=VDZ
 {rhf;maxit,200}
 {ccsd(t);maxit,200}

 Variables initialized (661), CPU time= 0.00 sec
 Commands  initialized (458), CPU time= 0.00 sec, 486 directives.
 Default parameters read. Elapsed time= 0.05 sec

 Checking input...
 Passed
1


                                         ***  PROGRAM SYSTEM MOLPRO  ***
                         Copyright, University College Cardiff Consultants Limited, 2008

                                    Version 2010.1 linked May 16 2016 07:17:05


 **********************************************************************************************************************************
 LABEL *   Optimization of 1,3-difluorobenzene                                           
 Linux-4.4.3/n075(x86_64) 64 bit mpp version                                             DATE: 07-Feb-24          TIME: 15:53:06  
 **********************************************************************************************************************************

 SHA1:             9e8077add272b0f3cad6f7df79ec5211205f459d
 **********************************************************************************************************************************

 THRESHOLDS:

 ZERO    =  1.00D-12  ONEINT  =  1.00D-16  TWOINT  =  1.00D-16  PREFAC  =  1.00D-14  LOCALI  =  1.00D-09  EORDER  =  1.00D-04
 ENERGY  =  1.00D-12  ETEST   =  0.00D+00  EDENS   =  0.00D+00  THRDEDEF=  1.00D-06  GRADIENT=  1.00D-02  STEP    =  1.00D-03
 ORBITAL =  1.00D-10  CIVEC   =  1.00D-05  COEFF   =  1.00D-04  PRINTCI =  5.00D-02  PUNCHCI =  9.90D+01  OPTGRAD =  1.00D-06
 OPTENERG=  1.00D-06  OPTSTEP =  3.00D-04  THRGRAD =  1.00D-10  COMPRESS=  1.00D-13  VARMIN  =  1.00D-07  VARMAX  =  1.00D-03
 THRDOUB =  0.00D+00  THRDIV  =  1.00D-05  THRRED  =  1.00D-07  THRPSP  =  1.00D+00  THRDC   =  1.00D-10  THRCS   =  1.00D-10
 THRNRM  =  1.00D-08  THREQ   =  0.00D+00  THRDE   =  1.00D+00  THRREF  =  1.00D-05  SPARFAC =  1.00D+00  THRDLP  =  1.00D-07
 THRDIA  =  1.00D-10  THRDLS  =  1.00D-07  THRGPS  =  0.00D+00  THRKEX  =  0.00D+00  THRDIS  =  2.00D-01  THRVAR  =  1.00D-10
 THRLOC  =  1.00D-06  THRGAP  =  1.00D-06  THRLOCT = -1.00D+00  THRGAPT = -1.00D+00  THRORB  =  1.00D-06  THRMLTP =  0.00D+00
 THRCPQCI=  1.00D-10  KEXTA   =  0.00D+00  THRCOARS=  0.00D+00  SYMTOL  =  1.00D-06  GRADTOL =  1.00D-06  THROVL  =  1.00D-08
 THRORTH =  1.00D-08  GRID    =  1.00D-06  GRIDMAX =  1.00D-03  DTMAX   =  0.00D+00

 SETTING GEOMTYP        =    XYZ
 ZUNIT=BOHR
 

 Variable memory set to 1000000000 words,  buffer space   230000 words

 SETTING BASIS          =    VDZ


 Recomputing integrals since basis changed


 Using spherical harmonics

 Library entry F      S cc-pVDZ              selected for orbital group  1
 Library entry F      P cc-pVDZ              selected for orbital group  1
 Library entry F      D cc-pVDZ              selected for orbital group  1
 Library entry C      S cc-pVDZ              selected for orbital group  2
 Library entry C      P cc-pVDZ              selected for orbital group  2
 Library entry C      D cc-pVDZ              selected for orbital group  2
 Library entry H      S cc-pVDZ              selected for orbital group  3
 Library entry H      P cc-pVDZ              selected for orbital group  3

1PROGRAM * SEWARD (Integral evaluation for generally contracted gaussian basis sets)     Author: Roland Lindh, 1990

 Geometry written to block  1 of record 700


 Point group  C2v 



 ATOMIC COORDINATES

 NR  ATOM    CHARGE       X              Y              Z

   1  F       9.00    0.000000000    4.435614297   -1.764616670
   2  F       9.00    0.000000000   -4.435614297   -1.764616670
   3  C       6.00    0.000000000    2.245695078   -0.482322562
   4  C       6.00    0.000000000   -2.245695078   -0.482322562
   5  C       6.00    0.000000000   -2.301883341    2.143902251
   6  C       6.00    0.000000000    2.301883341    2.143902251
   7  C       6.00    0.000000000    0.000000000   -1.845875859
   8  C       6.00    0.000000000    0.000000000    3.435327475
   9  H       1.00    0.000000000    0.000000000   -3.887271852
  10  H       1.00    0.000000000    4.094022780    3.123537634
  11  H       1.00    0.000000000   -4.094022780    3.123537634
  12  H       1.00    0.000000000    0.000000000    5.490345365

 Bond lengths in Bohr (Angstrom)

 1-3  2.537720308  2-4  2.537720308  3-6  2.626825820  3-7  2.627246463  4-5  2.626825820
     ( 1.342903750)     ( 1.342903750)     ( 1.390056356)     ( 1.390278951)     ( 1.390056356)

  4- 7  2.627246463   5- 8  2.639402589   5-11  2.042412606   6- 8  2.639402589   6-10  2.042412606
       ( 1.390278951)       ( 1.396711695)       ( 1.080798203)       ( 1.396711695)       ( 1.080798203)

  7- 9  2.041395993   8-12  2.055017889
       ( 1.080260234)       ( 1.087468631)

 Bond angles

  1-3-6  119.12519119   1-3-7  118.38363534   2-4-5  119.12519119   2-4-7  118.38363534

  3- 6- 8  118.06806501   3- 6-10  119.88795555   3- 7- 4  117.46897346   3- 7- 9  121.26551327

  4- 5- 8  118.06806501   4- 5-11  119.88795555   4- 7- 9  121.26551327   5- 4- 7  122.49117346

  5- 8- 6  121.41254960   5- 8-12  119.29372520   6- 3- 7  122.49117346   6- 8-12  119.29372520

  8- 5-11  122.04397944   8- 6-10  122.04397944

 NUCLEAR CHARGE:                   58
 NUMBER OF PRIMITIVE AOS:         244
 NUMBER OF SYMMETRY AOS:          236
 NUMBER OF CONTRACTIONS:          132   (  54A1  +  21B1  +  42B2  +  15A2  )
 NUMBER OF CORE ORBITALS:           8   (   5A1  +   0B1  +   3B2  +   0A2  )
 NUMBER OF VALENCE ORBITALS:       36   (  16A1  +   5B1  +  12B2  +   3A2  )


 NUCLEAR REPULSION ENERGY  342.29417227


 Eigenvalues of metric

         1 0.395E-03 0.170E-02 0.306E-02 0.130E-01 0.149E-01 0.202E-01 0.238E-01 0.266E-01
         2 0.413E-01 0.100E+00 0.166E+00 0.185E+00 0.214E+00 0.286E+00 0.367E+00 0.411E+00
         3 0.121E-02 0.261E-02 0.314E-02 0.125E-01 0.220E-01 0.267E-01 0.397E-01 0.619E-01
         4 0.908E-01 0.162E+00 0.190E+00 0.275E+00 0.376E+00 0.417E+00 0.473E+00 0.689E+00


 Contracted 2-electron integrals neglected if value below      1.0D-16
 AO integral compression algorithm  1   Integral accuracy      1.0D-16

     91.226 MB (compressed) written to integral file ( 96.5%)

     Node minimum: 91.226 MB, node maximum: 91.226 MB


 NUMBER OF SORTED TWO-ELECTRON INTEGRALS:   10309416.     BUFFER LENGTH:  32768
 NUMBER OF SEGMENTS:   1  SEGMENT LENGTH:   10309416      RECORD LENGTH: 524288

 Memory used in sort:      10.87 MW

 SORT1 READ    11785400. AND WROTE    10207528. INTEGRALS IN     30 RECORDS. CPU TIME:     0.19 SEC, REAL TIME:     0.26 SEC
 SORT2 READ    10207528. AND WROTE    10309416. INTEGRALS IN    348 RECORDS. CPU TIME:     0.15 SEC, REAL TIME:     0.20 SEC

 FILE SIZES:   FILE 1:    83.5 MBYTE,  FILE 4:   125.9 MBYTE,   TOTAL:    209.3 MBYTE

 OPERATOR DM      FOR CENTER  0  COORDINATES:    0.000000    0.000000    0.000000


 **********************************************************************************************************************************
 DATASETS  * FILE   NREC   LENGTH (MB)   RECORD NAMES
              1      19       83.54       500      610      700      900      950      970     1000      129      960     1100   
                                          VAR    BASINP    GEOM    SYMINP    ZMAT    AOBASIS   BASIS     P2S    ABASIS      S 
                                         1400     1410     1200     1210     1080     1600     1650     1300     1700   
                                           T        V       H0       H01     AOSYM     SMH    MOLCAS    ERIS     OPER   

 PROGRAMS   *        TOTAL       INT
 CPU TIMES  *         2.18      2.15
 REAL TIME  *         2.55 SEC
 DISK USED  *       301.44 MB      
 GA USED    *         0.00 MB       (max)       0.00 MB       (current)
 **********************************************************************************************************************************

1PROGRAM * RHF-SCF (CLOSED SHELL)       Authors: W. Meyer, H.-J. Werner


 NUMBER OF ELECTRONS:      29+   29-
 CONVERGENCE THRESHOLDS:    1.00E-10 (Density)    1.00E-13 (Energy)
 MAX. NUMBER OF ITERATIONS:      200
 INTERPOLATION TYPE:            DIIS
 INTERPOLATION STEPS:              2 (START)      1 (STEP)
 LEVEL SHIFTS:                  0.00 (CLOSED)  0.00 (OPEN) 



 Orbital guess generated from atomic densities. Full valence occupancy:   21   5  15   3

 Molecular orbital dump at record        2100.2

 Initial alpha occupancy:  14   3  10   2
 Initial beta  occupancy:  14   3  10   2
 Wave function symmetry:    1

 ITERATION    DDIFF          GRAD             ENERGY        2-EL.EN.            DIPOLE MOMENTS         DIIS
    1      0.000D+00      0.000D+00      -428.34391062    992.925119    0.00000    0.00000    0.48144    0
    2      0.000D+00      0.108D-01      -428.41804377    992.450447    0.00000    0.00000    0.92390    1
    3      0.224D-01      0.492D-02      -428.43186182    992.791431    0.00000    0.00000    0.62248    2
    4      0.710D-02      0.130D-02      -428.43341395    992.845293    0.00000    0.00000    0.73488    3
    5      0.267D-02      0.395D-03      -428.43354906    992.810823    0.00000    0.00000    0.70174    4
    6      0.669D-03      0.827D-04      -428.43355681    992.820047    0.00000    0.00000    0.70603    5
    7      0.177D-03      0.250D-04      -428.43355788    992.823378    0.00000    0.00000    0.70438    6
    8      0.600D-04      0.893D-05      -428.43355801    992.822734    0.00000    0.00000    0.70480    7
    9      0.203D-04      0.409D-05      -428.43355804    992.823136    0.00000    0.00000    0.70452    8
   10      0.109D-04      0.158D-05      -428.43355805    992.823702    0.00000    0.00000    0.70459    8
   11      0.502D-05      0.883D-06      -428.43355805    992.823614    0.00000    0.00000    0.70456    8
   12      0.304D-05      0.347D-06      -428.43355805    992.823711    0.00000    0.00000    0.70457    8
   13      0.171D-05      0.578D-07      -428.43355805    992.823738    0.00000    0.00000    0.70457    8
   14      0.187D-06      0.221D-07      -428.43355805    992.823732    0.00000    0.00000    0.70457    9
   15      0.745D-07      0.517D-08      -428.43355805    992.823732    0.00000    0.00000    0.70457    9
   16      0.157D-07      0.199D-08      -428.43355805    992.823733    0.00000    0.00000    0.70457    9
   17      0.620D-08      0.747D-09      -428.43355805    992.823732    0.00000    0.00000    0.70457    8
   18      0.221D-08      0.153D-09      -428.43355805    992.823732    0.00000    0.00000    0.70457    7
   19      0.399D-09      0.519D-10      -428.43355805    992.823732    0.00000    0.00000    0.70457    7
   20      0.139D-09      0.186D-10      -428.43355805    992.823732    0.00000    0.00000    0.70457    8
   21      0.355D-10      0.420D-11      -428.43355805    992.823732    0.00000    0.00000    0.70457    8
   22      0.900D-11      0.159D-11      -428.43355805    992.823732    0.00000    0.00000    0.70457    8
   23      0.469D-11      0.574D-12      -428.43355805    992.823732    0.00000    0.00000    0.70457    0

 Final occupancy:  14   3  10   2

 !RHF STATE 1.1 Energy               -428.433558053771
 Nuclear energy                       342.29417227
 One-electron energy                -1267.13959654
 Two-electron energy                  496.41186622
 Virial quotient                       -1.00062343
 !RHF STATE 1.1 Dipole moment           0.00000000     0.00000000     0.70456843
 Dipole moment /Debye                   0.00000000     0.00000000     1.79071703

 Orbital energies:

         1.1          2.1          3.1          4.1          5.1          6.1          7.1          8.1          9.1         10.1
    -26.321182   -11.349646   -11.273295   -11.258654   -11.255999    -1.639697    -1.178979    -1.046306    -0.874562    -0.774481

        11.1         12.1         13.1         14.1         15.1         16.1
     -0.702977    -0.668264    -0.621624    -0.531892     0.179609     0.221496

         1.2          2.2          3.2          4.2          5.2
     -0.704046    -0.513855    -0.360149     0.114078     0.344300

         1.3          2.3          3.3          4.3          5.3          6.3          7.3          8.3          9.3         10.3
    -26.321183   -11.349641   -11.256051    -1.639099    -1.037385    -0.865247    -0.741174    -0.685537    -0.586579    -0.555688

        11.3         12.3
      0.226624     0.340002

         1.4          2.4          3.4          4.4
     -0.696065    -0.348676     0.131624     0.714956


 **********************************************************************************************************************************
 DATASETS  * FILE   NREC   LENGTH (MB)   RECORD NAMES
              1      19       83.54       500      610      700      900      950      970     1000      129      960     1100   
                                          VAR    BASINP    GEOM    SYMINP    ZMAT    AOBASIS   BASIS     P2S    ABASIS      S 
                                         1400     1410     1200     1210     1080     1600     1650     1300     1700   
                                           T        V       H0       H01     AOSYM     SMH    MOLCAS    ERIS     OPER   

              2       3        0.58       700     1000     2100   
                                         GEOM     BASIS     RHF  

 PROGRAMS   *        TOTAL       RHF       INT
 CPU TIMES  *         2.90      0.72      2.15
 REAL TIME  *         3.48 SEC
 DISK USED  *       301.44 MB      
 GA USED    *         0.00 MB       (max)       0.00 MB       (current)
 **********************************************************************************************************************************


1PROGRAM * CCSD (Closed-shell coupled cluster)     Authors: C. Hampel, H.-J. Werner, 1991, M. Deegan, P.J. Knowles, 1992


 Convergence thresholds:  THRVAR = 1.00D-08  THRDEN = 1.00D-12

 CCSD(T)     terms to be evaluated (factor= 1.000)


 Number of core orbitals:           8 (   5   0   3   0 )
 Number of closed-shell orbitals:  21 (   9   3   7   2 )
 Number of external orbitals:     103 (  40  18  32  13 )

 Molecular orbitals read from record     2100.2  Type=RHF/CANONICAL (state 1.1)

 Number of N-1 electron functions:              21
 Number of N-2 electron functions:             231
 Number of singly external CSFs:               664
 Number of doubly external CSFs:            611519
 Total number of CSFs:                      612184

 Length of J-op  integral file:               0.00 MB
 Length of K-op  integral file:               0.40 MB
 Length of 3-ext integral record:             0.00 MB

 Memory could be reduced to 8.58 Mwords without degradation in triples

 Integral transformation finished. Total CPU:   0.28 sec, npass=  1  Memory used:   3.54 MW

 Reference energy:                   -428.43355805

 MP2 singlet pair energy:              -0.67273339
 MP2 triplet pair energy:              -0.46576938
 MP2 correlation energy:               -1.13850277
 MP2 total energy:                   -429.57206082

 SCS-MP2 correlation energy:           -1.09709213   (PS=  1.200000  PT=  0.333333)
 SCS-MP2 total energy:               -429.53065018

 ITER.      SQ.NORM     CORR.ENERGY   TOTAL ENERGY   ENERGY CHANGE        DEN1      VAR(S)    VAR(P)  DIIS     TIME
   1      1.36222089    -1.16824247  -429.60180053    -0.02973970     0.00051296  0.67D-02  0.73D-02  1  1     1.06
   2      1.38870537    -1.17177678  -429.60533483    -0.00353431    -0.02701171  0.13D-03  0.11D-02  2  2     1.86
   3      1.39951103    -1.17237885  -429.60593690    -0.00060207    -0.00538663  0.86D-04  0.10D-03  3  3     2.69
   4      1.40354241    -1.17230447  -429.60586252     0.00007438    -0.00142440  0.48D-05  0.20D-04  4  4     3.51
   5      1.40538276    -1.17233507  -429.60589313    -0.00003060    -0.00045106  0.91D-06  0.22D-05  5  5     4.33
   6      1.40585886    -1.17234082  -429.60589888    -0.00000575    -0.00006809  0.12D-06  0.24D-06  6  6     5.15
   7      1.40594597    -1.17233579  -429.60589385     0.00000503     0.00000027  0.28D-07  0.22D-07  6  1     5.97
   8      1.40597095    -1.17233691  -429.60589497    -0.00000112    -0.00000756  0.61D-08  0.30D-08  6  2     6.79
   9      1.40597226    -1.17233757  -429.60589563    -0.00000066     0.00000229  0.18D-08  0.34D-09  6  3     7.62
  10      1.40597462    -1.17233734  -429.60589540     0.00000023    -0.00000121  0.38D-09  0.76D-10  6  4     8.44
  11      1.40597468    -1.17233758  -429.60589563    -0.00000024     0.00000032  0.45D-10  0.20D-10  6  5     9.27
  12      1.40597488    -1.17233756  -429.60589561     0.00000002    -0.00000007  0.11D-10  0.24D-11  6  6    10.08
  13      1.40597488    -1.17233758  -429.60589563    -0.00000002     0.00000005  0.57D-12  0.56D-12  6  1    10.90
  14      1.40597487    -1.17233759  -429.60589564    -0.00000001     0.00000002  0.15D-12  0.87D-13  6  2    11.73
  15      1.40597486    -1.17233759  -429.60589564     0.00000000     0.00000000  0.40D-13  0.14D-13  6  3    12.55
  16      1.40597486    -1.17233759  -429.60589564    -0.00000000     0.00000000  0.63D-14  0.42D-14  6  4    13.38
  17      1.40597487    -1.17233759  -429.60589564    -0.00000000    -0.00000000  0.16D-14  0.72D-15  6  5    14.19
  18      1.40597487    -1.17233759  -429.60589564    -0.00000000    -0.00000000  0.21D-15  0.11D-15  6  6    15.01
  19      1.40597487    -1.17233759  -429.60589564    -0.00000000    -0.00000000  0.31D-16  0.23D-16  6  1    15.83
  20      1.40597487    -1.17233759  -429.60589564     0.00000000    -0.00000000  0.13D-16  0.29D-17  6  2    16.66
  21      1.40597487    -1.17233759  -429.60589564    -0.00000000    -0.00000000  0.14D-17  0.67D-18  6  3    17.48
  22      1.40597487    -1.17233759  -429.60589564    -0.00000000    -0.00000000  0.44D-18  0.14D-18  6  4    18.30
  23      1.40597487    -1.17233759  -429.60589564     0.00000000    -0.00000000  0.88D-19  0.23D-19  6  5    19.12
  24      1.40597487    -1.17233759  -429.60589564    -0.00000000    -0.00000000  0.75D-20  0.50D-20  6  6    19.94
  25      1.40597487    -1.17233759  -429.60589564    -0.00000000     0.00000000  0.18D-20  0.11D-20  6  1    20.76

 Norm of t1 vector:      0.10829993      S-energy:     0.00000000      T1 diagnostic:  0.01181649
                                                                       D1 diagnostic:  0.03167629

 Doubles amplitudes (print threshold =  0.500E-01):

         I         J         SYM. A    SYM. B    A         B      T(IJ, AB)

        12        12         2         2         1         1     -0.08672459
        21        21         4         4         1         1     -0.08397866
        21        12         2         4         1         1     -0.05134882


 Total CPU time for triples:     14.50 sec


 RESULTS
 =======

  Reference energy                   -428.433558053771
  CCSD singlet pair energy             -0.756843278186
  CCSD triplet pair energy             -0.415494310110
  CCSD correlation energy              -1.172337588295

  Triples (T) contribution             -0.043081300499
  Total correlation energy             -1.215418888794

  CCSD total energy                  -429.605895642066
  CCSD[T] energy                     -429.650978184883
  CCSD-T energy                      -429.648252103664
 !CCSD(T) total energy               -429.648976942565

 Timing summary (sec):

 STEP                 CPU(USER)    SYS     CPU(TOT)    WALL
 Transformation          0.30      0.06      0.36      0.35
 CCSD iterations        20.47      0.85     21.32     21.37
 Triples                14.50      0.46     14.96     14.98

 Program statistics:

 Available memory in ccsd:               999998136
 Min. memory needed in ccsd:               1649999
 Max. memory used in ccsd:                 2209098
 Max. memory used in cckext:               2371604 (25 integral passes)



 **********************************************************************************************************************************
 DATASETS  * FILE   NREC   LENGTH (MB)   RECORD NAMES
              1      20      121.15       500      610      700      900      950      970     1000      129      960     1100   
                                          VAR    BASINP    GEOM    SYMINP    ZMAT    AOBASIS   BASIS     P2S    ABASIS      S 
                                         1400     1410     1200     1210     1080     1600     1650     1300     1700     1380   
                                           T        V       H0       H01     AOSYM     SMH    MOLCAS    ERIS     OPER     JKOP   

              2       3        0.58       700     1000     2100   
                                         GEOM     BASIS     RHF  

 PROGRAMS   *        TOTAL   CCSD(T)       RHF       INT
 CPU TIMES  *        38.18     35.28      0.72      2.15
 REAL TIME  *        40.21 SEC
 DISK USED  *       321.29 MB      
 GA USED    *         0.00 MB       (max)       0.00 MB       (current)
 **********************************************************************************************************************************

        CCSD(T)         RHF-SCF 
   -429.64897694   -428.43355805
 **********************************************************************************************************************************
 Variable memory released
