
    -----------------------------------------------------------------------
          Psi4: An Open-Source Ab Initio Electronic Structure Package
                               Psi4 1.4a2.dev629 

                         Git: Rev {master} 2938fc2 dirty


    D. G. A. Smith, L. A. Burns, A. C. Simmonett, R. M. Parrish,
    M. C. Schieber, R. Galvelis, P. Kraus, H. Kruse, R. Di Remigio,
    A. Alenaizan, A. M. James, S. Lehtola, J. P. Misiewicz, M. Scheurer,
    R. A. Shaw, J. B. Schriber, Y. Xie, Z. L. Glick, D. A. Sirianni,
    J. S. O'Brien, J. M. Waldrop, A. Kumar, E. G. Hohenstein,
    B. P. Pritchard, B. R. Brooks, H. F. Schaefer III, A. Yu. Sokolov,
    K. Patkowski, A. E. DePrince III, U. Bozkaya, R. A. King,
    F. A. Evangelista, J. M. Turney, T. D. Crawford, C. D. Sherrill,
    J. Chem. Phys. 152(18) 184108 (2020). https://doi.org/10.1063/5.0006002

                            Additional Code Authors
    E. T. Seidl, C. L. Janssen, E. F. Valeev, M. L. Leininger,
    J. F. Gonthier, R. M. Richard, H. R. McAlexander, M. Saitow, X. Wang,
    P. Verma, and M. H. Lechner

             Previous Authors, Complete List of Code Contributors,
                       and Citations for Specific Modules
    https://github.com/psi4/psi4/blob/master/codemeta.json
    https://github.com/psi4/psi4/graphs/contributors
    http://psicode.org/psi4manual/master/introduction.html#citing-psifour

    -----------------------------------------------------------------------


    Psi4 started on: Thursday, 04 November 2021 09:37AM

    Process ID: 22787
    Host:       n045
    PSIDATADIR: /opt/psi/4/master/share/psi4
    Memory:     500.0 MiB
    Threads:    1
    
  ==> Input File <==

--------------------------------------------------------------------------
import os
memory 14 GB 
 
molecule {
 X    1.0000000000    0.0000000000    1.3125182900
 C   -0.0000000000   -0.0051046650    1.3160439238
 X    0.0000000000    1.0000000000    1.3125182900
 X    1.0000000000    0.0000000000   -1.3125182900
 C   -0.0000000000    0.0051046650   -1.3160439238
 X    0.0000000000    1.0000000000   -1.3125182900
 N   -0.0000000000    0.0019067633    3.5123046620
 N    0.0000000000   -0.0019067633   -3.5123046620
units bohr
}

basis {

assign 6-31g_2dfp_

[ 6-31g_2dfp_ ]

spherical

!----------------------------------------------------------------------
! Basis Set Exchange
! Version v0.8.13
! https://www.basissetexchange.org
!----------------------------------------------------------------------
!   Basis set: 6-31G(2df,p)
! Description: 6-31G(2df,p)
!        Role: orbital
!     Version: 0  (Data from the original Basis Set Exchange)
!----------------------------------------------------------------------


****
H     0
S    3   1.00
     18.7311370              0.03349460
      2.8253937              0.23472695
      0.6401217              0.81375733
S    1   1.00
      0.1612778              1.00000000
P    1   1.00
      1.5000000              1.0000000
P    1   1.00
      0.3750000              1.0000000
****
B     0
S    6   1.00
   2068.8823000              0.0018663
    310.6495700              0.0142515
     70.6830330              0.0695516
     19.8610800              0.2325729
      6.2993048              0.4670787
      2.1270270              0.3634314
SP   3   1.00
      4.7279710             -0.1303938              0.0745976
      1.1903377             -0.1307889              0.3078467
      0.3594117              1.1309444              0.7434568
SP   1   1.00
      0.1267512              1.0000000              1.0000000
D    1   1.00
      0.8020000              1.0000000
D    1   1.00
      0.2005000              1.0000000
F    1   1.00
      0.5000000              1.0000000
****
C     0
S    6   1.00
   3047.5249000              0.0018347
    457.3695100              0.0140373
    103.9486900              0.0688426
     29.2101550              0.2321844
      9.2866630              0.4679413
      3.1639270              0.3623120
SP   3   1.00
      7.8682724             -0.1193324              0.0689991
      1.8812885             -0.1608542              0.3164240
      0.5442493              1.1434564              0.7443083
SP   1   1.00
      0.1687144              1.0000000              1.0000000
D    1   1.00
      1.2520000              1.0000000
D    1   1.00
      0.3130000              1.0000000
F    1   1.00
      0.8000000              1.0000000
****
N     0
S    6   1.00
   4173.5110000              0.0018348
    627.4579000              0.0139950
    142.9021000              0.0685870
     40.2343300              0.2322410
     12.8202100              0.4690700
      4.3904370              0.3604550
SP   3   1.00
     11.6263580             -0.1149610              0.0675800
      2.7162800             -0.1691180              0.3239070
      0.7722180              1.1458520              0.7408950
SP   1   1.00
      0.2120313              1.0000000              1.0000000
D    1   1.00
      1.8260000              1.0000000
D    1   1.00
      0.4565000              1.0000000
F    1   1.00
      1.0000000              1.0000000
****
O     0
S    6   1.00
   5484.6717000              0.0018311
    825.2349500              0.0139501
    188.0469600              0.0684451
     52.9645000              0.2327143
     16.8975700              0.4701930
      5.7996353              0.3585209
SP   3   1.00
     15.5396160             -0.1107775              0.0708743
      3.5999336             -0.1480263              0.3397528
      1.0137618              1.1307670              0.7271586
SP   1   1.00
      0.2700058              1.0000000              1.0000000
D    1   1.00
      2.5840000              1.0000000
D    1   1.00
      0.6460000              1.0000000
F    1   1.00
      1.4000000              1.0000000
****
F     0
S    6   1.00
   7001.7130900              0.0018196169
   1051.3660900              0.0139160796
    239.2856900              0.0684053245
     67.3974453              0.233185760
     21.5199573              0.471267439
      7.40310130             0.356618546
SP   3   1.00
     20.8479528             -0.108506975            0.0716287243
      4.80830834            -0.146451658            0.3459121030
      1.34406986             1.128688580            0.7224699570
SP   1   1.00
      0.358151393            1.0000000              1.0000000
D    1   1.00
      3.5000000              1.0000000
D    1   1.00
      0.8750000              1.0000000
F    1   1.00
      1.8500000              1.0000000
****
Al     0
S    6   1.00
  13983.1000000              0.00194267
   2098.7500000              0.0148599
    477.7050000              0.0728494
    134.3600000              0.2468300
     42.8709000              0.4872580
     14.5189000              0.3234960
SP   6   1.00
    239.6680000             -0.00292619             0.00460285
     57.4419000             -0.0374080              0.0331990
     18.2859000             -0.1144870              0.1362820
      6.5991400              0.1156350              0.3304760
      2.4904900              0.6125950              0.4491460
      0.9445400              0.3937990              0.2657040
SP   3   1.00
      1.2779000             -0.2276060             -0.0175130
      0.3975900              0.00144583             0.2445330
      0.1600950              1.0927900              0.8049340
SP   1   1.00
      0.0556577              1.0000000              1.0000000
D    1   1.00
      0.6500000              1.0000000
D    1   1.00
      0.1625000              1.0000000
F    1   1.00
      0.2500000              1.0000000
****
Si     0
S    6   1.00
  16115.9000000              0.00195948
   2425.5800000              0.01492880
    553.8670000              0.07284780
    156.3400000              0.24613000
     50.0683000              0.48591400
     17.0178000              0.32500200
SP   6   1.00
    292.7180000             -0.00278094             0.00443826
     69.8731000             -0.03571460             0.03266790
     22.3363000             -0.11498500             0.13472100
      8.1503900              0.09356340             0.32867800
      3.1345800              0.60301700             0.44964000
      1.2254300              0.41895900             0.26137200
SP   3   1.00
      1.7273800             -0.24463000            -0.01779510
      0.5729220              0.00431572             0.25353900
      0.2221920              1.09818000             0.80066900
SP   1   1.00
      0.0778369              1.00000000             1.00000000
D    1   1.00
      0.9000000              1.0000000
D    1   1.00
      0.2250000              1.0000000
F    1   1.00
      0.3200000              1.0000000
****
P     0
S    6   1.00
  19413.3000000              0.0018516
   2909.4200000              0.0142062
    661.3640000              0.0699995
    185.7590000              0.2400790
     59.1943000              0.4847620
     20.0310000              0.3352000
SP   6   1.00
    339.4780000             -0.00278217             0.00456462
     81.0101000             -0.0360499              0.03369360
     25.8780000             -0.1166310              0.13975500
      9.4522100              0.0968328              0.33936200
      3.6656600              0.6144180              0.45092100
      1.4674600              0.4037980              0.23858600
SP   3   1.00
      2.1562300             -0.2529230             -0.01776530
      0.7489970              0.0328517              0.27405800
      0.2831450              1.0812500              0.78542100
SP   1   1.00
      0.0998317              1.0000000              1.00000000
D    1   1.00
      1.1000000              1.0000000
D    1   1.00
      0.2750000              1.0000000
F    1   1.00
      0.4500000              1.0000000
****
S     0
S    6   1.00
  21917.1000000              0.0018690
   3301.4900000              0.0142300
    754.1460000              0.0696960
    212.7110000              0.2384870
     67.9896000              0.4833070
     23.0515000              0.3380740
SP   6   1.00
    423.7350000             -0.0023767              0.0040610
    100.7100000             -0.0316930              0.0306810
     32.1599000             -0.1133170              0.1304520
     11.8079000              0.0560900              0.3272050
      4.6311000              0.5922550              0.4528510
      1.8702500              0.4550060              0.2560420
SP   3   1.00
      2.6158400             -0.2503740             -0.0145110
      0.9221670              0.0669570              0.3102630
      0.3412870              1.0545100              0.7544830
SP   1   1.00
      0.1171670              1.0000000              1.0000000
D    1   1.00
      1.3000000              1.0000000
D    1   1.00
      0.3250000              1.0000000
F    1   1.00
      0.5500000              1.0000000
****
Cl     0
S    6   1.00
  25180.1000000              0.0018330
   3780.3500000              0.0140340
    860.4740000              0.0690970
    242.1450000              0.2374520
     77.3349000              0.4830340
     26.2470000              0.3398560
SP   6   1.00
    491.7650000             -0.0022974              0.0039894
    116.9840000             -0.0307140              0.0303180
     37.4153000             -0.1125280              0.1298800
     13.7834000              0.0450160              0.3279510
      5.4521500              0.5893530              0.4535270
      2.2258800              0.4652060              0.2521540
SP   3   1.00
      3.1864900             -0.2518300             -0.0142990
      1.1442700              0.0615890              0.3235720
      0.4203770              1.0601800              0.7435070
SP   1   1.00
      0.1426570              1.0000000              1.0000000
D    1   1.00
      1.5000000              1.0000000
D    1   1.00
      0.3750000              1.0000000
F    1   1.00
      0.7000000              1.0000000
****
}


set {
reference rhf                          
freeze_core true
e_convergence 10                       
d_convergence 10                      
dft_spherical_points 1202
dft_radial_points 99
}

e = energy('b3lyp')

print_out('Grab this energy {0}'.format(e))
--------------------------------------------------------------------------

  Memory set to  13.039 GiB by Python driver.

Scratch directory: /tmp/

*** tstart() called on n045
*** at Thu Nov  4 09:37:48 2021

   => Loading Basis Set <=

    Name: ANONYMOUS2D81CDDC
    Role: ORBITAL
    Keyword: BASIS
    atoms 1-2 entry C          line    48 inputblock 6-31g_2dfp_ 
    atoms 3-4 entry N          line    69 inputblock 6-31g_2dfp_ 


         ---------------------------------------------------------
                                   SCF
               by Justin Turney, Rob Parrish, Andy Simmonett
                          and Daniel G. A. Smith
                              RKS Reference
                        1 Threads,  13351 MiB Core
         ---------------------------------------------------------

  ==> Geometry <==

    Molecular point group: c2h
    Full point group: C2h

    Geometry (in Bohr), charge = 0, multiplicity = 1:

       Center              X                  Y                   Z               Mass       
    ------------   -----------------  -----------------  -----------------  -----------------
         C            0.005104665000    -1.316043923800     0.000000000000    12.000000000000
         C           -0.005104665000     1.316043923800     0.000000000000    12.000000000000
         N           -0.001906763300    -3.512304662000     0.000000000000    14.003074004430
         N            0.001906763300     3.512304662000     0.000000000000    14.003074004430

  Running in c2h symmetry.

  Rotational constants: A =  82986.58588  B =      0.15553  C =      0.15553 [cm^-1]
  Rotational constants: A = 2487875256.06469  B =   4662.70170  C =   4662.69296 [MHz]
  Nuclear repulsion =   76.296606858829563

  Charge       = 0
  Multiplicity = 1
  Electrons    = 26
  Nalpha       = 13
  Nbeta        = 13

  ==> Algorithm <==

  SCF Algorithm Type is DF.
  DIIS enabled.
  MOM disabled.
  Fractional occupation disabled.
  Guess Type is SAD.
  Energy threshold   = 1.00e-10
  Density threshold  = 1.00e-10
  Integral threshold = 0.00e+00

  ==> Primary Basis <==

  Basis Set: ANONYMOUS2D81CDDC
    Blend: 6-31G_2DFP_
    Number of shells: 32
    Number of basis function: 104
    Number of Cartesian functions: 124
    Spherical Harmonics?: true
    Max angular momentum: 3

  ==> DFT Potential <==

   => Composite Functional: B3LYP <= 

    B3LYP Hyb-GGA Exchange-Correlation Functional

    P. J. Stephens, F. J. Devlin, C. F. Chabalowski, and M. J. Frisch, J. Phys. Chem. 98, 11623 (1994)

    Deriv               =              1
    GGA                 =           TRUE
    Meta                =          FALSE

    Exchange Hybrid     =           TRUE
    MP2 Hybrid          =          FALSE

   => Exchange Functionals <=

    0.0800   Slater exchange
    0.7200         Becke 88

   => Exact (HF) Exchange <=

    0.2000               HF 

   => Correlation Functionals <=

    0.1900   Vosko, Wilk & Nusair (VWN5_RPA)
    0.8100   Lee, Yang & Parr

   => Molecular Quadrature <=

    Radial Scheme          =       TREUTLER
    Pruning Scheme         =           NONE
    Nuclear Scheme         =       TREUTLER

    BS radius alpha        =              1
    Pruning alpha          =              1
    Radial Points          =             99
    Spherical Points       =           1202
    Total Points           =         442864
    Total Blocks           =           3192
    Max Points             =            256
    Max Functions          =            103
    Weights Tolerance      =       1.00E-15

   => Loading Basis Set <=

    Name: (ANONYMOUS2D81CDDC AUX)
    Role: JKFIT
    Keyword: DF_BASIS_SCF
    atoms 1-2 entry C          line   198 file /opt/psi/4/master/share/psi4/basis/def2-universal-jkfit.gbs 
    atoms 3-4 entry N          line   258 file /opt/psi/4/master/share/psi4/basis/def2-universal-jkfit.gbs 

  ==> Integral Setup <==

  DFHelper Memory: AOs need 0.027 GiB; user supplied 8.678 GiB. Using in-core AOs.

  ==> MemDFJK: Density-Fitted J/K Matrices <==

    J tasked:                   Yes
    K tasked:                   Yes
    wK tasked:                   No
    OpenMP threads:               1
    Memory [MiB]:              8886
    Algorithm:                 Core
    Schwarz Cutoff:           1E-12
    Mask sparsity (%):       1.5163
    Fitting Condition:        1E-10

   => Auxiliary Basis Set <=

  Basis Set: (ANONYMOUS2D81CDDC AUX)
    Blend: DEF2-UNIVERSAL-JKFIT
    Number of shells: 100
    Number of basis function: 304
    Number of Cartesian functions: 364
    Spherical Harmonics?: true
    Max angular momentum: 4

  Cached 100.0% of DFT collocation blocks in 1.101 [GiB].

  Minimum eigenvalue in the overlap matrix is 5.9882843383E-04.
  Reciprocal condition number of the overlap matrix is 1.3430818729E-04.
    Using symmetric orthogonalization.

  ==> Pre-Iterations <==

  SCF Guess: Superposition of Atomic Densities via on-the-fly atomic UHF (no occupation information).

   -------------------------
    Irrep   Nso     Nmo    
   -------------------------
     Ag        34      34 
     Bg        18      18 
     Au        18      18 
     Bu        34      34 
   -------------------------
    Total     104     104
   -------------------------

  ==> Iterations <==

                           Total Energy        Delta E     RMS |[F,P]|

   @DF-RKS iter SAD:  -184.93179636945086   -1.84932e+02   0.00000e+00 
   @DF-RKS iter   1:  -185.48797691347116   -5.56181e-01   1.14534e-02 DIIS
   @DF-RKS iter   2:  -185.04937004227884    4.38607e-01   2.13169e-02 DIIS
   @DF-RKS iter   3:  -185.62596797471934   -5.76598e-01   4.77783e-03 DIIS
   @DF-RKS iter   4:  -185.65901587794764   -3.30479e-02   2.93050e-04 DIIS
   @DF-RKS iter   5:  -185.65912684552180   -1.10968e-04   4.57938e-05 DIIS
   @DF-RKS iter   6:  -185.65912938005553   -2.53453e-06   1.08735e-05 DIIS
   @DF-RKS iter   7:  -185.65912952822853   -1.48173e-07   8.32644e-07 DIIS
   @DF-RKS iter   8:  -185.65912952911279   -8.84256e-10   4.78112e-08 DIIS
   @DF-RKS iter   9:  -185.65912952911566   -2.87059e-12   1.36349e-09 DIIS
   @DF-RKS iter  10:  -185.65912952911580   -1.42109e-13   6.12480e-10 DIIS
   @DF-RKS iter  11:  -185.65912952911566    1.42109e-13   1.59889e-10 DIIS
   @DF-RKS iter  12:  -185.65912952911555    1.13687e-13   3.60184e-12 DIIS
  Energy and wave function converged.


  ==> Post-Iterations <==

    Orbital Energies [Eh]
    ---------------------

    Doubly Occupied:                                                      

       1Bu   -14.411314     1Ag   -14.411219     2Ag   -10.298841  
       2Bu   -10.298487     3Ag    -0.976690     3Bu    -0.957909  
       4Ag    -0.744838     4Bu    -0.448506     1Au    -0.448505  
       5Bu    -0.432136     5Ag    -0.418300     1Bg    -0.369769  
       6Ag    -0.369768  

    Virtual:                                                              

       6Bu    -0.093115     2Au    -0.093106     7Bu     0.101631  
       7Ag     0.114788     2Bg     0.114816     8Ag     0.216680  
       8Bu     0.341375     9Bu     0.439125     3Au     0.439127  
       9Ag     0.495675     3Bg     0.495677    10Ag     0.497745  
       4Bg     0.497746    11Ag     0.514620    10Bu     0.568624  
      12Ag     0.620285    11Bu     0.670676     4Au     0.670697  
      12Bu     0.701782     5Au     0.701782    13Ag     0.764925  
       5Bg     0.764931    13Bu     0.871988     6Au     0.872081  
      14Ag     0.914165    14Bu     0.978401     6Bg     1.079603  
      15Ag     1.079603    15Bu     1.101955     7Au     1.255884  
      16Bu     1.255884    16Ag     1.354046     7Bg     1.354087  
      17Ag     1.377736    17Bu     1.519267     8Au     1.658325  
      18Bu     1.658440    18Ag     1.868518     8Bg     1.868529  
      19Ag     2.008329    19Bu     2.027243    20Bu     2.550516  
       9Bg     2.583268    20Ag     2.583268    21Bu     2.594507  
       9Au     2.594507    10Au     2.649539    22Bu     2.649677  
      21Ag     2.734924    22Ag     2.832720    10Bg     2.832720  
      11Bg     2.995391    23Ag     2.995452    12Bg     3.055700  
      24Ag     3.055700    23Bu     3.067597    11Au     3.067597  
      25Ag     3.341807    24Bu     3.348567    12Au     3.348568  
      25Bu     3.375574    13Au     3.375694    26Bu     3.596764  
      14Au     3.596764    26Ag     3.632254    13Bg     3.632254  
      14Bg     3.729894    27Ag     3.730146    27Bu     3.784281  
      28Ag     3.860767    15Bg     4.136811    29Ag     4.136811  
      28Bu     4.343506    15Au     4.594300    29Bu     4.594376  
      16Au     4.608464    30Bu     4.608466    16Bg     4.707484  
      30Ag     4.707515    17Bg     4.730019    31Ag     4.730019  
      17Au     4.778905    31Bu     4.778905    32Bu     5.377951  
      18Au     5.377970    32Ag     5.444175    18Bg     5.497915  
      33Ag     5.498856    33Bu     5.629001    34Bu     5.837407  
      34Ag     6.553363  

    Final Occupation by Irrep:
             Ag    Bg    Au    Bu 
    DOCC [     6,    1,    1,    5 ]

  @DF-RKS Final Energy:  -185.65912952911555

   => Energetics <=

    Nuclear Repulsion Energy =             76.2966068588295627
    One-Electron Energy =                -400.4825985081097315
    Two-Electron Energy =                 158.3386320646131651
    DFT Exchange-Correlation Energy =     -19.8117699444485638
    Empirical Dispersion Energy =           0.0000000000000000
    VV10 Nonlocal Energy =                  0.0000000000000000
    Total Energy =                       -185.6591295291155461

Computation Completed


Properties will be evaluated at   0.000000,   0.000000,   0.000000 [a0]

Properties computed using the SCF density matrix

  Nuclear Dipole Moment: [e a0]
     X:     0.0000      Y:     0.0000      Z:     0.0000

  Electronic Dipole Moment: [e a0]
     X:     0.0000      Y:     0.0000      Z:     0.0000

  Dipole Moment: [e a0]
     X:     0.0000      Y:     0.0000      Z:     0.0000     Total:     0.0000

  Dipole Moment: [D]
     X:     0.0000      Y:     0.0000      Z:     0.0000     Total:     0.0000


*** tstop() called on n045 at Thu Nov  4 09:38:10 2021
Module time:
	user time   =      21.37 seconds =       0.36 minutes
	system time =       0.23 seconds =       0.00 minutes
	total time  =         22 seconds =       0.37 minutes
Total time:
	user time   =      21.37 seconds =       0.36 minutes
	system time =       0.23 seconds =       0.00 minutes
	total time  =         22 seconds =       0.37 minutes
Grab this energy -185.65912952911555
    Psi4 stopped on: Thursday, 04 November 2021 09:38AM
    Psi4 wall time for execution: 0:00:21.64

*** Psi4 exiting successfully. Buy a developer a beer!
