
 Primary working directories    : /tmp/1047041.558.gen4.q
 Secondary working directories  : /tmp/1047041.558.gen4.q
 Wavefunction directory         : /home/vulcan/mel64643/wfu/
 Main file repository           : /tmp/1047041.558.gen4.q/

 ARCHNAME  : Linux/x86_64
 FC        : /opt/intel/compilers_and_libraries_2016.1.150/linux/bin/intel64/ifort
 FCVERSION : 16.0.1
 BLASLIB   : -mkl
 id        : ccgc

 Nodes     nprocs
 n062         1
 ga_uses_ma=false, calling ma_init with nominal heap.
 GA-space will be limited to   8.0 MW (determined by -G option)

 Using customized tuning parameters: mindgm=10; mindgv=16; mindgc=4; mindgr=1; noblas=0; mincuda=1000; minvec=7
 default implementation of scratch files=df  

 ***,Optimization of ben_hcn
 memory,1000,m
 gthresh,energy=1.0d-12,orbital=1.0d-10,oneint=1.0d-16,twoint=1.0d-16,optgrad=1.0d-6,compress=1.0d-13
 geomtyp=xyz
 
 
 
 bohr
 geometry = {
  C   -1.8822908907    1.3699853818    2.2870435121
  C   -1.8563323186    2.6907177282   -0.0028295641
  C   -1.8760165890    1.3681674424   -2.2917005908
  C   -1.9216220083   -1.2749049410   -2.2906149643
  C   -1.9475668530   -2.5954545885   -0.0008724052
  C   -1.9278756806   -1.2731064735    2.2879067511
  H   -1.8730222911    2.3966440916    4.0637832435
  H   -1.8213229725    4.7343192508   -0.0036043996
  H   -1.8439440752    2.3930864417   -4.0691737181
  H   -1.9186110280   -2.2976494733   -4.0601766785
  H   -1.9703824366   -4.6473441235   -0.0000812745
  H   -1.9474556392   -2.2942109939    4.0583146638
  N    6.6240544281   -0.2021656278    0.0019838499
  C    4.4344064305   -0.0781279118    0.0064371509
  H    2.4147831712    0.0365673447    0.0106849377
 }
 
 basis=aug-cc-pvdz, H=cc-pvdz
 {rhf;maxit,200}
 {ccsd(t)}

 Variables initialized (661), CPU time= 0.01 sec
 Commands  initialized (458), CPU time= 0.00 sec, 486 directives.
 Default parameters read. Elapsed time= 0.05 sec

 Checking input...
 Passed
1


                                         ***  PROGRAM SYSTEM MOLPRO  ***
                         Copyright, University College Cardiff Consultants Limited, 2008

                                    Version 2010.1 linked May 16 2016 07:17:05


 **********************************************************************************************************************************
 LABEL *   Optimization of ben_hcn                                                       
 Linux-4.4.3/n062(x86_64) 64 bit mpp version                                             DATE: 07-Mar-24          TIME: 18:32:22  
 **********************************************************************************************************************************

 SHA1:             9e8077add272b0f3cad6f7df79ec5211205f459d
 **********************************************************************************************************************************

 THRESHOLDS:

 ZERO    =  1.00D-12  ONEINT  =  1.00D-16  TWOINT  =  1.00D-16  PREFAC  =  1.00D-14  LOCALI  =  1.00D-09  EORDER  =  1.00D-04
 ENERGY  =  1.00D-12  ETEST   =  0.00D+00  EDENS   =  0.00D+00  THRDEDEF=  1.00D-06  GRADIENT=  1.00D-02  STEP    =  1.00D-03
 ORBITAL =  1.00D-10  CIVEC   =  1.00D-05  COEFF   =  1.00D-04  PRINTCI =  5.00D-02  PUNCHCI =  9.90D+01  OPTGRAD =  1.00D-06
 OPTENERG=  1.00D-06  OPTSTEP =  3.00D-04  THRGRAD =  1.00D-10  COMPRESS=  1.00D-13  VARMIN  =  1.00D-07  VARMAX  =  1.00D-03
 THRDOUB =  0.00D+00  THRDIV  =  1.00D-05  THRRED  =  1.00D-07  THRPSP  =  1.00D+00  THRDC   =  1.00D-10  THRCS   =  1.00D-10
 THRNRM  =  1.00D-08  THREQ   =  0.00D+00  THRDE   =  1.00D+00  THRREF  =  1.00D-05  SPARFAC =  1.00D+00  THRDLP  =  1.00D-07
 THRDIA  =  1.00D-10  THRDLS  =  1.00D-07  THRGPS  =  0.00D+00  THRKEX  =  0.00D+00  THRDIS  =  2.00D-01  THRVAR  =  1.00D-10
 THRLOC  =  1.00D-06  THRGAP  =  1.00D-06  THRLOCT = -1.00D+00  THRGAPT = -1.00D+00  THRORB  =  1.00D-06  THRMLTP =  0.00D+00
 THRCPQCI=  1.00D-10  KEXTA   =  0.00D+00  THRCOARS=  0.00D+00  SYMTOL  =  1.00D-06  GRADTOL =  1.00D-06  THROVL  =  1.00D-08
 THRORTH =  1.00D-08  GRID    =  1.00D-06  GRIDMAX =  1.00D-03  DTMAX   =  0.00D+00

 SETTING GEOMTYP        =    XYZ
 ZUNIT=BOHR
 

 Variable memory set to 1000000000 words,  buffer space   230000 words

 SETTING BASIS          =    AUG-CC-PVDZ,H=CC-PVDZ


 Recomputing integrals since basis changed


 Using spherical harmonics

 Library entry C      S aug-cc-pVDZ          selected for orbital group  1
 Library entry C      P aug-cc-pVDZ          selected for orbital group  1
 Library entry C      D aug-cc-pVDZ          selected for orbital group  1
 Library entry H      S cc-pVDZ              selected for orbital group  2
 Library entry H      P cc-pVDZ              selected for orbital group  2
 Library entry N      S aug-cc-pVDZ          selected for orbital group  3
 Library entry N      P aug-cc-pVDZ          selected for orbital group  3
 Library entry N      D aug-cc-pVDZ          selected for orbital group  3

1PROGRAM * SEWARD (Integral evaluation for generally contracted gaussian basis sets)     Author: Roland Lindh, 1990

 Geometry written to block  1 of record 700


 Point group  C1  



 ATOMIC COORDINATES

 NR  ATOM    CHARGE       X              Y              Z

   1  C       6.00   -1.882290891    1.369985382    2.287043512
   2  C       6.00   -1.856332319    2.690717728   -0.002829564
   3  C       6.00   -1.876016589    1.368167442   -2.291700591
   4  C       6.00   -1.921622008   -1.274904941   -2.290614964
   5  C       6.00   -1.947566853   -2.595454588   -0.000872405
   6  C       6.00   -1.927875681   -1.273106473    2.287906751
   7  H       1.00   -1.873022291    2.396644092    4.063783243
   8  H       1.00   -1.821322972    4.734319251   -0.003604400
   9  H       1.00   -1.843944075    2.393086442   -4.069173718
  10  H       1.00   -1.918611028   -2.297649473   -4.060176679
  11  H       1.00   -1.970382437   -4.647344123   -0.000081275
  12  H       1.00   -1.947455639   -2.294210994    4.058314664
  13  N       7.00    6.624054428   -0.202165628    0.001983850
  14  C       6.00    4.434406431   -0.078127912    0.006437151
  15  H       1.00    2.414783171    0.036567345    0.010684938

 Bond lengths in Bohr (Angstrom)

 1-2  2.643582131  1-6  2.643485062  1-7  2.052052165  2-3  2.643569047  2-8  2.043901524
     ( 1.398923414)     ( 1.398872047)     ( 1.085899237)     ( 1.398916490)     ( 1.081586104)

  3- 4  2.643466031   3- 9  2.052047348   4- 5  2.643377668   4-10  2.043860099   5- 6  2.643388414
       ( 1.398861976)       ( 1.085896688)       ( 1.398815216)       ( 1.081564183)       ( 1.398820903)

  5-11  2.052016530   6-12  2.043864475  13-14  2.193162908  14-15  2.022881894
       ( 1.085880380)       ( 1.081566499)       ( 1.160571826)       ( 1.070462995)

 Bond angles

  1- 2- 3  119.99746549   1- 2- 8  120.00150521   1- 6- 5  120.00123552   1- 6-12  119.99793390

  2-1-6  119.99850414   2-1-7  119.99929619   2-3-4  119.99920947   2-3-9  119.99883013

  3- 2- 8  120.00102868   3- 4- 5  120.00130470   3- 4-10  119.99622923   4- 3- 9  120.00083820

  4- 5- 6  120.00228067   4- 5-11  119.99875713   5- 4-10  119.99983940   5- 6-12  120.00082905

  6- 1- 7  120.00191981   6- 5-11  119.99771238  13-14-15  179.99091354

 NUCLEAR CHARGE:                   56
 NUMBER OF PRIMITIVE AOS:         345
 NUMBER OF SYMMETRY AOS:          329
 NUMBER OF CONTRACTIONS:          219   ( 219A   )
 NUMBER OF CORE ORBITALS:           8   (   8A   )
 NUMBER OF VALENCE ORBITALS:       39   (  39A   )


 NUCLEAR REPULSION ENERGY  303.39351648


 Eigenvalues of metric

         1 0.864E-05 0.186E-04 0.229E-04 0.534E-04 0.630E-04 0.630E-04 0.929E-04 0.929E-04


 Contracted 2-electron integrals neglected if value below      1.0D-16
 AO integral compression algorithm  1   Integral accuracy      1.0D-16

     2338.062 MB (compressed) written to integral file ( 91.1%)

     Node minimum: 2338.062 MB, node maximum: 2338.062 MB


 NUMBER OF SORTED TWO-ELECTRON INTEGRALS:  290176095.     BUFFER LENGTH:  32768
 NUMBER OF SEGMENTS:  19  SEGMENT LENGTH:   15999762      RECORD LENGTH: 524288

 Memory used in sort:      16.56 MW

 SORT1 READ   320642736. AND WROTE   287591273. INTEGRALS IN    832 RECORDS. CPU TIME:     3.28 SEC, REAL TIME:     5.89 SEC
 SORT2 READ   287591273. AND WROTE   290176095. INTEGRALS IN   8919 RECORDS. CPU TIME:     1.92 SEC, REAL TIME:     3.08 SEC

 FILE SIZES:   FILE 1:  2149.4 MBYTE,  FILE 4:  3489.7 MBYTE,   TOTAL:   5639.1 MBYTE

 OPERATOR DM      FOR CENTER  0  COORDINATES:    0.000000    0.000000    0.000000


 **********************************************************************************************************************************
 DATASETS  * FILE   NREC   LENGTH (MB)   RECORD NAMES
              1      19     2149.97       500      610      700      900      950      970     1000      129      960     1100   
                                          VAR    BASINP    GEOM    SYMINP    ZMAT    AOBASIS   BASIS     P2S    ABASIS      S 
                                         1400     1410     1200     1210     1080     1600     1650     1300     1700   
                                           T        V       H0       H01     AOSYM     SMH    MOLCAS    ERIS     OPER   

 PROGRAMS   *        TOTAL       INT
 CPU TIMES  *        18.42     18.37
 REAL TIME  *        23.50 SEC
 DISK USED  *         7.98 GB      
 GA USED    *         0.01 MB       (max)       0.00 MB       (current)
 **********************************************************************************************************************************

1PROGRAM * RHF-SCF (CLOSED SHELL)       Authors: W. Meyer, H.-J. Werner


 NUMBER OF ELECTRONS:      28+   28-    SPACE SYMMETRY=1    SPIN SYMMETRY: Singlet 
 CONVERGENCE THRESHOLDS:    1.00E-10 (Density)    1.00E-13 (Energy)
 MAX. NUMBER OF ITERATIONS:      200
 INTERPOLATION TYPE:            DIIS
 INTERPOLATION STEPS:              2 (START)      1 (STEP)
 LEVEL SHIFTS:                  0.00 (CLOSED)  0.00 (OPEN) 



 Orbital guess generated from atomic densities. Full valence occupancy:   47

 Molecular orbital dump at record        2100.2

 ITERATION    DDIFF          GRAD             ENERGY        2-EL.EN.            DIPOLE MOMENTS         DIIS
    1      0.000D+00      0.000D+00      -323.54135970    822.123842   -1.89875    0.10340    0.00352    0
    2      0.000D+00      0.292D-02      -323.59780024    819.103457   -1.36875    0.05044    0.00034    1
    3      0.781D-02      0.179D-02      -323.61439615    820.248605   -1.72957    0.07979    0.00200    2
    4      0.260D-02      0.576D-03      -323.61673257    820.450281   -1.63883    0.07250    0.00157    3
    5      0.963D-03      0.133D-03      -323.61686192    820.190302   -1.66278    0.07324    0.00159    4
    6      0.223D-03      0.229D-04      -323.61686805    820.217166   -1.66413    0.07320    0.00158    5
    7      0.845D-04      0.435D-05      -323.61686825    820.212282   -1.66448    0.07313    0.00157    6
    8      0.108D-04      0.124D-05      -323.61686827    820.213275   -1.66479    0.07318    0.00157    7
    9      0.348D-05      0.277D-06      -323.61686827    820.213307   -1.66476    0.07314    0.00157    6
   10      0.862D-06      0.792D-07      -323.61686827    820.213286   -1.66476    0.07317    0.00157    6
   11      0.227D-06      0.457D-07      -323.61686827    820.213302   -1.66476    0.07316    0.00157    7
   12      0.129D-06      0.186D-07      -323.61686827    820.213296   -1.66476    0.07316    0.00157    7
   13      0.774D-07      0.879D-08      -323.61686827    820.213300   -1.66476    0.07316    0.00157    8
   14      0.532D-07      0.348D-08      -323.61686827    820.213296   -1.66476    0.07316    0.00157    8
   15      0.208D-07      0.114D-08      -323.61686827    820.213298   -1.66476    0.07316    0.00157    9
   16      0.391D-08      0.168D-09      -323.61686827    820.213298   -1.66476    0.07316    0.00157    9
   17      0.806D-09      0.551D-10      -323.61686827    820.213298   -1.66476    0.07316    0.00157    8
   18      0.409D-09      0.100D-10      -323.61686827    820.213298   -1.66476    0.07316    0.00157    8
   19      0.236D-09      0.343D-11      -323.61686827    820.213298   -1.66476    0.07316    0.00157    7
   20      0.136D-09      0.153D-11      -323.61686827    820.213298   -1.66476    0.07316    0.00157    7
   21      0.743D-10      0.937D-12      -323.61686827    820.213298   -1.66476    0.07316    0.00157    7
   22      0.791D-10      0.733D-12      -323.61686827    820.213298   -1.66476    0.07316    0.00157    8
   23      0.766D-10      0.616D-12      -323.61686827    820.213298   -1.66476    0.07316    0.00157    9
   24      0.556D-10      0.619D-12      -323.61686827    820.213298   -1.66476    0.07316    0.00157    9
   25      0.425D-10      0.511D-12      -323.61686827    820.213298   -1.66476    0.07316    0.00157    0

 Final occupancy:  28

 !RHF STATE 1.1 Energy               -323.616868270801
 Nuclear energy                       303.39351648
 One-electron energy                -1037.11703359
 Two-electron energy                  410.10664883
 Virial quotient                       -1.00170981
 !RHF STATE 1.1 Dipole moment          -1.66475624     0.07315709     0.00157383
 Dipole moment /Debye                  -4.23111117     0.18593461     0.00400002

 Orbital energies:

         1.1          2.1          3.1          4.1          5.1          6.1          7.1          8.1          9.1         10.1
    -15.591649   -11.283865   -11.266274   -11.265759   -11.265713   -11.264501   -11.264453   -11.263903    -1.218336    -1.173918

        11.1         12.1         13.1         14.1         15.1         16.1         17.1         18.1         19.1         20.1
     -1.037789    -1.037788    -0.845720    -0.845719    -0.789910    -0.729370    -0.664867    -0.639192    -0.608565    -0.608562

        21.1         22.1         23.1         24.1         25.1         26.1         27.1         28.1         29.1         30.1
     -0.565229    -0.520372    -0.514853    -0.514852    -0.475691    -0.475687    -0.359669    -0.359664     0.055866     0.060083


 **********************************************************************************************************************************
 DATASETS  * FILE   NREC   LENGTH (MB)   RECORD NAMES
              1      19     2149.97       500      610      700      900      950      970     1000      129      960     1100   
                                          VAR    BASINP    GEOM    SYMINP    ZMAT    AOBASIS   BASIS     P2S    ABASIS      S 
                                         1400     1410     1200     1210     1080     1600     1650     1300     1700   
                                           T        V       H0       H01     AOSYM     SMH    MOLCAS    ERIS     OPER   

              2       3        1.49       700     1000     2100   
                                         GEOM     BASIS     RHF  

 PROGRAMS   *        TOTAL       RHF       INT
 CPU TIMES  *        76.00     57.58     18.37
 REAL TIME  *        86.83 SEC
 DISK USED  *         7.98 GB      
 GA USED    *         0.01 MB       (max)       0.00 MB       (current)
 **********************************************************************************************************************************


1PROGRAM * CCSD (Closed-shell coupled cluster)     Authors: C. Hampel, H.-J. Werner, 1991, M. Deegan, P.J. Knowles, 1992


 Convergence thresholds:  THRVAR = 1.00D-08  THRDEN = 1.00D-12

 CCSD(T)     terms to be evaluated (factor= 1.000)


 Number of core orbitals:           8 (   8 )
 Number of closed-shell orbitals:  20 (  20 )
 Number of external orbitals:     191 ( 191 )

 Molecular orbitals read from record     2100.2  Type=RHF/CANONICAL (state 1.1)

 Number of N-1 electron functions:              20
 Number of N-2 electron functions:             210
 Number of singly external CSFs:              3820
 Number of doubly external CSFs:           7298110
 Total number of CSFs:                     7301931

 Length of J-op  integral file:               0.00 MB
 Length of K-op  integral file:               3.32 MB
 Length of 3-ext integral record:             0.00 MB

 Memory could be reduced to 174.82 Mwords without degradation in triples

 Integral transformation finished. Total CPU:  19.18 sec, npass=  1  Memory used: 128.13 MW

 Reference energy:                   -323.61686827

 MP2 singlet pair energy:              -0.67334350
 MP2 triplet pair energy:              -0.43519824
 MP2 correlation energy:               -1.10854174
 MP2 total energy:                   -324.72541002

 SCS-MP2 correlation energy:           -1.07880222   (PS=  1.200000  PT=  0.333333)
 SCS-MP2 total energy:               -324.69567049

 ITER.      SQ.NORM     CORR.ENERGY   TOTAL ENERGY   ENERGY CHANGE        DEN1      VAR(S)    VAR(P)  DIIS     TIME
   1      1.42873383    -1.14462383  -324.76149210    -0.03608209    -0.00288964  0.51D-02  0.99D-02  1  1    71.35
   2      1.46305644    -1.15049733  -324.76736560    -0.00587350    -0.03103155  0.83D-04  0.13D-02  2  2   123.89
   3      1.47634835    -1.15094504  -324.76781331    -0.00044771    -0.00655956  0.40D-04  0.12D-03  3  3   176.38
   4      1.48204064    -1.15119474  -324.76806301    -0.00024970    -0.00178587  0.22D-05  0.15D-04  4  4   228.93
   5      1.48357000    -1.15123043  -324.76809871    -0.00003570    -0.00036587  0.25D-06  0.14D-05  5  5   281.53
   6      1.48387619    -1.15122192  -324.76809019     0.00000852    -0.00005025  0.24D-07  0.91D-07  6  6   334.20
   7      1.48391097    -1.15122533  -324.76809360    -0.00000341    -0.00000225  0.34D-08  0.80D-08  6  2   386.86
   8      1.48391565    -1.15122568  -324.76809396    -0.00000036    -0.00000042  0.41D-09  0.83D-09  6  1   439.52
   9      1.48391587    -1.15122585  -324.76809412    -0.00000017     0.00000079  0.63D-10  0.78D-10  6  3   492.19
  10      1.48391624    -1.15122591  -324.76809418    -0.00000006     0.00000002  0.10D-10  0.99D-11  6  4   544.74
  11      1.48391597    -1.15122595  -324.76809422    -0.00000004     0.00000022  0.16D-11  0.14D-11  6  5   597.28
  12      1.48391580    -1.15122596  -324.76809423    -0.00000001     0.00000008  0.25D-12  0.27D-12  6  6   649.94
  13      1.48391567    -1.15122596  -324.76809423    -0.00000000     0.00000005  0.14D-13  0.52D-13  6  2   702.60
  14      1.48391561    -1.15122596  -324.76809423    -0.00000000     0.00000002  0.22D-14  0.94D-14  6  1   755.24
  15      1.48391558    -1.15122596  -324.76809423     0.00000000     0.00000001  0.46D-15  0.13D-14  6  3   807.87
  16      1.48391557    -1.15122596  -324.76809423    -0.00000000     0.00000000  0.98D-16  0.19D-15  6  4   860.55
  17      1.48391557    -1.15122596  -324.76809423    -0.00000000     0.00000000  0.19D-16  0.28D-16  6  5   913.21
  18      1.48391557    -1.15122596  -324.76809423    -0.00000000     0.00000000  0.37D-17  0.36D-17  6  6   965.87
  19      1.48391556    -1.15122596  -324.76809423    -0.00000000     0.00000000  0.83D-18  0.60D-18  6  2  1018.54
  20      1.48391556    -1.15122596  -324.76809423    -0.00000000     0.00000000  0.18D-18  0.13D-18  6  1  1071.20
  21      1.48391556    -1.15122596  -324.76809423    -0.00000000     0.00000000  0.63D-19  0.37D-19  6  3  1123.84
  22      1.48391556    -1.15122596  -324.76809423     0.00000000     0.00000000  0.30D-19  0.17D-19  6  4  1176.50

 Norm of t1 vector:      0.09773691      S-energy:     0.00000000      T1 diagnostic:  0.01092732
                                                                       D1 diagnostic:  0.02771753

 Doubles amplitudes (print threshold =  0.500E-01):

         I         J         SYM. A    SYM. B    A         B      T(IJ, AB)

        19        19         1         1         7         7     -0.05919145
        20        20         1         1         8         8     -0.05919138


 Total CPU time for triples:   1086.33 sec


 RESULTS
 =======

  Reference energy                   -323.616868270803
  CCSD singlet pair energy             -0.770020644014
  CCSD triplet pair energy             -0.381205319890
  CCSD correlation energy              -1.151225963904

  Triples (T) contribution             -0.054015722414
  Total correlation energy             -1.205241686318

  CCSD total energy                  -324.768094234708
  CCSD[T] energy                     -324.823442276454
  CCSD-T energy                      -324.821504477909
 !CCSD(T) total energy               -324.822109957122

 Timing summary (sec):

 STEP                 CPU(USER)    SYS     CPU(TOT)    WALL
 Transformation         19.73      1.10     20.83     20.83
 CCSD iterations      1156.79     14.71   1171.50   1171.72
 Triples              1086.33     16.07   1102.40   1102.55

 Program statistics:

 Available memory in ccsd:               999998300
 Min. memory needed in ccsd:              17709720
 Max. memory used in ccsd:                24415330
 Max. memory used in cckext:              20754978 (22 integral passes)



 **********************************************************************************************************************************
 DATASETS  * FILE   NREC   LENGTH (MB)   RECORD NAMES
              1      20     2832.14       500      610      700      900      950      970     1000      129      960     1100   
                                          VAR    BASINP    GEOM    SYMINP    ZMAT    AOBASIS   BASIS     P2S    ABASIS      S 
                                         1400     1410     1200     1210     1080     1600     1650     1300     1700     1380   
                                           T        V       H0       H01     AOSYM     SMH    MOLCAS    ERIS     OPER     JKOP   

              2       3        1.49       700     1000     2100   
                                         GEOM     BASIS     RHF  

 PROGRAMS   *        TOTAL   CCSD(T)       RHF       INT
 CPU TIMES  *      2338.87   2262.86     57.58     18.37
 REAL TIME  *      2382.07 SEC
 DISK USED  *         7.98 GB      
 GA USED    *         0.01 MB       (max)       0.00 MB       (current)
 **********************************************************************************************************************************

        CCSD(T)         RHF-SCF 
   -324.82210996   -323.61686827
 **********************************************************************************************************************************
 Variable memory released
