
 Primary working directories    : /tmp/1011203.577.gen6.q
 Secondary working directories  : /tmp/1011203.577.gen6.q
 Wavefunction directory         : /home/vulcan/mel64643/wfu/
 Main file repository           : /tmp/1011203.577.gen6.q/

 ARCHNAME  : Linux/x86_64
 FC        : /opt/intel/compilers_and_libraries_2016.1.150/linux/bin/intel64/ifort
 FCVERSION : 16.0.1
 BLASLIB   : -mkl
 id        : ccgc

 Nodes     nprocs
 n076         1
 ga_uses_ma=false, calling ma_init with nominal heap.
 GA-space will be limited to   8.0 MW (determined by -G option)

 Using customized tuning parameters: mindgm=10; mindgv=16; mindgc=4; mindgr=1; noblas=0; mincuda=1000; minvec=7
 default implementation of scratch files=df  

 ***,Optimization of c2h4_2
 memory,1000,m
 gthresh,energy=1.0d-12,orbital=1.0d-10,oneint=1.0d-16,twoint=1.0d-16,optgrad=1.0d-6,compress=1.0d-13
 geomtyp=xyz
 
 
 
 bohr
 geometry = {
  C   -1.2646538869   -0.0031616553   -3.4914891230
  C    1.2646538869    0.0031616553   -3.4914891230
  H   -2.3401003203   -0.0058502564   -1.7473259975
  H    2.3401003203    0.0058502564   -1.7473259975
  H   -2.3344714489   -0.0058361841   -5.2383284130
  H    2.3344714489    0.0058361841   -5.2383284130
  C    0.0031616548    1.2646537959    3.4914694200
  C   -0.0031616548   -1.2646537959    3.4914694200
  H    0.0058502599    2.3401019443    1.7473077470
  H   -0.0058502599   -2.3401019443    1.7473077470
  H    0.0058361802    2.3344701153    5.2383094045
  H   -0.0058361802   -2.3344701153    5.2383094045
 }
 
 basis=aug-cc-pvdz, H=cc-pvdz
 {rhf;maxit,200}
 {mp2}

 Variables initialized (661), CPU time= 0.00 sec
 Commands  initialized (458), CPU time= 0.01 sec, 486 directives.
 Default parameters read. Elapsed time= 0.04 sec

 Checking input...
 Passed
1


                                         ***  PROGRAM SYSTEM MOLPRO  ***
                         Copyright, University College Cardiff Consultants Limited, 2008

                                    Version 2010.1 linked May 16 2016 07:17:05


 **********************************************************************************************************************************
 LABEL *   Optimization of c2h4_2                                                        
 Linux-4.4.3/n076(x86_64) 64 bit mpp version                                             DATE: 25-Feb-24          TIME: 14:42:52  
 **********************************************************************************************************************************

 SHA1:             9e8077add272b0f3cad6f7df79ec5211205f459d
 **********************************************************************************************************************************

 THRESHOLDS:

 ZERO    =  1.00D-12  ONEINT  =  1.00D-16  TWOINT  =  1.00D-16  PREFAC  =  1.00D-14  LOCALI  =  1.00D-09  EORDER  =  1.00D-04
 ENERGY  =  1.00D-12  ETEST   =  0.00D+00  EDENS   =  0.00D+00  THRDEDEF=  1.00D-06  GRADIENT=  1.00D-02  STEP    =  1.00D-03
 ORBITAL =  1.00D-10  CIVEC   =  1.00D-05  COEFF   =  1.00D-04  PRINTCI =  5.00D-02  PUNCHCI =  9.90D+01  OPTGRAD =  1.00D-06
 OPTENERG=  1.00D-06  OPTSTEP =  3.00D-04  THRGRAD =  1.00D-10  COMPRESS=  1.00D-13  VARMIN  =  1.00D-07  VARMAX  =  1.00D-03
 THRDOUB =  0.00D+00  THRDIV  =  1.00D-05  THRRED  =  1.00D-07  THRPSP  =  1.00D+00  THRDC   =  1.00D-10  THRCS   =  1.00D-10
 THRNRM  =  1.00D-08  THREQ   =  0.00D+00  THRDE   =  1.00D+00  THRREF  =  1.00D-05  SPARFAC =  1.00D+00  THRDLP  =  1.00D-07
 THRDIA  =  1.00D-10  THRDLS  =  1.00D-07  THRGPS  =  0.00D+00  THRKEX  =  0.00D+00  THRDIS  =  2.00D-01  THRVAR  =  1.00D-10
 THRLOC  =  1.00D-06  THRGAP  =  1.00D-06  THRLOCT = -1.00D+00  THRGAPT = -1.00D+00  THRORB  =  1.00D-06  THRMLTP =  0.00D+00
 THRCPQCI=  1.00D-10  KEXTA   =  0.00D+00  THRCOARS=  0.00D+00  SYMTOL  =  1.00D-06  GRADTOL =  1.00D-06  THROVL  =  1.00D-08
 THRORTH =  1.00D-08  GRID    =  1.00D-06  GRIDMAX =  1.00D-03  DTMAX   =  0.00D+00

 SETTING GEOMTYP        =    XYZ
 ZUNIT=BOHR
 

 Variable memory set to 1000000000 words,  buffer space   230000 words

 SETTING BASIS          =    AUG-CC-PVDZ,H=CC-PVDZ


 Recomputing integrals since basis changed


 Using spherical harmonics

 Library entry C      S aug-cc-pVDZ          selected for orbital group  1
 Library entry C      P aug-cc-pVDZ          selected for orbital group  1
 Library entry C      D aug-cc-pVDZ          selected for orbital group  1
 Library entry H      S cc-pVDZ              selected for orbital group  2
 Library entry H      P cc-pVDZ              selected for orbital group  2

1PROGRAM * SEWARD (Integral evaluation for generally contracted gaussian basis sets)     Author: Roland Lindh, 1990

 Geometry written to block  1 of record 700


 Point group  C2  



 ATOMIC COORDINATES

 NR  ATOM    CHARGE       X              Y              Z

   1  C       6.00   -1.264653887   -0.003161655   -3.491489123
   2  C       6.00    1.264653887    0.003161655   -3.491489123
   3  H       1.00   -2.340100320   -0.005850256   -1.747325997
   4  H       1.00    2.340100320    0.005850256   -1.747325997
   5  H       1.00   -2.334471449   -0.005836184   -5.238328413
   6  H       1.00    2.334471449    0.005836184   -5.238328413
   7  C       6.00    0.003161655    1.264653796    3.491469420
   8  C       6.00   -0.003161655   -1.264653796    3.491469420
   9  H       1.00    0.005850260    2.340101944    1.747307747
  10  H       1.00   -0.005850260   -2.340101944    1.747307747
  11  H       1.00    0.005836180    2.334470115    5.238309404
  12  H       1.00   -0.005836180   -2.334470115    5.238309404

 Bond lengths in Bohr (Angstrom)

 1-2  2.529315678  1-3  2.049072294  1-5  2.048405300  2-4  2.049072294  2-6  2.048405300
     ( 1.338456211)     ( 1.084322358)     ( 1.083969400)     ( 1.084322358)     ( 1.083969400)

  7- 8  2.529315496   7- 9  2.049071958   7-11  2.048405244   8-10  2.049071958   8-12  2.048405244
       ( 1.338456115)       ( 1.084322180)       ( 1.083969370)       ( 1.084322180)       ( 1.083969370)

 Bond angles

  1-2-4  121.65795536   1-2-6  121.48465097   2-1-3  121.65795536   2-1-5  121.48465097

  3- 1- 5  116.85739367   4- 2- 6  116.85739367   7- 8-10  121.65801749   7- 8-12  121.48461119

  8- 7- 9  121.65801749   8- 7-11  121.48461119   9- 7-11  116.85737132  10- 8-12  116.85737132

 NUCLEAR CHARGE:                   32
 NUMBER OF PRIMITIVE AOS:         204
 NUMBER OF SYMMETRY AOS:          196
 NUMBER OF CONTRACTIONS:          132   (  66A   +  66B   )
 NUMBER OF CORE ORBITALS:           4   (   2A   +   2B   )
 NUMBER OF VALENCE ORBITALS:       24   (  12A   +  12B   )


 NUCLEAR REPULSION ENERGY  102.21190529


 Eigenvalues of metric

         1 0.589E-02 0.671E-02 0.742E-02 0.878E-02 0.117E-01 0.119E-01 0.194E-01 0.199E-01
         2 0.173E-03 0.173E-03 0.331E-03 0.333E-03 0.549E-02 0.551E-02 0.791E-02 0.792E-02


 Contracted 2-electron integrals neglected if value below      1.0D-16
 AO integral compression algorithm  1   Integral accuracy      1.0D-16

     172.491 MB (compressed) written to integral file ( 84.0%)

     Node minimum: 172.491 MB, node maximum: 172.491 MB


 NUMBER OF SORTED TWO-ELECTRON INTEGRALS:   19556295.     BUFFER LENGTH:  32768
 NUMBER OF SEGMENTS:   2  SEGMENT LENGTH:   15994374      RECORD LENGTH: 524288

 Memory used in sort:      16.55 MW

 SORT1 READ    25667632. AND WROTE    19010988. INTEGRALS IN     55 RECORDS. CPU TIME:     0.24 SEC, REAL TIME:     0.36 SEC
 SORT2 READ    19010988. AND WROTE    19556295. INTEGRALS IN    658 RECORDS. CPU TIME:     0.23 SEC, REAL TIME:     0.30 SEC

 FILE SIZES:   FILE 1:   139.5 MBYTE,  FILE 4:   230.7 MBYTE,   TOTAL:    370.2 MBYTE

 OPERATOR DM      FOR CENTER  0  COORDINATES:    0.000000    0.000000    0.000000


 **********************************************************************************************************************************
 DATASETS  * FILE   NREC   LENGTH (MB)   RECORD NAMES
              1      19      139.59       500      610      700      900      950      970     1000      129      960     1100   
                                          VAR    BASINP    GEOM    SYMINP    ZMAT    AOBASIS   BASIS     P2S    ABASIS      S 
                                         1400     1410     1200     1210     1080     1600     1650     1300     1700   
                                           T        V       H0       H01     AOSYM     SMH    MOLCAS    ERIS     OPER   

 PROGRAMS   *        TOTAL       INT
 CPU TIMES  *         1.73      1.69
 REAL TIME  *         2.18 SEC
 DISK USED  *       543.56 MB      
 GA USED    *         0.00 MB       (max)       0.00 MB       (current)
 **********************************************************************************************************************************

1PROGRAM * RHF-SCF (CLOSED SHELL)       Authors: W. Meyer, H.-J. Werner


 NUMBER OF ELECTRONS:      16+   16-
 CONVERGENCE THRESHOLDS:    1.00E-10 (Density)    1.00E-13 (Energy)
 MAX. NUMBER OF ITERATIONS:      200
 INTERPOLATION TYPE:            DIIS
 INTERPOLATION STEPS:              2 (START)      1 (STEP)
 LEVEL SHIFTS:                  0.00 (CLOSED)  0.00 (OPEN) 



 Orbital guess generated from atomic densities. Full valence occupancy:   14  14

 Molecular orbital dump at record        2100.2

 Initial alpha occupancy:   8   8
 Initial beta  occupancy:   8   8
 Wave function symmetry:    1

 ITERATION    DDIFF          GRAD             ENERGY        2-EL.EN.            DIPOLE MOMENTS         DIIS
    1      0.000D+00      0.000D+00      -156.03861739    307.047019    0.00000    0.00000    0.00000    0
    2      0.000D+00      0.489D-02      -156.07905832    304.314845    0.00000    0.00000    0.00000    1
    3      0.104D-01      0.164D-02      -156.08312071    305.439250    0.00000    0.00000    0.00000    2
    4      0.321D-02      0.500D-03      -156.08369161    305.152236    0.00000    0.00000    0.00000    3
    5      0.118D-02      0.622D-04      -156.08370241    305.166832    0.00000    0.00000    0.00000    4
    6      0.162D-03      0.100D-04      -156.08370282    305.165273    0.00000    0.00000    0.00000    5
    7      0.279D-04      0.240D-05      -156.08370284    305.165255    0.00000    0.00000    0.00000    6
    8      0.765D-05      0.361D-06      -156.08370285    305.165264    0.00000    0.00000    0.00000    6
    9      0.118D-05      0.659D-07      -156.08370285    305.165267    0.00000    0.00000    0.00000    5
   10      0.199D-06      0.133D-07      -156.08370285    305.165270    0.00000    0.00000    0.00000    6
   11      0.353D-07      0.246D-08      -156.08370285    305.165269    0.00000    0.00000    0.00000    6
   12      0.892D-08      0.647D-09      -156.08370285    305.165269    0.00000    0.00000    0.00000    6
   13      0.172D-08      0.194D-09      -156.08370285    305.165269    0.00000    0.00000    0.00000    6
   14      0.433D-09      0.336D-10      -156.08370285    305.165269    0.00000    0.00000    0.00000    6
   15      0.989D-10      0.100D-10      -156.08370285    305.165269    0.00000    0.00000    0.00000    6
   16      0.314D-10      0.193D-11      -156.08370285    305.165269    0.00000    0.00000    0.00000    6
   17      0.596D-11      0.461D-12      -156.08370285    305.165269    0.00000    0.00000    0.00000    6
   18      0.150D-11      0.129D-12      -156.08370285    305.165269    0.00000    0.00000    0.00000    6
   19      0.509D-12      0.475D-13      -156.08370285    305.165269    0.00000    0.00000    0.00000    6
   20      0.461D-12      0.258D-13      -156.08370285    305.165269    0.00000    0.00000    0.00000    7
   21      0.449D-12      0.193D-13      -156.08370285    305.165269    0.00000    0.00000    0.00000    8
   22      0.261D-12      0.199D-13      -156.08370285    305.165269    0.00000    0.00000    0.00000    0

 Final occupancy:   8   8

 !RHF STATE 1.1 Energy               -156.083702845379
 Nuclear energy                       102.21190529
 One-electron energy                 -410.87824269
 Two-electron energy                  152.58263455
 Virial quotient                       -1.00199983
 !RHF STATE 1.1 Dipole moment           0.00000000     0.00000000     0.00000008
 Dipole moment /Debye                   0.00000000     0.00000000     0.00000020

 Orbital energies:

         1.1          2.1          3.1          4.1          5.1          6.1          7.1          8.1          9.1         10.1
    -11.241833   -11.241830    -1.038521    -1.032712    -0.656301    -0.630835    -0.588808    -0.585531     0.075049     0.081634

         1.2          2.2          3.2          4.2          5.2          6.2          7.2          8.2          9.2         10.2
    -11.240214   -11.240214    -0.795097    -0.795040    -0.508530    -0.508370    -0.376343    -0.376307     0.068930     0.069056


 **********************************************************************************************************************************
 DATASETS  * FILE   NREC   LENGTH (MB)   RECORD NAMES
              1      19      139.59       500      610      700      900      950      970     1000      129      960     1100   
                                          VAR    BASINP    GEOM    SYMINP    ZMAT    AOBASIS   BASIS     P2S    ABASIS      S 
                                         1400     1410     1200     1210     1080     1600     1650     1300     1700   
                                           T        V       H0       H01     AOSYM     SMH    MOLCAS    ERIS     OPER   

              2       3        0.64       700     1000     2100   
                                         GEOM     BASIS     RHF  

 PROGRAMS   *        TOTAL       RHF       INT
 CPU TIMES  *         3.86      2.13      1.69
 REAL TIME  *         4.59 SEC
 DISK USED  *       543.56 MB      
 GA USED    *         0.00 MB       (max)       0.00 MB       (current)
 **********************************************************************************************************************************


1PROGRAM * MP2 (Closed-shell)     Authors: C. Hampel, H.-J. Werner, 1991, M. Deegan, P.J. Knowles, 1992


 Convergence thresholds:  THRVAR = 1.00D-08  THRDEN = 1.00D-12

 Number of core orbitals:           4 (   2   2 )
 Number of closed-shell orbitals:  12 (   6   6 )
 Number of external orbitals:     116 (  58  58 )

 Molecular orbitals read from record     2100.2  Type=RHF/CANONICAL (state 1.1)

 Number of N-1 electron functions:              12
 Number of N-2 electron functions:              78
 Number of singly external CSFs:               696
 Number of doubly external CSFs:            485112
 Total number of CSFs:                      485809

 Length of J-op  integral file:               0.00 MB
 Length of K-op  integral file:               0.64 MB

 Integral transformation finished. Total CPU:   0.23 sec, npass=  1  Memory used:   0.92 MW

 Memory needed for MP2:                      0.04 MW

 SCS-MP2 correlation energy:           -0.573940118929   (PS=  1.200000  PT=  0.333333)
 SCS-MP2 total energy:               -156.657642964308


  Reference energy                   -156.083702845379
  MP2 singlet pair energy              -0.379795881709
  MP2 triplet pair energy              -0.189940276411
  MP2 correlation energy               -0.569736158120

 !MP2 total energy                   -156.653439003499


 **********************************************************************************************************************************
 DATASETS  * FILE   NREC   LENGTH (MB)   RECORD NAMES
              1      20      148.02       500      610      700      900      950      970     1000      129      960     1100   
                                          VAR    BASINP    GEOM    SYMINP    ZMAT    AOBASIS   BASIS     P2S    ABASIS      S 
                                         1400     1410     1200     1210     1080     1600     1650     1300     1700     1380   
                                           T        V       H0       H01     AOSYM     SMH    MOLCAS    ERIS     OPER     JKOP   

              2       3        0.64       700     1000     2100   
                                         GEOM     BASIS     RHF  

 PROGRAMS   *        TOTAL       MP2       RHF       INT
 CPU TIMES  *         4.11      0.25      2.13      1.69
 REAL TIME  *         4.89 SEC
 DISK USED  *       543.56 MB      
 GA USED    *         0.00 MB       (max)       0.00 MB       (current)
 **********************************************************************************************************************************

        MP2             RHF-SCF 
   -156.65343900   -156.08370285
 **********************************************************************************************************************************
 Variable memory released
