
 Primary working directories    : /tmp/985636.1049.gen6.q
 Secondary working directories  : /tmp/985636.1049.gen6.q
 Wavefunction directory         : /home/vulcan/jj04645/wfu/
 Main file repository           : /tmp/985636.1049.gen6.q/

 ARCHNAME  : Linux/x86_64
 FC        : /opt/intel/compilers_and_libraries_2016.1.150/linux/bin/intel64/ifort
 FCVERSION : 16.0.1
 BLASLIB   : -mkl
 id        : ccgc

 Nodes     nprocs
 n074         1
 ga_uses_ma=false, calling ma_init with nominal heap.
 GA-space will be limited to   8.0 MW (determined by -G option)

 Using customized tuning parameters: mindgm=10; mindgv=16; mindgc=4; mindgr=1; noblas=0; mincuda=1000; minvec=7
 default implementation of scratch files=df  

 ***,Optimization of tetrahydrothiopyran
 memory,1000,m
 gthresh,energy=1.0d-12,orbital=1.0d-10,oneint=1.0d-16,twoint=1.0d-16,optgrad=1.0d-6,compress=1.0d-13
 geomtyp=xyz
 
 bohr
 geometry = {
  S    0.3585261089    2.6978871740    0.0032387872
  C   -0.3285454955   -3.3667235026    0.0019772599
  C   -0.6590896645    0.6707586856   -2.5799216855
  C   -0.6663738719    0.6669983645    2.5805591850
  C    0.4670457824   -1.9836410194   -2.4144002029
  C    0.4740413780   -1.9812754931    2.4146833707
  H   -2.7256143049    0.5787361247   -2.5862446158
  H   -2.7324697428    0.5657432723    2.5753170737
  H   -0.0654261011    1.6253911054   -4.3090475926
  H   -0.0854438122    1.6222827013    4.3136454459
  H    2.5292473985   -1.8449743330   -2.4894986567
  H    2.5358565784   -1.8319095384    2.4791164671
  H   -0.1421092546   -3.0749266493   -4.0637667684
  H   -0.1221485894   -3.0744592074    4.0675267213
  H    0.4673448496   -5.2656525537    0.0017544935
  H   -2.3835762754   -3.5840565476    0.0050607177
 }
 
 basis=VDZ
 {rhf;maxit,200}
 {ccsd(t);maxit,200}

 Variables initialized (661), CPU time= 0.00 sec
 Commands  initialized (458), CPU time= 0.01 sec, 486 directives.
 Default parameters read. Elapsed time= 0.04 sec

 Checking input...
 Passed
1


                                         ***  PROGRAM SYSTEM MOLPRO  ***
                         Copyright, University College Cardiff Consultants Limited, 2008

                                    Version 2010.1 linked May 16 2016 07:17:05


 **********************************************************************************************************************************
 LABEL *   Optimization of tetrahydrothiopyran                                           
 Linux-4.4.3/n074(x86_64) 64 bit mpp version                                             DATE: 26-Jan-24          TIME: 16:03:44  
 **********************************************************************************************************************************

 SHA1:             9e8077add272b0f3cad6f7df79ec5211205f459d
 **********************************************************************************************************************************

 THRESHOLDS:

 ZERO    =  1.00D-12  ONEINT  =  1.00D-16  TWOINT  =  1.00D-16  PREFAC  =  1.00D-14  LOCALI  =  1.00D-09  EORDER  =  1.00D-04
 ENERGY  =  1.00D-12  ETEST   =  0.00D+00  EDENS   =  0.00D+00  THRDEDEF=  1.00D-06  GRADIENT=  1.00D-02  STEP    =  1.00D-03
 ORBITAL =  1.00D-10  CIVEC   =  1.00D-05  COEFF   =  1.00D-04  PRINTCI =  5.00D-02  PUNCHCI =  9.90D+01  OPTGRAD =  1.00D-06
 OPTENERG=  1.00D-06  OPTSTEP =  3.00D-04  THRGRAD =  1.00D-10  COMPRESS=  1.00D-13  VARMIN  =  1.00D-07  VARMAX  =  1.00D-03
 THRDOUB =  0.00D+00  THRDIV  =  1.00D-05  THRRED  =  1.00D-07  THRPSP  =  1.00D+00  THRDC   =  1.00D-10  THRCS   =  1.00D-10
 THRNRM  =  1.00D-08  THREQ   =  0.00D+00  THRDE   =  1.00D+00  THRREF  =  1.00D-05  SPARFAC =  1.00D+00  THRDLP  =  1.00D-07
 THRDIA  =  1.00D-10  THRDLS  =  1.00D-07  THRGPS  =  0.00D+00  THRKEX  =  0.00D+00  THRDIS  =  2.00D-01  THRVAR  =  1.00D-10
 THRLOC  =  1.00D-06  THRGAP  =  1.00D-06  THRLOCT = -1.00D+00  THRGAPT = -1.00D+00  THRORB  =  1.00D-06  THRMLTP =  0.00D+00
 THRCPQCI=  1.00D-10  KEXTA   =  0.00D+00  THRCOARS=  0.00D+00  SYMTOL  =  1.00D-06  GRADTOL =  1.00D-06  THROVL  =  1.00D-08
 THRORTH =  1.00D-08  GRID    =  1.00D-06  GRIDMAX =  1.00D-03  DTMAX   =  0.00D+00

 SETTING GEOMTYP        =    XYZ
 ZUNIT=BOHR
 

 Variable memory set to 1000000000 words,  buffer space   230000 words

 SETTING BASIS          =    VDZ


 Recomputing integrals since basis changed


 Using spherical harmonics

 Library entry S      S cc-pVDZ              selected for orbital group  1
 Library entry S      P cc-pVDZ              selected for orbital group  1
 Library entry S      D cc-pVDZ              selected for orbital group  1
 Library entry C      S cc-pVDZ              selected for orbital group  2
 Library entry C      P cc-pVDZ              selected for orbital group  2
 Library entry C      D cc-pVDZ              selected for orbital group  2
 Library entry H      S cc-pVDZ              selected for orbital group  3
 Library entry H      P cc-pVDZ              selected for orbital group  3

1PROGRAM * SEWARD (Integral evaluation for generally contracted gaussian basis sets)     Author: Roland Lindh, 1990

 Geometry written to block  1 of record 700


 Point group  C1  



 ATOMIC COORDINATES

 NR  ATOM    CHARGE       X              Y              Z

   1  S      16.00    0.358526109    2.697887174    0.003238787
   2  C       6.00   -0.328545496   -3.366723503    0.001977260
   3  C       6.00   -0.659089664    0.670758686   -2.579921686
   4  C       6.00   -0.666373872    0.666998365    2.580559185
   5  C       6.00    0.467045782   -1.983641019   -2.414400203
   6  C       6.00    0.474041378   -1.981275493    2.414683371
   7  H       1.00   -2.725614305    0.578736125   -2.586244616
   8  H       1.00   -2.732469743    0.565743272    2.575317074
   9  H       1.00   -0.065426101    1.625391105   -4.309047593
  10  H       1.00   -0.085443812    1.622282701    4.313645446
  11  H       1.00    2.529247398   -1.844974333   -2.489498657
  12  H       1.00    2.535856578   -1.831909538    2.479116467
  13  H       1.00   -0.142109255   -3.074926649   -4.063766768
  14  H       1.00   -0.122148589   -3.074459207    4.067526721
  15  H       1.00    0.467344850   -5.265652554    0.001754493
  16  H       1.00   -2.383576275   -3.584056548    0.005060718

 Bond lengths in Bohr (Angstrom)

  1- 3  3.437660512   1- 4  3.437660507   2- 5  2.895645469   2- 6  2.895645464   2-15  2.058973781
       ( 1.819131595)       ( 1.819131592)       ( 1.532309587)       ( 1.532309585)       ( 1.089561999)

  2-16  2.066493326   3- 5  2.888151000   3- 7  2.068582176   3- 9  2.062434456   4- 6  2.888150992
       ( 1.093541171)       ( 1.528343685)       ( 1.094646543)       ( 1.091393309)       ( 1.528343681)

  4- 8  2.068582177   4-10  2.062434456   5-11  2.068222361   5-13  2.069392242   6-12  2.068222361
       ( 1.094646543)       ( 1.091393309)       ( 1.094456136)       ( 1.095075211)       ( 1.094456136)

  6-14  2.069392242
       ( 1.095075211)

 Bond angles

  1-3-5  112.54874052   1-3-7  108.92043243   1-3-9  105.77373527   1-4-6  112.39108979

  1- 4- 8  108.95336488   1- 4-10  105.80666774   2- 5- 3  112.31375471   2- 5-11  109.65035850

  2- 5-13  109.41146628   2- 6- 4  112.15610779   2- 6-12  109.68347337   2- 6-14  109.44458115

  3- 1- 4   97.28151383   3- 5-11  108.97040405   3- 5-13  108.91772064   4- 6-12  109.00351892

  4- 6-14  108.95083550   5- 2- 6  112.99332576   5- 2-15  109.52505995   5- 2-16  108.94795361

  5- 3- 7  110.41501628   5- 3- 9  111.17500384   6- 2-15  109.52505995   6- 2-16  108.94795360

  6- 4- 8  110.44794871   6- 4-10  111.20793628   7- 3- 9  107.79354632   8- 4-10  107.82647877

 11- 5-13  107.45299452  12- 6-14  107.48610935  15- 2-16  106.70284415

 NUCLEAR CHARGE:                   56
 NUMBER OF PRIMITIVE AOS:         247
 NUMBER OF SYMMETRY AOS:          241
 NUMBER OF CONTRACTIONS:          138   ( 138A   )
 NUMBER OF CORE ORBITALS:          10   (  10A   )
 NUMBER OF VALENCE ORBITALS:       34   (  34A   )


 NUCLEAR REPULSION ENERGY  312.16709867


 Eigenvalues of metric

         1 0.286E-02 0.305E-02 0.427E-02 0.634E-02 0.704E-02 0.151E-01 0.156E-01 0.196E-01


 Contracted 2-electron integrals neglected if value below      1.0D-16
 AO integral compression algorithm  1   Integral accuracy      1.0D-16

     374.079 MB (compressed) written to integral file ( 94.2%)

     Node minimum: 374.079 MB, node maximum: 374.079 MB


 NUMBER OF SORTED TWO-ELECTRON INTEGRALS:   45998436.     BUFFER LENGTH:  32768
 NUMBER OF SEGMENTS:   3  SEGMENT LENGTH:   15998004      RECORD LENGTH: 524288

 Memory used in sort:      16.56 MW

 SORT1 READ    49669998. AND WROTE    45798620. INTEGRALS IN    132 RECORDS. CPU TIME:     0.44 SEC, REAL TIME:     0.70 SEC
 SORT2 READ    45798620. AND WROTE    45998436. INTEGRALS IN   1427 RECORDS. CPU TIME:     0.36 SEC, REAL TIME:     0.52 SEC

 FILE SIZES:   FILE 1:   349.6 MBYTE,  FILE 4:   553.7 MBYTE,   TOTAL:    903.2 MBYTE

 OPERATOR DM      FOR CENTER  0  COORDINATES:    0.000000    0.000000    0.000000


 **********************************************************************************************************************************
 DATASETS  * FILE   NREC   LENGTH (MB)   RECORD NAMES
              1      19      349.79       500      610      700      900      950      970     1000      129      960     1100   
                                          VAR    BASINP    GEOM    SYMINP    ZMAT    AOBASIS   BASIS     P2S    ABASIS      S 
                                         1400     1410     1200     1210     1080     1600     1650     1300     1700   
                                           T        V       H0       H01     AOSYM     SMH    MOLCAS    ERIS     OPER   

 PROGRAMS   *        TOTAL       INT
 CPU TIMES  *         4.32      4.29
 REAL TIME  *         5.12 SEC
 DISK USED  *         1.28 GB      
 GA USED    *         0.01 MB       (max)       0.00 MB       (current)
 **********************************************************************************************************************************

1PROGRAM * RHF-SCF (CLOSED SHELL)       Authors: W. Meyer, H.-J. Werner


 NUMBER OF ELECTRONS:      28+   28-    SPACE SYMMETRY=1    SPIN SYMMETRY: Singlet 
 CONVERGENCE THRESHOLDS:    1.00E-10 (Density)    1.00E-13 (Energy)
 MAX. NUMBER OF ITERATIONS:      200
 INTERPOLATION TYPE:            DIIS
 INTERPOLATION STEPS:              2 (START)      1 (STEP)
 LEVEL SHIFTS:                  0.00 (CLOSED)  0.00 (OPEN) 



 Orbital guess generated from atomic densities. Full valence occupancy:   44

 Molecular orbital dump at record        2100.2

 ITERATION    DDIFF          GRAD             ENERGY        2-EL.EN.            DIPOLE MOMENTS         DIIS
    1      0.000D+00      0.000D+00      -592.64385450   1056.901126   -0.40971   -0.80209   -0.00181    0
    2      0.000D+00      0.396D-02      -592.70490219   1054.315233   -0.21070   -0.74030   -0.00080    1
    3      0.778D-02      0.132D-02      -592.71084266   1055.748992   -0.28273   -0.67758   -0.00093    2
    4      0.269D-02      0.540D-03      -592.71185196   1055.132328   -0.25579   -0.71096   -0.00081    3
    5      0.931D-03      0.772D-04      -592.71187763   1055.195049   -0.25189   -0.70257   -0.00079    4
    6      0.180D-03      0.267D-04      -592.71188015   1055.164134   -0.25360   -0.70287   -0.00078    5
    7      0.503D-04      0.620D-05      -592.71188035   1055.167300   -0.25294   -0.70276   -0.00078    6
    8      0.164D-04      0.174D-05      -592.71188037   1055.166445   -0.25293   -0.70262   -0.00078    7
    9      0.539D-05      0.449D-06      -592.71188038   1055.166324   -0.25291   -0.70258   -0.00078    7
   10      0.126D-05      0.160D-06      -592.71188038   1055.166364   -0.25290   -0.70258   -0.00078    7
   11      0.475D-06      0.343D-07      -592.71188038   1055.166349   -0.25290   -0.70258   -0.00078    7
   12      0.114D-06      0.682D-08      -592.71188038   1055.166355   -0.25290   -0.70258   -0.00078    7
   13      0.181D-07      0.284D-08      -592.71188038   1055.166352   -0.25290   -0.70258   -0.00078    7
   14      0.629D-08      0.840D-09      -592.71188038   1055.166353   -0.25290   -0.70258   -0.00078    7
   15      0.225D-08      0.273D-09      -592.71188038   1055.166352   -0.25290   -0.70258   -0.00078    7
   16      0.656D-09      0.861D-10      -592.71188038   1055.166353   -0.25290   -0.70258   -0.00078    8
   17      0.207D-09      0.202D-10      -592.71188038   1055.166353   -0.25290   -0.70258   -0.00078    7
   18      0.542D-10      0.707D-11      -592.71188038   1055.166353   -0.25290   -0.70258   -0.00078    7
   19      0.223D-10      0.271D-11      -592.71188038   1055.166353   -0.25290   -0.70258   -0.00078    8
   20      0.842D-11      0.983D-12      -592.71188038   1055.166353   -0.25290   -0.70258   -0.00078    8
   21      0.345D-11      0.346D-12      -592.71188038   1055.166353   -0.25290   -0.70258   -0.00078    8
   22      0.127D-11      0.108D-12      -592.71188038   1055.166353   -0.25290   -0.70258   -0.00078    8
   23      0.401D-12      0.542D-13      -592.71188038   1055.166353   -0.25290   -0.70258   -0.00078    0

 Final occupancy:  28

 !RHF STATE 1.1 Energy               -592.711880375297
 Nuclear energy                       312.16709867
 One-electron energy                -1432.46215532
 Two-electron energy                  527.58317627
 Virial quotient                       -1.00017810
 !RHF STATE 1.1 Dipole moment          -0.25290115    -0.70257581    -0.00078111
 Dipole moment /Debye                  -0.64276851    -1.78565263    -0.00198526

 Orbital energies:

         1.1          2.1          3.1          4.1          5.1          6.1          7.1          8.1          9.1         10.1
    -91.929744   -11.254955   -11.254938   -11.230941   -11.230856   -11.228278    -8.933633    -6.615527    -6.614096    -6.611894

        11.1         12.1         13.1         14.1         15.1         16.1         17.1         18.1         19.1         20.1
     -1.119605    -1.019901    -1.006743    -0.842365    -0.836213    -0.755871    -0.646925    -0.614386    -0.609859    -0.578775

        21.1         22.1         23.1         24.1         25.1         26.1         27.1         28.1         29.1         30.1
     -0.546980    -0.523585    -0.497773    -0.495818    -0.473218    -0.434586    -0.411768    -0.328670     0.177013     0.190258


 **********************************************************************************************************************************
 DATASETS  * FILE   NREC   LENGTH (MB)   RECORD NAMES
              1      19      349.79       500      610      700      900      950      970     1000      129      960     1100   
                                          VAR    BASINP    GEOM    SYMINP    ZMAT    AOBASIS   BASIS     P2S    ABASIS      S 
                                         1400     1410     1200     1210     1080     1600     1650     1300     1700   
                                           T        V       H0       H01     AOSYM     SMH    MOLCAS    ERIS     OPER   

              2       3        0.92       700     1000     2100   
                                         GEOM     BASIS     RHF  

 PROGRAMS   *        TOTAL       RHF       INT
 CPU TIMES  *        11.37      7.05      4.29
 REAL TIME  *        13.00 SEC
 DISK USED  *         1.28 GB      
 GA USED    *         0.01 MB       (max)       0.00 MB       (current)
 **********************************************************************************************************************************


1PROGRAM * CCSD (Closed-shell coupled cluster)     Authors: C. Hampel, H.-J. Werner, 1991, M. Deegan, P.J. Knowles, 1992


 Convergence thresholds:  THRVAR = 1.00D-08  THRDEN = 1.00D-12

 CCSD(T)     terms to be evaluated (factor= 1.000)


 Number of core orbitals:          10 (  10 )
 Number of closed-shell orbitals:  18 (  18 )
 Number of external orbitals:     110 ( 110 )

 Molecular orbitals read from record     2100.2  Type=RHF/CANONICAL (state 1.1)

 Number of N-1 electron functions:              18
 Number of N-2 electron functions:             171
 Number of singly external CSFs:              1980
 Number of doubly external CSFs:           1961190
 Total number of CSFs:                     1963171

 Length of J-op  integral file:               0.00 MB
 Length of K-op  integral file:               1.35 MB
 Length of 3-ext integral record:             0.00 MB

 Memory could be reduced to 32.58 Mwords without degradation in triples

 Integral transformation finished. Total CPU:   2.06 sec, npass=  1  Memory used:  30.89 MW

 Reference energy:                   -592.71188038

 MP2 singlet pair energy:              -0.53936822
 MP2 triplet pair energy:              -0.30434722
 MP2 correlation energy:               -0.84371544
 MP2 total energy:                   -593.55559582

 SCS-MP2 correlation energy:           -0.83661347   (PS=  1.200000  PT=  0.333333)
 SCS-MP2 total energy:               -593.54849385

 ITER.      SQ.NORM     CORR.ENERGY   TOTAL ENERGY   ENERGY CHANGE        DEN1      VAR(S)    VAR(P)  DIIS     TIME
   1      1.33956060    -0.91068451  -593.62256489    -0.06696907    -0.04302569  0.26D-02  0.55D-02  1  1     9.19
   2      1.36652735    -0.91602590  -593.62790628    -0.00534139    -0.02576058  0.69D-04  0.46D-03  2  2    16.39
   3      1.37185081    -0.91615309  -593.62803347    -0.00012719    -0.00303296  0.16D-04  0.28D-04  3  3    23.59
   4      1.37334168    -0.91621095  -593.62809132    -0.00005786    -0.00059311  0.76D-06  0.20D-05  4  4    30.79
   5      1.37358208    -0.91621754  -593.62809791    -0.00000659    -0.00007077  0.17D-06  0.16D-06  5  5    38.00
   6      1.37362770    -0.91621309  -593.62809347     0.00000445    -0.00001390  0.30D-07  0.14D-07  6  6    45.21
   7      1.37363529    -0.91621298  -593.62809335     0.00000011     0.00000064  0.53D-08  0.23D-08  6  2    52.43
   8      1.37364137    -0.91621267  -593.62809304     0.00000031    -0.00000124  0.73D-09  0.26D-09  6  1    59.66
   9      1.37364220    -0.91621260  -593.62809298     0.00000006     0.00000050  0.65D-10  0.44D-10  6  4    66.87
  10      1.37364308    -0.91621257  -593.62809294     0.00000003    -0.00000011  0.47D-11  0.35D-11  6  3    74.09
  11      1.37364309    -0.91621257  -593.62809295    -0.00000000     0.00000004  0.12D-11  0.53D-12  6  5    81.30
  12      1.37364305    -0.91621257  -593.62809295    -0.00000000     0.00000002  0.17D-12  0.77D-13  6  6    88.52
  13      1.37364300    -0.91621257  -593.62809295    -0.00000000     0.00000002  0.24D-13  0.10D-13  6  1    95.72
  14      1.37364299    -0.91621257  -593.62809295    -0.00000000     0.00000000  0.31D-14  0.12D-14  6  2   102.93
  15      1.37364299    -0.91621257  -593.62809295     0.00000000    -0.00000000  0.67D-15  0.31D-15  6  4   110.15
  16      1.37364300    -0.91621257  -593.62809295     0.00000000    -0.00000000  0.33D-16  0.23D-16  6  5   117.36
  17      1.37364300    -0.91621257  -593.62809295     0.00000000    -0.00000000  0.62D-17  0.25D-17  6  3   124.56
  18      1.37364300    -0.91621257  -593.62809295     0.00000000    -0.00000000  0.16D-17  0.43D-18  6  5   131.77
  19      1.37364300    -0.91621257  -593.62809295     0.00000000    -0.00000000  0.21D-18  0.70D-19  6  6   139.00
  20      1.37364300    -0.91621257  -593.62809295    -0.00000000     0.00000000  0.21D-19  0.76D-20  6  1   146.21
  21      1.37364300    -0.91621257  -593.62809295    -0.00000000     0.00000000  0.44D-20  0.13D-20  6  2   153.43

 Norm of t1 vector:      0.07012881      S-energy:    -0.00000000      T1 diagnostic:  0.00826476
                                                                       D1 diagnostic:  0.02108140


 Total CPU time for triples:    108.43 sec


 RESULTS
 =======

  Reference energy                   -592.711880375293
  CCSD singlet pair energy             -0.634083707942
  CCSD triplet pair energy             -0.282128866430
  CCSD correlation energy              -0.916212574372

  Triples (T) contribution             -0.029852126950
  Total correlation energy             -0.946064701322

  CCSD total energy                  -593.628092949665
  CCSD[T] energy                     -593.658563830111
  CCSD-T energy                      -593.657634136280
 !CCSD(T) total energy               -593.657945076615

 Timing summary (sec):

 STEP                 CPU(USER)    SYS     CPU(TOT)    WALL
 Transformation          2.16      0.20      2.36      2.37
 CCSD iterations       151.27      2.78    154.05    154.10
 Triples               108.43      2.01    110.44    110.46

 Program statistics:

 Available memory in ccsd:               999998604
 Min. memory needed in ccsd:               5123362
 Max. memory used in ccsd:                 6867976
 Max. memory used in cckext:               6836871 (21 integral passes)



 **********************************************************************************************************************************
 DATASETS  * FILE   NREC   LENGTH (MB)   RECORD NAMES
              1      20      486.16       500      610      700      900      950      970     1000      129      960     1100   
                                          VAR    BASINP    GEOM    SYMINP    ZMAT    AOBASIS   BASIS     P2S    ABASIS      S 
                                         1400     1410     1200     1210     1080     1600     1650     1300     1700     1380   
                                           T        V       H0       H01     AOSYM     SMH    MOLCAS    ERIS     OPER     JKOP   

              2       3        0.92       700     1000     2100   
                                         GEOM     BASIS     RHF  

 PROGRAMS   *        TOTAL   CCSD(T)       RHF       INT
 CPU TIMES  *       273.24    261.87      7.05      4.29
 REAL TIME  *       279.98 SEC
 DISK USED  *         1.28 GB      
 GA USED    *         0.01 MB       (max)       0.00 MB       (current)
 **********************************************************************************************************************************

        CCSD(T)         RHF-SCF 
   -593.65794508   -592.71188038
 **********************************************************************************************************************************
 Variable memory released
