
    -----------------------------------------------------------------------
          Psi4: An Open-Source Ab Initio Electronic Structure Package
                               Psi4 1.4a2.dev629 

                         Git: Rev {master} 2938fc2 dirty


    D. G. A. Smith, L. A. Burns, A. C. Simmonett, R. M. Parrish,
    M. C. Schieber, R. Galvelis, P. Kraus, H. Kruse, R. Di Remigio,
    A. Alenaizan, A. M. James, S. Lehtola, J. P. Misiewicz, M. Scheurer,
    R. A. Shaw, J. B. Schriber, Y. Xie, Z. L. Glick, D. A. Sirianni,
    J. S. O'Brien, J. M. Waldrop, A. Kumar, E. G. Hohenstein,
    B. P. Pritchard, B. R. Brooks, H. F. Schaefer III, A. Yu. Sokolov,
    K. Patkowski, A. E. DePrince III, U. Bozkaya, R. A. King,
    F. A. Evangelista, J. M. Turney, T. D. Crawford, C. D. Sherrill,
    J. Chem. Phys. 152(18) 184108 (2020). https://doi.org/10.1063/5.0006002

                            Additional Code Authors
    E. T. Seidl, C. L. Janssen, E. F. Valeev, M. L. Leininger,
    J. F. Gonthier, R. M. Richard, H. R. McAlexander, M. Saitow, X. Wang,
    P. Verma, and M. H. Lechner

             Previous Authors, Complete List of Code Contributors,
                       and Citations for Specific Modules
    https://github.com/psi4/psi4/blob/master/codemeta.json
    https://github.com/psi4/psi4/graphs/contributors
    http://psicode.org/psi4manual/master/introduction.html#citing-psifour

    -----------------------------------------------------------------------


    Psi4 started on: Friday, 12 November 2021 10:23AM

    Process ID: 13289
    Host:       n023
    PSIDATADIR: /opt/psi/4/master/share/psi4
    Memory:     500.0 MiB
    Threads:    4
    
  ==> Input File <==

--------------------------------------------------------------------------
import os
memory 14 GB 
 
molecule {
 C   -3.1876652620    0.7192820665    0.0000000000
 C   -1.3071282982   -0.9610500112   -0.0000000000
 X    1.5864055600   -1.1719353700    0.0000000000
 C    1.3090111570   -0.2097457523    0.0000000000
 X    1.3084471000   -0.2113422700    1.0000000000
 N    3.4208056937    0.4001765816   -0.0000000000
 H   -5.1346710057    0.0920472844   -0.0000000000
 H   -2.8154727653    2.7305835638    0.0000000000
 H   -1.6708972795   -2.9723093128    0.0000000000
units bohr
}

basis {

assign 6-31g_2dfp_

[ 6-31g_2dfp_ ]

spherical

!----------------------------------------------------------------------
! Basis Set Exchange
! Version v0.8.13
! https://www.basissetexchange.org
!----------------------------------------------------------------------
!   Basis set: 6-31G(2df,p)
! Description: 6-31G(2df,p)
!        Role: orbital
!     Version: 0  (Data from the original Basis Set Exchange)
!----------------------------------------------------------------------


****
H     0
S    3   1.00
     18.7311370              0.03349460
      2.8253937              0.23472695
      0.6401217              0.81375733
S    1   1.00
      0.1612778              1.00000000
P    1   1.00
      1.5000000              1.0000000
P    1   1.00
      0.3750000              1.0000000
****
B     0
S    6   1.00
   2068.8823000              0.0018663
    310.6495700              0.0142515
     70.6830330              0.0695516
     19.8610800              0.2325729
      6.2993048              0.4670787
      2.1270270              0.3634314
SP   3   1.00
      4.7279710             -0.1303938              0.0745976
      1.1903377             -0.1307889              0.3078467
      0.3594117              1.1309444              0.7434568
SP   1   1.00
      0.1267512              1.0000000              1.0000000
D    1   1.00
      0.8020000              1.0000000
D    1   1.00
      0.2005000              1.0000000
F    1   1.00
      0.5000000              1.0000000
****
C     0
S    6   1.00
   3047.5249000              0.0018347
    457.3695100              0.0140373
    103.9486900              0.0688426
     29.2101550              0.2321844
      9.2866630              0.4679413
      3.1639270              0.3623120
SP   3   1.00
      7.8682724             -0.1193324              0.0689991
      1.8812885             -0.1608542              0.3164240
      0.5442493              1.1434564              0.7443083
SP   1   1.00
      0.1687144              1.0000000              1.0000000
D    1   1.00
      1.2520000              1.0000000
D    1   1.00
      0.3130000              1.0000000
F    1   1.00
      0.8000000              1.0000000
****
N     0
S    6   1.00
   4173.5110000              0.0018348
    627.4579000              0.0139950
    142.9021000              0.0685870
     40.2343300              0.2322410
     12.8202100              0.4690700
      4.3904370              0.3604550
SP   3   1.00
     11.6263580             -0.1149610              0.0675800
      2.7162800             -0.1691180              0.3239070
      0.7722180              1.1458520              0.7408950
SP   1   1.00
      0.2120313              1.0000000              1.0000000
D    1   1.00
      1.8260000              1.0000000
D    1   1.00
      0.4565000              1.0000000
F    1   1.00
      1.0000000              1.0000000
****
O     0
S    6   1.00
   5484.6717000              0.0018311
    825.2349500              0.0139501
    188.0469600              0.0684451
     52.9645000              0.2327143
     16.8975700              0.4701930
      5.7996353              0.3585209
SP   3   1.00
     15.5396160             -0.1107775              0.0708743
      3.5999336             -0.1480263              0.3397528
      1.0137618              1.1307670              0.7271586
SP   1   1.00
      0.2700058              1.0000000              1.0000000
D    1   1.00
      2.5840000              1.0000000
D    1   1.00
      0.6460000              1.0000000
F    1   1.00
      1.4000000              1.0000000
****
F     0
S    6   1.00
   7001.7130900              0.0018196169
   1051.3660900              0.0139160796
    239.2856900              0.0684053245
     67.3974453              0.233185760
     21.5199573              0.471267439
      7.40310130             0.356618546
SP   3   1.00
     20.8479528             -0.108506975            0.0716287243
      4.80830834            -0.146451658            0.3459121030
      1.34406986             1.128688580            0.7224699570
SP   1   1.00
      0.358151393            1.0000000              1.0000000
D    1   1.00
      3.5000000              1.0000000
D    1   1.00
      0.8750000              1.0000000
F    1   1.00
      1.8500000              1.0000000
****
Al     0
S    6   1.00
  13983.1000000              0.00194267
   2098.7500000              0.0148599
    477.7050000              0.0728494
    134.3600000              0.2468300
     42.8709000              0.4872580
     14.5189000              0.3234960
SP   6   1.00
    239.6680000             -0.00292619             0.00460285
     57.4419000             -0.0374080              0.0331990
     18.2859000             -0.1144870              0.1362820
      6.5991400              0.1156350              0.3304760
      2.4904900              0.6125950              0.4491460
      0.9445400              0.3937990              0.2657040
SP   3   1.00
      1.2779000             -0.2276060             -0.0175130
      0.3975900              0.00144583             0.2445330
      0.1600950              1.0927900              0.8049340
SP   1   1.00
      0.0556577              1.0000000              1.0000000
D    1   1.00
      0.6500000              1.0000000
D    1   1.00
      0.1625000              1.0000000
F    1   1.00
      0.2500000              1.0000000
****
Si     0
S    6   1.00
  16115.9000000              0.00195948
   2425.5800000              0.01492880
    553.8670000              0.07284780
    156.3400000              0.24613000
     50.0683000              0.48591400
     17.0178000              0.32500200
SP   6   1.00
    292.7180000             -0.00278094             0.00443826
     69.8731000             -0.03571460             0.03266790
     22.3363000             -0.11498500             0.13472100
      8.1503900              0.09356340             0.32867800
      3.1345800              0.60301700             0.44964000
      1.2254300              0.41895900             0.26137200
SP   3   1.00
      1.7273800             -0.24463000            -0.01779510
      0.5729220              0.00431572             0.25353900
      0.2221920              1.09818000             0.80066900
SP   1   1.00
      0.0778369              1.00000000             1.00000000
D    1   1.00
      0.9000000              1.0000000
D    1   1.00
      0.2250000              1.0000000
F    1   1.00
      0.3200000              1.0000000
****
P     0
S    6   1.00
  19413.3000000              0.0018516
   2909.4200000              0.0142062
    661.3640000              0.0699995
    185.7590000              0.2400790
     59.1943000              0.4847620
     20.0310000              0.3352000
SP   6   1.00
    339.4780000             -0.00278217             0.00456462
     81.0101000             -0.0360499              0.03369360
     25.8780000             -0.1166310              0.13975500
      9.4522100              0.0968328              0.33936200
      3.6656600              0.6144180              0.45092100
      1.4674600              0.4037980              0.23858600
SP   3   1.00
      2.1562300             -0.2529230             -0.01776530
      0.7489970              0.0328517              0.27405800
      0.2831450              1.0812500              0.78542100
SP   1   1.00
      0.0998317              1.0000000              1.00000000
D    1   1.00
      1.1000000              1.0000000
D    1   1.00
      0.2750000              1.0000000
F    1   1.00
      0.4500000              1.0000000
****
S     0
S    6   1.00
  21917.1000000              0.0018690
   3301.4900000              0.0142300
    754.1460000              0.0696960
    212.7110000              0.2384870
     67.9896000              0.4833070
     23.0515000              0.3380740
SP   6   1.00
    423.7350000             -0.0023767              0.0040610
    100.7100000             -0.0316930              0.0306810
     32.1599000             -0.1133170              0.1304520
     11.8079000              0.0560900              0.3272050
      4.6311000              0.5922550              0.4528510
      1.8702500              0.4550060              0.2560420
SP   3   1.00
      2.6158400             -0.2503740             -0.0145110
      0.9221670              0.0669570              0.3102630
      0.3412870              1.0545100              0.7544830
SP   1   1.00
      0.1171670              1.0000000              1.0000000
D    1   1.00
      1.3000000              1.0000000
D    1   1.00
      0.3250000              1.0000000
F    1   1.00
      0.5500000              1.0000000
****
Cl     0
S    6   1.00
  25180.1000000              0.0018330
   3780.3500000              0.0140340
    860.4740000              0.0690970
    242.1450000              0.2374520
     77.3349000              0.4830340
     26.2470000              0.3398560
SP   6   1.00
    491.7650000             -0.0022974              0.0039894
    116.9840000             -0.0307140              0.0303180
     37.4153000             -0.1125280              0.1298800
     13.7834000              0.0450160              0.3279510
      5.4521500              0.5893530              0.4535270
      2.2258800              0.4652060              0.2521540
SP   3   1.00
      3.1864900             -0.2518300             -0.0142990
      1.1442700              0.0615890              0.3235720
      0.4203770              1.0601800              0.7435070
SP   1   1.00
      0.1426570              1.0000000              1.0000000
D    1   1.00
      1.5000000              1.0000000
D    1   1.00
      0.3750000              1.0000000
F    1   1.00
      0.7000000              1.0000000
****
}


set {
reference rhf                          
freeze_core true
e_convergence 10                       
d_convergence 10                      
dft_spherical_points 1202
dft_radial_points 99
}

e = energy('b3lyp')

print_out('Grab this energy {0}'.format(e))
--------------------------------------------------------------------------

  Memory set to  13.039 GiB by Python driver.

Scratch directory: /tmp/

*** tstart() called on n023
*** at Fri Nov 12 10:23:18 2021

   => Loading Basis Set <=

    Name: ANONYMOUS2D3C98AD
    Role: ORBITAL
    Keyword: BASIS
    atoms 1-3 entry C          line    48 inputblock 6-31g_2dfp_ 
    atoms 4   entry N          line    69 inputblock 6-31g_2dfp_ 
    atoms 5-7 entry H          line    15 inputblock 6-31g_2dfp_ 


         ---------------------------------------------------------
                                   SCF
               by Justin Turney, Rob Parrish, Andy Simmonett
                          and Daniel G. A. Smith
                              RKS Reference
                        4 Threads,  13351 MiB Core
         ---------------------------------------------------------

  ==> Geometry <==

    Molecular point group: cs
    Full point group: Cs

    Geometry (in Bohr), charge = 0, multiplicity = 1:

       Center              X                  Y                   Z               Mass       
    ------------   -----------------  -----------------  -----------------  -----------------
         C           -3.187214175479     0.718627899481     0.000000000000    12.000000000000
         C           -1.306677211679    -0.961704178219     0.000000000000    12.000000000000
         C            1.309462243521    -0.210399919319     0.000000000000    12.000000000000
         N            3.421256780221     0.399522414581     0.000000000000    14.003074004430
         H           -5.134219919179     0.091393117381     0.000000000000     1.007825032230
         H           -2.815021678779     2.729929396781     0.000000000000     1.007825032230
         H           -1.670446192979    -2.972963479819     0.000000000000     1.007825032230

  Running in cs symmetry.

  Rotational constants: A =      1.64981  B =      0.16528  C =      0.15023 [cm^-1]
  Rotational constants: A =  49460.20353  B =   4954.86324  C =   4503.68912 [MHz]
  Nuclear repulsion =   89.934293843624900

  Charge       = 0
  Multiplicity = 1
  Electrons    = 28
  Nalpha       = 14
  Nbeta        = 14

  ==> Algorithm <==

  SCF Algorithm Type is DF.
  DIIS enabled.
  MOM disabled.
  Fractional occupation disabled.
  Guess Type is SAD.
  Energy threshold   = 1.00e-10
  Density threshold  = 1.00e-10
  Integral threshold = 0.00e+00

  ==> Primary Basis <==

  Basis Set: ANONYMOUS2D3C98AD
    Blend: 6-31G_2DFP_
    Number of shells: 44
    Number of basis function: 128
    Number of Cartesian functions: 148
    Spherical Harmonics?: true
    Max angular momentum: 3

  ==> DFT Potential <==

   => Composite Functional: B3LYP <= 

    B3LYP Hyb-GGA Exchange-Correlation Functional

    P. J. Stephens, F. J. Devlin, C. F. Chabalowski, and M. J. Frisch, J. Phys. Chem. 98, 11623 (1994)

    Deriv               =              1
    GGA                 =           TRUE
    Meta                =          FALSE

    Exchange Hybrid     =           TRUE
    MP2 Hybrid          =          FALSE

   => Exchange Functionals <=

    0.0800   Slater exchange
    0.7200         Becke 88

   => Exact (HF) Exchange <=

    0.2000               HF 

   => Correlation Functionals <=

    0.1900   Vosko, Wilk & Nusair (VWN5_RPA)
    0.8100   Lee, Yang & Parr

   => Molecular Quadrature <=

    Radial Scheme          =       TREUTLER
    Pruning Scheme         =           NONE
    Nuclear Scheme         =       TREUTLER

    BS radius alpha        =              1
    Pruning alpha          =              1
    Radial Points          =             99
    Spherical Points       =           1202
    Total Points           =         782660
    Total Blocks           =           5473
    Max Points             =            256
    Max Functions          =            127
    Weights Tolerance      =       1.00E-15

   => Loading Basis Set <=

    Name: (ANONYMOUS2D3C98AD AUX)
    Role: JKFIT
    Keyword: DF_BASIS_SCF
    atoms 1-3 entry C          line   198 file /opt/psi/4/master/share/psi4/basis/def2-universal-jkfit.gbs 
    atoms 4   entry N          line   258 file /opt/psi/4/master/share/psi4/basis/def2-universal-jkfit.gbs 
    atoms 5-7 entry H          line    18 file /opt/psi/4/master/share/psi4/basis/def2-universal-jkfit.gbs 

  ==> Integral Setup <==

  DFHelper Memory: AOs need 0.047 GiB; user supplied 7.427 GiB. Using in-core AOs.

  ==> MemDFJK: Density-Fitted J/K Matrices <==

    J tasked:                   Yes
    K tasked:                   Yes
    wK tasked:                   No
    OpenMP threads:               4
    Memory [MiB]:              7605
    Algorithm:                 Core
    Schwarz Cutoff:           1E-12
    Mask sparsity (%):       1.5869
    Fitting Condition:        1E-10

   => Auxiliary Basis Set <=

  Basis Set: (ANONYMOUS2D3C98AD AUX)
    Blend: DEF2-UNIVERSAL-JKFIT
    Number of shells: 118
    Number of basis function: 356
    Number of Cartesian functions: 420
    Spherical Harmonics?: true
    Max angular momentum: 4

  Cached 100.0% of DFT collocation blocks in 2.352 [GiB].

  Minimum eigenvalue in the overlap matrix is 6.1500106461E-04.
  Reciprocal condition number of the overlap matrix is 1.1948378778E-04.
    Using symmetric orthogonalization.

  ==> Pre-Iterations <==

  SCF Guess: Superposition of Atomic Densities via on-the-fly atomic UHF (no occupation information).

   -------------------------
    Irrep   Nso     Nmo    
   -------------------------
     A'        86      86 
     A"        42      42 
   -------------------------
    Total     128     128
   -------------------------

  ==> Iterations <==

                           Total Energy        Delta E     RMS |[F,P]|

   @DF-RKS iter SAD:  -170.10507318073911   -1.70105e+02   0.00000e+00 
   @DF-RKS iter   1:  -170.62190451773424   -5.16831e-01   6.84437e-03 DIIS
   @DF-RKS iter   2:  -170.46537221759999    1.56532e-01   9.05231e-03 DIIS
   @DF-RKS iter   3:  -170.77432941061306   -3.08957e-01   3.88788e-03 DIIS
   @DF-RKS iter   4:  -170.83973870778090   -6.54093e-02   2.74590e-04 DIIS
   @DF-RKS iter   5:  -170.83998625789542   -2.47550e-04   1.49786e-04 DIIS
   @DF-RKS iter   6:  -170.84008867107272   -1.02413e-04   4.33034e-05 DIIS
   @DF-RKS iter   7:  -170.84009736796514   -8.69689e-06   1.68479e-05 DIIS
   @DF-RKS iter   8:  -170.84009862481992   -1.25685e-06   3.05189e-06 DIIS
   @DF-RKS iter   9:  -170.84009866378079   -3.89609e-08   5.78202e-07 DIIS
   @DF-RKS iter  10:  -170.84009866520444   -1.42364e-09   8.10369e-08 DIIS
   @DF-RKS iter  11:  -170.84009866522956   -2.51248e-11   1.68441e-08 DIIS
   @DF-RKS iter  12:  -170.84009866523061   -1.05160e-12   1.70318e-09 DIIS
   @DF-RKS iter  13:  -170.84009866523081   -1.98952e-13   2.94057e-10 DIIS
   @DF-RKS iter  14:  -170.84009866523053    2.84217e-13   5.50152e-11 DIIS
  Energy and wave function converged.


  ==> Post-Iterations <==

    Orbital Energies [Eh]
    ---------------------

    Doubly Occupied:                                                      

       1Ap   -14.340282     2Ap   -10.240913     3Ap   -10.227156  
       4Ap   -10.223635     5Ap    -0.905474     6Ap    -0.816471  
       7Ap    -0.655764     8Ap    -0.539117     9Ap    -0.480193  
      10Ap    -0.417297     1App   -0.378269    11Ap    -0.362348  
      12Ap    -0.335001     2App   -0.290790  

    Virtual:                                                              

       3App   -0.056808    13Ap     0.024797    14Ap     0.103835  
       4App    0.106856    15Ap     0.107763    16Ap     0.133660  
      17Ap     0.226733    18Ap     0.281728    19Ap     0.306733  
      20Ap     0.394238     5App    0.439967    21Ap     0.449075  
      22Ap     0.465091     6App    0.477529    23Ap     0.509007  
       7App    0.540156    24Ap     0.568777     8App    0.583419  
       9App    0.603788    25Ap     0.608616    26Ap     0.628467  
      27Ap     0.636309    28Ap     0.649003    29Ap     0.693457  
      10App    0.701568    11App    0.764358    30Ap     0.771011  
      31Ap     0.786940    12App    0.794628    32Ap     0.858664  
      33Ap     0.949798    13App    0.980668    34Ap     0.989964  
      14App    1.003486    35Ap     1.047418    36Ap     1.093562  
      37Ap     1.116817    15App    1.119608    16App    1.186975  
      38Ap     1.234874    39Ap     1.289014    40Ap     1.322508  
      41Ap     1.334028    17App    1.339363    18App    1.434417  
      42Ap     1.448033    43Ap     1.521102    44Ap     1.562324  
      45Ap     1.644380    46Ap     1.756940    19App    1.771496  
      47Ap     1.831401    48Ap     2.053690    49Ap     2.138128  
      50Ap     2.244619    51Ap     2.412319    20App    2.580302  
      52Ap     2.620956    21App    2.690307    22App    2.747770  
      53Ap     2.761691    54Ap     2.781928    55Ap     2.845543  
      23App    2.870925    56Ap     2.911049    24App    2.911298  
      57Ap     2.954453    25App    2.957127    58Ap     3.045457  
      26App    3.071854    27App    3.115689    59Ap     3.142247  
      60Ap     3.170065    28App    3.182448    61Ap     3.189447  
      29App    3.241824    62Ap     3.263640    30App    3.319402  
      63Ap     3.321724    64Ap     3.408576    65Ap     3.463033  
      66Ap     3.479438    31App    3.590411    67Ap     3.664079  
      32App    3.664891    33App    3.699489    68Ap     3.711436  
      34App    3.840333    69Ap     3.849587    70Ap     3.881745  
      71Ap     4.034486    35App    4.035713    36App    4.113967  
      72Ap     4.192051    37App    4.237241    38App    4.278082  
      73Ap     4.387520    74Ap     4.417501    75Ap     4.506308  
      39App    4.588202    76Ap     4.649228    77Ap     4.681272  
      40App    4.757960    78Ap     4.781430    41App    4.820896  
      79Ap     4.845201    80Ap     4.922828    81Ap     5.149139  
      82Ap     5.211227    83Ap     5.403390    42App    5.493482  
      84Ap     5.495383    85Ap     5.659156    86Ap     6.087217  

    Final Occupation by Irrep:
             Ap   App 
    DOCC [    12,    2 ]

  @DF-RKS Final Energy:  -170.84009866523053

   => Energetics <=

    Nuclear Repulsion Energy =             89.9342938436249000
    One-Electron Energy =                -407.0280186569762577
    Two-Electron Energy =                 165.8444355250185538
    DFT Exchange-Correlation Energy =     -19.5908093768977523
    Empirical Dispersion Energy =           0.0000000000000000
    VV10 Nonlocal Energy =                  0.0000000000000000
    Total Energy =                       -170.8400986652305278

Computation Completed


Properties will be evaluated at   0.000000,   0.000000,   0.000000 [a0]

Properties computed using the SCF density matrix

  Nuclear Dipole Moment: [e a0]
     X:    -4.7775      Y:    -0.0758      Z:     0.0000

  Electronic Dipole Moment: [e a0]
     X:     3.2795      Y:    -0.1967      Z:     0.0000

  Dipole Moment: [e a0]
     X:    -1.4980      Y:    -0.2726      Z:     0.0000     Total:     1.5226

  Dipole Moment: [D]
     X:    -3.8075      Y:    -0.6928      Z:     0.0000     Total:     3.8701


*** tstop() called on n023 at Fri Nov 12 10:23:33 2021
Module time:
	user time   =      58.79 seconds =       0.98 minutes
	system time =       0.67 seconds =       0.01 minutes
	total time  =         15 seconds =       0.25 minutes
Total time:
	user time   =      58.79 seconds =       0.98 minutes
	system time =       0.67 seconds =       0.01 minutes
	total time  =         15 seconds =       0.25 minutes
Grab this energy -170.84009866523053
    Psi4 stopped on: Friday, 12 November 2021 10:23AM
    Psi4 wall time for execution: 0:00:15.34

*** Psi4 exiting successfully. Buy a developer a beer!
