
    -----------------------------------------------------------------------
          Psi4: An Open-Source Ab Initio Electronic Structure Package
                               Psi4 1.4a2.dev629 

                         Git: Rev {master} 2938fc2 dirty


    D. G. A. Smith, L. A. Burns, A. C. Simmonett, R. M. Parrish,
    M. C. Schieber, R. Galvelis, P. Kraus, H. Kruse, R. Di Remigio,
    A. Alenaizan, A. M. James, S. Lehtola, J. P. Misiewicz, M. Scheurer,
    R. A. Shaw, J. B. Schriber, Y. Xie, Z. L. Glick, D. A. Sirianni,
    J. S. O'Brien, J. M. Waldrop, A. Kumar, E. G. Hohenstein,
    B. P. Pritchard, B. R. Brooks, H. F. Schaefer III, A. Yu. Sokolov,
    K. Patkowski, A. E. DePrince III, U. Bozkaya, R. A. King,
    F. A. Evangelista, J. M. Turney, T. D. Crawford, C. D. Sherrill,
    J. Chem. Phys. 152(18) 184108 (2020). https://doi.org/10.1063/5.0006002

                            Additional Code Authors
    E. T. Seidl, C. L. Janssen, E. F. Valeev, M. L. Leininger,
    J. F. Gonthier, R. M. Richard, H. R. McAlexander, M. Saitow, X. Wang,
    P. Verma, and M. H. Lechner

             Previous Authors, Complete List of Code Contributors,
                       and Citations for Specific Modules
    https://github.com/psi4/psi4/blob/master/codemeta.json
    https://github.com/psi4/psi4/graphs/contributors
    http://psicode.org/psi4manual/master/introduction.html#citing-psifour

    -----------------------------------------------------------------------


    Psi4 started on: Friday, 12 November 2021 10:26AM

    Process ID: 27053
    Host:       n091
    PSIDATADIR: /opt/psi/4/master/share/psi4
    Memory:     500.0 MiB
    Threads:    4
    
  ==> Input File <==

--------------------------------------------------------------------------
import os
memory 14 GB 
 
molecule {
 C   -3.1940995074    0.7252385411    0.0014221928
 C   -1.3027534877   -0.9631399120   -0.0070516012
 X    1.5864055600   -1.1719353700    0.0000000000
 C    1.3102437144   -0.2123617592   -0.0005849988
 X    1.3084471000   -0.2113422700    1.0000000000
 N    3.4212900743    0.4006318250    0.0109369604
 H   -5.1359506185    0.0987709745    0.0191281846
 H   -2.8202459984    2.7327596528   -0.0149312347
 H   -1.6645019366   -2.9829149022   -0.0089195032
units bohr
}

basis {

assign 6-31g_2dfp_

[ 6-31g_2dfp_ ]

spherical

!----------------------------------------------------------------------
! Basis Set Exchange
! Version v0.8.13
! https://www.basissetexchange.org
!----------------------------------------------------------------------
!   Basis set: 6-31G(2df,p)
! Description: 6-31G(2df,p)
!        Role: orbital
!     Version: 0  (Data from the original Basis Set Exchange)
!----------------------------------------------------------------------


****
H     0
S    3   1.00
     18.7311370              0.03349460
      2.8253937              0.23472695
      0.6401217              0.81375733
S    1   1.00
      0.1612778              1.00000000
P    1   1.00
      1.5000000              1.0000000
P    1   1.00
      0.3750000              1.0000000
****
B     0
S    6   1.00
   2068.8823000              0.0018663
    310.6495700              0.0142515
     70.6830330              0.0695516
     19.8610800              0.2325729
      6.2993048              0.4670787
      2.1270270              0.3634314
SP   3   1.00
      4.7279710             -0.1303938              0.0745976
      1.1903377             -0.1307889              0.3078467
      0.3594117              1.1309444              0.7434568
SP   1   1.00
      0.1267512              1.0000000              1.0000000
D    1   1.00
      0.8020000              1.0000000
D    1   1.00
      0.2005000              1.0000000
F    1   1.00
      0.5000000              1.0000000
****
C     0
S    6   1.00
   3047.5249000              0.0018347
    457.3695100              0.0140373
    103.9486900              0.0688426
     29.2101550              0.2321844
      9.2866630              0.4679413
      3.1639270              0.3623120
SP   3   1.00
      7.8682724             -0.1193324              0.0689991
      1.8812885             -0.1608542              0.3164240
      0.5442493              1.1434564              0.7443083
SP   1   1.00
      0.1687144              1.0000000              1.0000000
D    1   1.00
      1.2520000              1.0000000
D    1   1.00
      0.3130000              1.0000000
F    1   1.00
      0.8000000              1.0000000
****
N     0
S    6   1.00
   4173.5110000              0.0018348
    627.4579000              0.0139950
    142.9021000              0.0685870
     40.2343300              0.2322410
     12.8202100              0.4690700
      4.3904370              0.3604550
SP   3   1.00
     11.6263580             -0.1149610              0.0675800
      2.7162800             -0.1691180              0.3239070
      0.7722180              1.1458520              0.7408950
SP   1   1.00
      0.2120313              1.0000000              1.0000000
D    1   1.00
      1.8260000              1.0000000
D    1   1.00
      0.4565000              1.0000000
F    1   1.00
      1.0000000              1.0000000
****
O     0
S    6   1.00
   5484.6717000              0.0018311
    825.2349500              0.0139501
    188.0469600              0.0684451
     52.9645000              0.2327143
     16.8975700              0.4701930
      5.7996353              0.3585209
SP   3   1.00
     15.5396160             -0.1107775              0.0708743
      3.5999336             -0.1480263              0.3397528
      1.0137618              1.1307670              0.7271586
SP   1   1.00
      0.2700058              1.0000000              1.0000000
D    1   1.00
      2.5840000              1.0000000
D    1   1.00
      0.6460000              1.0000000
F    1   1.00
      1.4000000              1.0000000
****
F     0
S    6   1.00
   7001.7130900              0.0018196169
   1051.3660900              0.0139160796
    239.2856900              0.0684053245
     67.3974453              0.233185760
     21.5199573              0.471267439
      7.40310130             0.356618546
SP   3   1.00
     20.8479528             -0.108506975            0.0716287243
      4.80830834            -0.146451658            0.3459121030
      1.34406986             1.128688580            0.7224699570
SP   1   1.00
      0.358151393            1.0000000              1.0000000
D    1   1.00
      3.5000000              1.0000000
D    1   1.00
      0.8750000              1.0000000
F    1   1.00
      1.8500000              1.0000000
****
Al     0
S    6   1.00
  13983.1000000              0.00194267
   2098.7500000              0.0148599
    477.7050000              0.0728494
    134.3600000              0.2468300
     42.8709000              0.4872580
     14.5189000              0.3234960
SP   6   1.00
    239.6680000             -0.00292619             0.00460285
     57.4419000             -0.0374080              0.0331990
     18.2859000             -0.1144870              0.1362820
      6.5991400              0.1156350              0.3304760
      2.4904900              0.6125950              0.4491460
      0.9445400              0.3937990              0.2657040
SP   3   1.00
      1.2779000             -0.2276060             -0.0175130
      0.3975900              0.00144583             0.2445330
      0.1600950              1.0927900              0.8049340
SP   1   1.00
      0.0556577              1.0000000              1.0000000
D    1   1.00
      0.6500000              1.0000000
D    1   1.00
      0.1625000              1.0000000
F    1   1.00
      0.2500000              1.0000000
****
Si     0
S    6   1.00
  16115.9000000              0.00195948
   2425.5800000              0.01492880
    553.8670000              0.07284780
    156.3400000              0.24613000
     50.0683000              0.48591400
     17.0178000              0.32500200
SP   6   1.00
    292.7180000             -0.00278094             0.00443826
     69.8731000             -0.03571460             0.03266790
     22.3363000             -0.11498500             0.13472100
      8.1503900              0.09356340             0.32867800
      3.1345800              0.60301700             0.44964000
      1.2254300              0.41895900             0.26137200
SP   3   1.00
      1.7273800             -0.24463000            -0.01779510
      0.5729220              0.00431572             0.25353900
      0.2221920              1.09818000             0.80066900
SP   1   1.00
      0.0778369              1.00000000             1.00000000
D    1   1.00
      0.9000000              1.0000000
D    1   1.00
      0.2250000              1.0000000
F    1   1.00
      0.3200000              1.0000000
****
P     0
S    6   1.00
  19413.3000000              0.0018516
   2909.4200000              0.0142062
    661.3640000              0.0699995
    185.7590000              0.2400790
     59.1943000              0.4847620
     20.0310000              0.3352000
SP   6   1.00
    339.4780000             -0.00278217             0.00456462
     81.0101000             -0.0360499              0.03369360
     25.8780000             -0.1166310              0.13975500
      9.4522100              0.0968328              0.33936200
      3.6656600              0.6144180              0.45092100
      1.4674600              0.4037980              0.23858600
SP   3   1.00
      2.1562300             -0.2529230             -0.01776530
      0.7489970              0.0328517              0.27405800
      0.2831450              1.0812500              0.78542100
SP   1   1.00
      0.0998317              1.0000000              1.00000000
D    1   1.00
      1.1000000              1.0000000
D    1   1.00
      0.2750000              1.0000000
F    1   1.00
      0.4500000              1.0000000
****
S     0
S    6   1.00
  21917.1000000              0.0018690
   3301.4900000              0.0142300
    754.1460000              0.0696960
    212.7110000              0.2384870
     67.9896000              0.4833070
     23.0515000              0.3380740
SP   6   1.00
    423.7350000             -0.0023767              0.0040610
    100.7100000             -0.0316930              0.0306810
     32.1599000             -0.1133170              0.1304520
     11.8079000              0.0560900              0.3272050
      4.6311000              0.5922550              0.4528510
      1.8702500              0.4550060              0.2560420
SP   3   1.00
      2.6158400             -0.2503740             -0.0145110
      0.9221670              0.0669570              0.3102630
      0.3412870              1.0545100              0.7544830
SP   1   1.00
      0.1171670              1.0000000              1.0000000
D    1   1.00
      1.3000000              1.0000000
D    1   1.00
      0.3250000              1.0000000
F    1   1.00
      0.5500000              1.0000000
****
Cl     0
S    6   1.00
  25180.1000000              0.0018330
   3780.3500000              0.0140340
    860.4740000              0.0690970
    242.1450000              0.2374520
     77.3349000              0.4830340
     26.2470000              0.3398560
SP   6   1.00
    491.7650000             -0.0022974              0.0039894
    116.9840000             -0.0307140              0.0303180
     37.4153000             -0.1125280              0.1298800
     13.7834000              0.0450160              0.3279510
      5.4521500              0.5893530              0.4535270
      2.2258800              0.4652060              0.2521540
SP   3   1.00
      3.1864900             -0.2518300             -0.0142990
      1.1442700              0.0615890              0.3235720
      0.4203770              1.0601800              0.7435070
SP   1   1.00
      0.1426570              1.0000000              1.0000000
D    1   1.00
      1.5000000              1.0000000
D    1   1.00
      0.3750000              1.0000000
F    1   1.00
      0.7000000              1.0000000
****
}


set {
reference rhf                          
freeze_core true
e_convergence 10                       
d_convergence 10                      
dft_spherical_points 1202
dft_radial_points 99
}

e = energy('b3lyp')

print_out('Grab this energy {0}'.format(e))
--------------------------------------------------------------------------

  Memory set to  13.039 GiB by Python driver.

Scratch directory: /tmp/

*** tstart() called on n091
*** at Fri Nov 12 10:26:47 2021

   => Loading Basis Set <=

    Name: ANONYMOUSA060A70A
    Role: ORBITAL
    Keyword: BASIS
    atoms 1-3 entry C          line    48 inputblock 6-31g_2dfp_ 
    atoms 4   entry N          line    69 inputblock 6-31g_2dfp_ 
    atoms 5-7 entry H          line    15 inputblock 6-31g_2dfp_ 


         ---------------------------------------------------------
                                   SCF
               by Justin Turney, Rob Parrish, Andy Simmonett
                          and Daniel G. A. Smith
                              RKS Reference
                        4 Threads,  13351 MiB Core
         ---------------------------------------------------------

  ==> Geometry <==

    Molecular point group: c1
    Full point group: C1

    Geometry (in Bohr), charge = 0, multiplicity = 1:

       Center              X                  Y                   Z               Mass       
    ------------   -----------------  -----------------  -----------------  -----------------
         C           -3.193595720192     0.724213570175     0.000030085011    12.000000000000
         C           -1.302249700492    -0.964164882925    -0.008443708989    12.000000000000
         C            1.310747501608    -0.213386730125    -0.001977106589    12.000000000000
         N            3.421793861508     0.399606854075     0.009544852611    14.003074004430
         H           -5.135446831292     0.097746003575     0.017736076811     1.007825032230
         H           -2.819742211192     2.731734681875    -0.016323342489     1.007825032230
         H           -1.663998149392    -2.983939873125    -0.010311610989     1.007825032230

  Running in c1 symmetry.

  Rotational constants: A =      1.63864  B =      0.16507  C =      0.14996 [cm^-1]
  Rotational constants: A =  49125.07358  B =   4948.58678  C =   4495.74798 [MHz]
  Nuclear repulsion =   89.837492716747605

  Charge       = 0
  Multiplicity = 1
  Electrons    = 28
  Nalpha       = 14
  Nbeta        = 14

  ==> Algorithm <==

  SCF Algorithm Type is DF.
  DIIS enabled.
  MOM disabled.
  Fractional occupation disabled.
  Guess Type is SAD.
  Energy threshold   = 1.00e-10
  Density threshold  = 1.00e-10
  Integral threshold = 0.00e+00

  ==> Primary Basis <==

  Basis Set: ANONYMOUSA060A70A
    Blend: 6-31G_2DFP_
    Number of shells: 44
    Number of basis function: 128
    Number of Cartesian functions: 148
    Spherical Harmonics?: true
    Max angular momentum: 3

  ==> DFT Potential <==

   => Composite Functional: B3LYP <= 

    B3LYP Hyb-GGA Exchange-Correlation Functional

    P. J. Stephens, F. J. Devlin, C. F. Chabalowski, and M. J. Frisch, J. Phys. Chem. 98, 11623 (1994)

    Deriv               =              1
    GGA                 =           TRUE
    Meta                =          FALSE

    Exchange Hybrid     =           TRUE
    MP2 Hybrid          =          FALSE

   => Exchange Functionals <=

    0.0800   Slater exchange
    0.7200         Becke 88

   => Exact (HF) Exchange <=

    0.2000               HF 

   => Correlation Functionals <=

    0.1900   Vosko, Wilk & Nusair (VWN5_RPA)
    0.8100   Lee, Yang & Parr

   => Molecular Quadrature <=

    Radial Scheme          =       TREUTLER
    Pruning Scheme         =           NONE
    Nuclear Scheme         =       TREUTLER

    BS radius alpha        =              1
    Pruning alpha          =              1
    Radial Points          =             99
    Spherical Points       =           1202
    Total Points           =         782674
    Total Blocks           =           5475
    Max Points             =            256
    Max Functions          =            127
    Weights Tolerance      =       1.00E-15

   => Loading Basis Set <=

    Name: (ANONYMOUSA060A70A AUX)
    Role: JKFIT
    Keyword: DF_BASIS_SCF
    atoms 1-3 entry C          line   198 file /opt/psi/4/master/share/psi4/basis/def2-universal-jkfit.gbs 
    atoms 4   entry N          line   258 file /opt/psi/4/master/share/psi4/basis/def2-universal-jkfit.gbs 
    atoms 5-7 entry H          line    18 file /opt/psi/4/master/share/psi4/basis/def2-universal-jkfit.gbs 

  ==> Integral Setup <==

  DFHelper Memory: AOs need 0.047 GiB; user supplied 7.429 GiB. Using in-core AOs.

  ==> MemDFJK: Density-Fitted J/K Matrices <==

    J tasked:                   Yes
    K tasked:                   Yes
    wK tasked:                   No
    OpenMP threads:               4
    Memory [MiB]:              7607
    Algorithm:                 Core
    Schwarz Cutoff:           1E-12
    Mask sparsity (%):       1.5869
    Fitting Condition:        1E-10

   => Auxiliary Basis Set <=

  Basis Set: (ANONYMOUSA060A70A AUX)
    Blend: DEF2-UNIVERSAL-JKFIT
    Number of shells: 118
    Number of basis function: 356
    Number of Cartesian functions: 420
    Spherical Harmonics?: true
    Max angular momentum: 4

  Cached 100.0% of DFT collocation blocks in 2.350 [GiB].

  Minimum eigenvalue in the overlap matrix is 6.1763485037E-04.
  Reciprocal condition number of the overlap matrix is 1.2022828069E-04.
    Using symmetric orthogonalization.

  ==> Pre-Iterations <==

  SCF Guess: Superposition of Atomic Densities via on-the-fly atomic UHF (no occupation information).

   -------------------------
    Irrep   Nso     Nmo    
   -------------------------
     A        128     128 
   -------------------------
    Total     128     128
   -------------------------

  ==> Iterations <==

                           Total Energy        Delta E     RMS |[F,P]|

   @DF-RKS iter SAD:  -170.09806942877444   -1.70098e+02   0.00000e+00 
   @DF-RKS iter   1:  -170.62356901071522   -5.25500e-01   5.09485e-03 DIIS
   @DF-RKS iter   2:  -170.46607723104324    1.57492e-01   6.75800e-03 DIIS
   @DF-RKS iter   3:  -170.77431360496914   -3.08236e-01   2.90508e-03 DIIS
   @DF-RKS iter   4:  -170.83970844663421   -6.53948e-02   2.02135e-04 DIIS
   @DF-RKS iter   5:  -170.83994861048239   -2.40164e-04   1.10562e-04 DIIS
   @DF-RKS iter   6:  -170.84004807318996   -9.94627e-05   3.21845e-05 DIIS
   @DF-RKS iter   7:  -170.84005665031907   -8.57713e-06   1.28558e-05 DIIS
   @DF-RKS iter   8:  -170.84005796519864   -1.31488e-06   2.31571e-06 DIIS
   @DF-RKS iter   9:  -170.84005800543756   -4.02389e-08   4.38153e-07 DIIS
   @DF-RKS iter  10:  -170.84005800690014   -1.46258e-09   6.09428e-08 DIIS
   @DF-RKS iter  11:  -170.84005800692580   -2.56648e-11   1.26427e-08 DIIS
   @DF-RKS iter  12:  -170.84005800692699   -1.19371e-12   1.26938e-09 DIIS
   @DF-RKS iter  13:  -170.84005800692694    5.68434e-14   2.27509e-10 DIIS
   @DF-RKS iter  14:  -170.84005800692691    2.84217e-14   4.23251e-11 DIIS
  Energy and wave function converged.


  ==> Post-Iterations <==

    Orbital Energies [Eh]
    ---------------------

    Doubly Occupied:                                                      

       1A    -14.340308     2A    -10.241988     3A    -10.227146  
       4A    -10.224336     5A     -0.905455     6A     -0.815086  
       7A     -0.656610     8A     -0.538109     9A     -0.479753  
      10A     -0.418159    11A     -0.378017    12A     -0.362444  
      13A     -0.334853    14A     -0.289916  

    Virtual:                                                              

      15A     -0.058085    16A      0.024644    17A      0.103681  
      18A      0.106594    19A      0.108071    20A      0.134153  
      21A      0.226429    22A      0.281050    23A      0.306402  
      24A      0.394562    25A      0.440492    26A      0.447842  
      27A      0.464604    28A      0.477981    29A      0.507612  
      30A      0.540595    31A      0.568599    32A      0.582884  
      33A      0.602951    34A      0.607041    35A      0.627387  
      36A      0.635914    37A      0.648821    38A      0.693675  
      39A      0.701310    40A      0.763514    41A      0.770740  
      42A      0.786066    43A      0.795171    44A      0.857777  
      45A      0.948767    46A      0.979786    47A      0.990995  
      48A      1.002842    49A      1.046299    50A      1.095457  
      51A      1.115538    52A      1.118519    53A      1.187032  
      54A      1.234223    55A      1.289397    56A      1.320524  
      57A      1.333974    58A      1.338620    59A      1.433063  
      60A      1.449506    61A      1.517135    62A      1.559933  
      63A      1.647083    64A      1.754080    65A      1.771022  
      66A      1.828863    67A      2.052170    68A      2.132711  
      69A      2.239092    70A      2.409087    71A      2.578266  
      72A      2.622721    73A      2.689102    74A      2.747618  
      75A      2.762146    76A      2.779428    77A      2.845130  
      78A      2.870634    79A      2.908451    80A      2.911524  
      81A      2.956200    82A      2.958813    83A      3.047118  
      84A      3.072464    85A      3.119752    86A      3.142369  
      87A      3.168638    88A      3.184996    89A      3.189010  
      90A      3.242435    91A      3.261496    92A      3.318837  
      93A      3.321597    94A      3.407616    95A      3.460473  
      96A      3.478092    97A      3.586759    98A      3.663495  
      99A      3.664378   100A      3.694145   101A      3.711053  
     102A      3.839788   103A      3.845621   104A      3.878958  
     105A      4.032814   106A      4.035424   107A      4.110539  
     108A      4.182735   109A      4.232339   110A      4.277729  
     111A      4.387294   112A      4.415671   113A      4.502186  
     114A      4.583907   115A      4.641577   116A      4.674321  
     117A      4.757950   118A      4.778888   119A      4.820818  
     120A      4.842383   121A      4.930244   122A      5.148423  
     123A      5.211077   124A      5.398641   125A      5.488729  
     126A      5.493211   127A      5.654741   128A      6.087443  

    Final Occupation by Irrep:
              A 
    DOCC [    14 ]

  @DF-RKS Final Energy:  -170.84005800692691

   => Energetics <=

    Nuclear Repulsion Energy =             89.8374927167476045
    One-Electron Energy =                -406.8375734029945079
    Two-Electron Energy =                 165.7476627114219809
    DFT Exchange-Correlation Energy =     -19.5876400321019695
    Empirical Dispersion Energy =           0.0000000000000000
    VV10 Nonlocal Energy =                  0.0000000000000000
    Total Energy =                       -170.8400580069269097

Computation Completed


Properties will be evaluated at   0.000000,   0.000000,   0.000000 [a0]

Properties computed using the SCF density matrix

  Nuclear Dipole Moment: [e a0]
     X:    -4.7772      Y:    -0.0772      Z:    -0.0044

  Electronic Dipole Moment: [e a0]
     X:     3.2785      Y:    -0.1948      Z:    -0.0002

  Dipole Moment: [e a0]
     X:    -1.4987      Y:    -0.2721      Z:    -0.0047     Total:     1.5232

  Dipole Moment: [D]
     X:    -3.8093      Y:    -0.6916      Z:    -0.0119     Total:     3.8715


*** tstop() called on n091 at Fri Nov 12 10:26:58 2021
Module time:
	user time   =      43.73 seconds =       0.73 minutes
	system time =       0.63 seconds =       0.01 minutes
	total time  =         11 seconds =       0.18 minutes
Total time:
	user time   =      43.73 seconds =       0.73 minutes
	system time =       0.63 seconds =       0.01 minutes
	total time  =         11 seconds =       0.18 minutes
Grab this energy -170.8400580069269
    Psi4 stopped on: Friday, 12 November 2021 10:26AM
    Psi4 wall time for execution: 0:00:11.43

*** Psi4 exiting successfully. Buy a developer a beer!
