
    -----------------------------------------------------------------------
          Psi4: An Open-Source Ab Initio Electronic Structure Package
                               Psi4 1.4a2.dev629 

                         Git: Rev {master} 2938fc2 dirty


    D. G. A. Smith, L. A. Burns, A. C. Simmonett, R. M. Parrish,
    M. C. Schieber, R. Galvelis, P. Kraus, H. Kruse, R. Di Remigio,
    A. Alenaizan, A. M. James, S. Lehtola, J. P. Misiewicz, M. Scheurer,
    R. A. Shaw, J. B. Schriber, Y. Xie, Z. L. Glick, D. A. Sirianni,
    J. S. O'Brien, J. M. Waldrop, A. Kumar, E. G. Hohenstein,
    B. P. Pritchard, B. R. Brooks, H. F. Schaefer III, A. Yu. Sokolov,
    K. Patkowski, A. E. DePrince III, U. Bozkaya, R. A. King,
    F. A. Evangelista, J. M. Turney, T. D. Crawford, C. D. Sherrill,
    J. Chem. Phys. 152(18) 184108 (2020). https://doi.org/10.1063/5.0006002

                            Additional Code Authors
    E. T. Seidl, C. L. Janssen, E. F. Valeev, M. L. Leininger,
    J. F. Gonthier, R. M. Richard, H. R. McAlexander, M. Saitow, X. Wang,
    P. Verma, and M. H. Lechner

             Previous Authors, Complete List of Code Contributors,
                       and Citations for Specific Modules
    https://github.com/psi4/psi4/blob/master/codemeta.json
    https://github.com/psi4/psi4/graphs/contributors
    http://psicode.org/psi4manual/master/introduction.html#citing-psifour

    -----------------------------------------------------------------------


    Psi4 started on: Friday, 12 November 2021 10:23AM

    Process ID: 4062
    Host:       n051
    PSIDATADIR: /opt/psi/4/master/share/psi4
    Memory:     500.0 MiB
    Threads:    4
    
  ==> Input File <==

--------------------------------------------------------------------------
import os
memory 14 GB 
 
molecule {
 C   -3.1946935930    0.7175660368   -0.0000000000
 C   -1.3009091981   -0.9661785483   -0.0000000000
 X    1.5864055600   -1.1719353700    0.0000000000
 C    1.3090615791   -0.2108795918   -0.0000000000
 X    1.3084471000   -0.2113422700    1.0000000000
 N    3.4219263144    0.4001586335   -0.0000000000
 H   -5.1357710085    0.1009482743   -0.0000000000
 H   -2.8204028712    2.7370903984    0.0000000000
 H   -1.6652289826   -2.9797207829    0.0000000000
units bohr
}

basis {

assign 6-31g_2dfp_

[ 6-31g_2dfp_ ]

spherical

!----------------------------------------------------------------------
! Basis Set Exchange
! Version v0.8.13
! https://www.basissetexchange.org
!----------------------------------------------------------------------
!   Basis set: 6-31G(2df,p)
! Description: 6-31G(2df,p)
!        Role: orbital
!     Version: 0  (Data from the original Basis Set Exchange)
!----------------------------------------------------------------------


****
H     0
S    3   1.00
     18.7311370              0.03349460
      2.8253937              0.23472695
      0.6401217              0.81375733
S    1   1.00
      0.1612778              1.00000000
P    1   1.00
      1.5000000              1.0000000
P    1   1.00
      0.3750000              1.0000000
****
B     0
S    6   1.00
   2068.8823000              0.0018663
    310.6495700              0.0142515
     70.6830330              0.0695516
     19.8610800              0.2325729
      6.2993048              0.4670787
      2.1270270              0.3634314
SP   3   1.00
      4.7279710             -0.1303938              0.0745976
      1.1903377             -0.1307889              0.3078467
      0.3594117              1.1309444              0.7434568
SP   1   1.00
      0.1267512              1.0000000              1.0000000
D    1   1.00
      0.8020000              1.0000000
D    1   1.00
      0.2005000              1.0000000
F    1   1.00
      0.5000000              1.0000000
****
C     0
S    6   1.00
   3047.5249000              0.0018347
    457.3695100              0.0140373
    103.9486900              0.0688426
     29.2101550              0.2321844
      9.2866630              0.4679413
      3.1639270              0.3623120
SP   3   1.00
      7.8682724             -0.1193324              0.0689991
      1.8812885             -0.1608542              0.3164240
      0.5442493              1.1434564              0.7443083
SP   1   1.00
      0.1687144              1.0000000              1.0000000
D    1   1.00
      1.2520000              1.0000000
D    1   1.00
      0.3130000              1.0000000
F    1   1.00
      0.8000000              1.0000000
****
N     0
S    6   1.00
   4173.5110000              0.0018348
    627.4579000              0.0139950
    142.9021000              0.0685870
     40.2343300              0.2322410
     12.8202100              0.4690700
      4.3904370              0.3604550
SP   3   1.00
     11.6263580             -0.1149610              0.0675800
      2.7162800             -0.1691180              0.3239070
      0.7722180              1.1458520              0.7408950
SP   1   1.00
      0.2120313              1.0000000              1.0000000
D    1   1.00
      1.8260000              1.0000000
D    1   1.00
      0.4565000              1.0000000
F    1   1.00
      1.0000000              1.0000000
****
O     0
S    6   1.00
   5484.6717000              0.0018311
    825.2349500              0.0139501
    188.0469600              0.0684451
     52.9645000              0.2327143
     16.8975700              0.4701930
      5.7996353              0.3585209
SP   3   1.00
     15.5396160             -0.1107775              0.0708743
      3.5999336             -0.1480263              0.3397528
      1.0137618              1.1307670              0.7271586
SP   1   1.00
      0.2700058              1.0000000              1.0000000
D    1   1.00
      2.5840000              1.0000000
D    1   1.00
      0.6460000              1.0000000
F    1   1.00
      1.4000000              1.0000000
****
F     0
S    6   1.00
   7001.7130900              0.0018196169
   1051.3660900              0.0139160796
    239.2856900              0.0684053245
     67.3974453              0.233185760
     21.5199573              0.471267439
      7.40310130             0.356618546
SP   3   1.00
     20.8479528             -0.108506975            0.0716287243
      4.80830834            -0.146451658            0.3459121030
      1.34406986             1.128688580            0.7224699570
SP   1   1.00
      0.358151393            1.0000000              1.0000000
D    1   1.00
      3.5000000              1.0000000
D    1   1.00
      0.8750000              1.0000000
F    1   1.00
      1.8500000              1.0000000
****
Al     0
S    6   1.00
  13983.1000000              0.00194267
   2098.7500000              0.0148599
    477.7050000              0.0728494
    134.3600000              0.2468300
     42.8709000              0.4872580
     14.5189000              0.3234960
SP   6   1.00
    239.6680000             -0.00292619             0.00460285
     57.4419000             -0.0374080              0.0331990
     18.2859000             -0.1144870              0.1362820
      6.5991400              0.1156350              0.3304760
      2.4904900              0.6125950              0.4491460
      0.9445400              0.3937990              0.2657040
SP   3   1.00
      1.2779000             -0.2276060             -0.0175130
      0.3975900              0.00144583             0.2445330
      0.1600950              1.0927900              0.8049340
SP   1   1.00
      0.0556577              1.0000000              1.0000000
D    1   1.00
      0.6500000              1.0000000
D    1   1.00
      0.1625000              1.0000000
F    1   1.00
      0.2500000              1.0000000
****
Si     0
S    6   1.00
  16115.9000000              0.00195948
   2425.5800000              0.01492880
    553.8670000              0.07284780
    156.3400000              0.24613000
     50.0683000              0.48591400
     17.0178000              0.32500200
SP   6   1.00
    292.7180000             -0.00278094             0.00443826
     69.8731000             -0.03571460             0.03266790
     22.3363000             -0.11498500             0.13472100
      8.1503900              0.09356340             0.32867800
      3.1345800              0.60301700             0.44964000
      1.2254300              0.41895900             0.26137200
SP   3   1.00
      1.7273800             -0.24463000            -0.01779510
      0.5729220              0.00431572             0.25353900
      0.2221920              1.09818000             0.80066900
SP   1   1.00
      0.0778369              1.00000000             1.00000000
D    1   1.00
      0.9000000              1.0000000
D    1   1.00
      0.2250000              1.0000000
F    1   1.00
      0.3200000              1.0000000
****
P     0
S    6   1.00
  19413.3000000              0.0018516
   2909.4200000              0.0142062
    661.3640000              0.0699995
    185.7590000              0.2400790
     59.1943000              0.4847620
     20.0310000              0.3352000
SP   6   1.00
    339.4780000             -0.00278217             0.00456462
     81.0101000             -0.0360499              0.03369360
     25.8780000             -0.1166310              0.13975500
      9.4522100              0.0968328              0.33936200
      3.6656600              0.6144180              0.45092100
      1.4674600              0.4037980              0.23858600
SP   3   1.00
      2.1562300             -0.2529230             -0.01776530
      0.7489970              0.0328517              0.27405800
      0.2831450              1.0812500              0.78542100
SP   1   1.00
      0.0998317              1.0000000              1.00000000
D    1   1.00
      1.1000000              1.0000000
D    1   1.00
      0.2750000              1.0000000
F    1   1.00
      0.4500000              1.0000000
****
S     0
S    6   1.00
  21917.1000000              0.0018690
   3301.4900000              0.0142300
    754.1460000              0.0696960
    212.7110000              0.2384870
     67.9896000              0.4833070
     23.0515000              0.3380740
SP   6   1.00
    423.7350000             -0.0023767              0.0040610
    100.7100000             -0.0316930              0.0306810
     32.1599000             -0.1133170              0.1304520
     11.8079000              0.0560900              0.3272050
      4.6311000              0.5922550              0.4528510
      1.8702500              0.4550060              0.2560420
SP   3   1.00
      2.6158400             -0.2503740             -0.0145110
      0.9221670              0.0669570              0.3102630
      0.3412870              1.0545100              0.7544830
SP   1   1.00
      0.1171670              1.0000000              1.0000000
D    1   1.00
      1.3000000              1.0000000
D    1   1.00
      0.3250000              1.0000000
F    1   1.00
      0.5500000              1.0000000
****
Cl     0
S    6   1.00
  25180.1000000              0.0018330
   3780.3500000              0.0140340
    860.4740000              0.0690970
    242.1450000              0.2374520
     77.3349000              0.4830340
     26.2470000              0.3398560
SP   6   1.00
    491.7650000             -0.0022974              0.0039894
    116.9840000             -0.0307140              0.0303180
     37.4153000             -0.1125280              0.1298800
     13.7834000              0.0450160              0.3279510
      5.4521500              0.5893530              0.4535270
      2.2258800              0.4652060              0.2521540
SP   3   1.00
      3.1864900             -0.2518300             -0.0142990
      1.1442700              0.0615890              0.3235720
      0.4203770              1.0601800              0.7435070
SP   1   1.00
      0.1426570              1.0000000              1.0000000
D    1   1.00
      1.5000000              1.0000000
D    1   1.00
      0.3750000              1.0000000
F    1   1.00
      0.7000000              1.0000000
****
}


set {
reference rhf                          
freeze_core true
e_convergence 10                       
d_convergence 10                      
dft_spherical_points 1202
dft_radial_points 99
}

e = energy('b3lyp')

print_out('Grab this energy {0}'.format(e))
--------------------------------------------------------------------------

  Memory set to  13.039 GiB by Python driver.

Scratch directory: /tmp/

*** tstart() called on n051
*** at Fri Nov 12 10:23:47 2021

   => Loading Basis Set <=

    Name: ANONYMOUS516D8FAF
    Role: ORBITAL
    Keyword: BASIS
    atoms 1-3 entry C          line    48 inputblock 6-31g_2dfp_ 
    atoms 4   entry N          line    69 inputblock 6-31g_2dfp_ 
    atoms 5-7 entry H          line    15 inputblock 6-31g_2dfp_ 


         ---------------------------------------------------------
                                   SCF
               by Justin Turney, Rob Parrish, Andy Simmonett
                          and Daniel G. A. Smith
                              RKS Reference
                        4 Threads,  13351 MiB Core
         ---------------------------------------------------------

  ==> Geometry <==

    Molecular point group: cs
    Full point group: Cs

    Geometry (in Bohr), charge = 0, multiplicity = 1:

       Center              X                  Y                   Z               Mass       
    ------------   -----------------  -----------------  -----------------  -----------------
         C           -3.194359839892     0.718570157554     0.000000000000    12.000000000000
         C           -1.300575444992    -0.965174427546     0.000000000000    12.000000000000
         C            1.309395332208    -0.209875471046     0.000000000000    12.000000000000
         N            3.422260067508     0.401162754254     0.000000000000    14.003074004430
         H           -5.135437255392     0.101952395054     0.000000000000     1.007825032230
         H           -2.820069118092     2.738094519154     0.000000000000     1.007825032230
         H           -1.664895229492    -2.978716662146     0.000000000000     1.007825032230

  Running in cs symmetry.

  Rotational constants: A =      1.64187  B =      0.16506  C =      0.14998 [cm^-1]
  Rotational constants: A =  49221.91984  B =   4948.43904  C =   4496.40126 [MHz]
  Nuclear repulsion =   89.843524827383192

  Charge       = 0
  Multiplicity = 1
  Electrons    = 28
  Nalpha       = 14
  Nbeta        = 14

  ==> Algorithm <==

  SCF Algorithm Type is DF.
  DIIS enabled.
  MOM disabled.
  Fractional occupation disabled.
  Guess Type is SAD.
  Energy threshold   = 1.00e-10
  Density threshold  = 1.00e-10
  Integral threshold = 0.00e+00

  ==> Primary Basis <==

  Basis Set: ANONYMOUS516D8FAF
    Blend: 6-31G_2DFP_
    Number of shells: 44
    Number of basis function: 128
    Number of Cartesian functions: 148
    Spherical Harmonics?: true
    Max angular momentum: 3

  ==> DFT Potential <==

   => Composite Functional: B3LYP <= 

    B3LYP Hyb-GGA Exchange-Correlation Functional

    P. J. Stephens, F. J. Devlin, C. F. Chabalowski, and M. J. Frisch, J. Phys. Chem. 98, 11623 (1994)

    Deriv               =              1
    GGA                 =           TRUE
    Meta                =          FALSE

    Exchange Hybrid     =           TRUE
    MP2 Hybrid          =          FALSE

   => Exchange Functionals <=

    0.0800   Slater exchange
    0.7200         Becke 88

   => Exact (HF) Exchange <=

    0.2000               HF 

   => Correlation Functionals <=

    0.1900   Vosko, Wilk & Nusair (VWN5_RPA)
    0.8100   Lee, Yang & Parr

   => Molecular Quadrature <=

    Radial Scheme          =       TREUTLER
    Pruning Scheme         =           NONE
    Nuclear Scheme         =       TREUTLER

    BS radius alpha        =              1
    Pruning alpha          =              1
    Radial Points          =             99
    Spherical Points       =           1202
    Total Points           =         782702
    Total Blocks           =           5480
    Max Points             =            256
    Max Functions          =            127
    Weights Tolerance      =       1.00E-15

   => Loading Basis Set <=

    Name: (ANONYMOUS516D8FAF AUX)
    Role: JKFIT
    Keyword: DF_BASIS_SCF
    atoms 1-3 entry C          line   198 file /opt/psi/4/master/share/psi4/basis/def2-universal-jkfit.gbs 
    atoms 4   entry N          line   258 file /opt/psi/4/master/share/psi4/basis/def2-universal-jkfit.gbs 
    atoms 5-7 entry H          line    18 file /opt/psi/4/master/share/psi4/basis/def2-universal-jkfit.gbs 

  ==> Integral Setup <==

  DFHelper Memory: AOs need 0.047 GiB; user supplied 7.428 GiB. Using in-core AOs.

  ==> MemDFJK: Density-Fitted J/K Matrices <==

    J tasked:                   Yes
    K tasked:                   Yes
    wK tasked:                   No
    OpenMP threads:               4
    Memory [MiB]:              7606
    Algorithm:                 Core
    Schwarz Cutoff:           1E-12
    Mask sparsity (%):       1.5869
    Fitting Condition:        1E-10

   => Auxiliary Basis Set <=

  Basis Set: (ANONYMOUS516D8FAF AUX)
    Blend: DEF2-UNIVERSAL-JKFIT
    Number of shells: 118
    Number of basis function: 356
    Number of Cartesian functions: 420
    Spherical Harmonics?: true
    Max angular momentum: 4

  Cached 100.0% of DFT collocation blocks in 2.350 [GiB].

  Minimum eigenvalue in the overlap matrix is 6.1298044652E-04.
  Reciprocal condition number of the overlap matrix is 1.1930836625E-04.
    Using symmetric orthogonalization.

  ==> Pre-Iterations <==

  SCF Guess: Superposition of Atomic Densities via on-the-fly atomic UHF (no occupation information).

   -------------------------
    Irrep   Nso     Nmo    
   -------------------------
     A'        86      86 
     A"        42      42 
   -------------------------
    Total     128     128
   -------------------------

  ==> Iterations <==

                           Total Energy        Delta E     RMS |[F,P]|

   @DF-RKS iter SAD:  -170.09858283565097   -1.70099e+02   0.00000e+00 
   @DF-RKS iter   1:  -170.62378022416709   -5.25197e-01   6.80904e-03 DIIS
   @DF-RKS iter   2:  -170.46702105032807    1.56759e-01   9.02512e-03 DIIS
   @DF-RKS iter   3:  -170.77416059250854   -3.07140e-01   3.89011e-03 DIIS
   @DF-RKS iter   4:  -170.83971880429732   -6.55582e-02   2.70400e-04 DIIS
   @DF-RKS iter   5:  -170.83996044013875   -2.41636e-04   1.46951e-04 DIIS
   @DF-RKS iter   6:  -170.84005891902260   -9.84789e-05   4.09360e-05 DIIS
   @DF-RKS iter   7:  -170.84006655078986   -7.63177e-06   1.73979e-05 DIIS
   @DF-RKS iter   8:  -170.84006790199962   -1.35121e-06   3.08676e-06 DIIS
   @DF-RKS iter   9:  -170.84006794209361   -4.00940e-08   5.82891e-07 DIIS
   @DF-RKS iter  10:  -170.84006794354582   -1.45221e-09   8.10443e-08 DIIS
   @DF-RKS iter  11:  -170.84006794357111   -2.52953e-11   1.68153e-08 DIIS
   @DF-RKS iter  12:  -170.84006794357222   -1.10845e-12   1.68721e-09 DIIS
   @DF-RKS iter  13:  -170.84006794357222    0.00000e+00   3.03389e-10 DIIS
   @DF-RKS iter  14:  -170.84006794357254   -3.12639e-13   5.67106e-11 DIIS
  Energy and wave function converged.


  ==> Post-Iterations <==

    Orbital Energies [Eh]
    ---------------------

    Doubly Occupied:                                                      

       1Ap   -14.340503     2Ap   -10.241612     3Ap   -10.227326  
       4Ap   -10.224600     5Ap    -0.905309     6Ap    -0.815282  
       7Ap    -0.656555     8Ap    -0.538277     9Ap    -0.480294  
      10Ap    -0.417442     1App   -0.378094    11Ap    -0.362546  
      12Ap    -0.334784     2App   -0.289929  

    Virtual:                                                              

       3App   -0.058067    13Ap     0.024464    14Ap     0.104148  
       4App    0.106696    15Ap     0.107119    16Ap     0.134158  
      17Ap     0.226640    18Ap     0.281424    19Ap     0.306641  
      20Ap     0.394621     5App    0.440629    21Ap     0.448073  
      22Ap     0.464474     6App    0.477694    23Ap     0.507311  
       7App    0.540609    24Ap     0.568907     8App    0.583189  
       9App    0.602846    25Ap     0.606667    26Ap     0.628127  
      27Ap     0.635861    28Ap     0.648280    29Ap     0.693493  
      10App    0.701400    11App    0.763333    30Ap     0.770756  
      31Ap     0.786539    12App    0.794900    32Ap     0.857860  
      33Ap     0.949320    13App    0.979687    34Ap     0.990823  
      14App    1.004021    35Ap     1.047573    36Ap     1.094935  
      37Ap     1.115653    15App    1.118269    16App    1.186043  
      38Ap     1.234103    39Ap     1.288180    40Ap     1.320711  
      41Ap     1.334047    17App    1.338899    18App    1.433096  
      42Ap     1.448885    43Ap     1.518889    44Ap     1.560575  
      45Ap     1.644149    46Ap     1.754233    19App    1.770816  
      47Ap     1.830118    48Ap     2.052702    49Ap     2.133342  
      50Ap     2.238123    51Ap     2.410714    20App    2.578827  
      52Ap     2.621966    21App    2.689100    22App    2.747388  
      53Ap     2.761752    54Ap     2.780456    55Ap     2.844755  
      23App    2.871662    56Ap     2.908956    24App    2.911169  
      57Ap     2.955722    25App    2.956107    58Ap     3.048276  
      26App    3.072796    27App    3.118883    59Ap     3.143559  
      60Ap     3.167645    28App    3.183303    61Ap     3.188892  
      29App    3.243339    62Ap     3.261514    63Ap     3.317857  
      30App    3.321350    64Ap     3.408482    65Ap     3.460933  
      66Ap     3.478149    31App    3.586935    67Ap     3.663895  
      32App    3.664235    33App    3.694509    68Ap     3.712349  
      34App    3.840223    69Ap     3.846346    70Ap     3.879948  
      35App    4.033567    71Ap     4.035826    36App    4.112029  
      72Ap     4.182242    37App    4.230027    38App    4.275537  
      73Ap     4.385830    74Ap     4.415786    75Ap     4.503387  
      39App    4.587432    76Ap     4.644273    77Ap     4.673793  
      40App    4.757867    78Ap     4.778799    41App    4.820718  
      79Ap     4.841918    80Ap     4.929041    81Ap     5.150939  
      82Ap     5.208159    83Ap     5.397714    42App    5.491124  
      84Ap     5.492040    85Ap     5.654497    86Ap     6.087816  

    Final Occupation by Irrep:
             Ap   App 
    DOCC [    12,    2 ]

  @DF-RKS Final Energy:  -170.84006794357254

   => Energetics <=

    Nuclear Repulsion Energy =             89.8435248273831917
    One-Electron Energy =                -406.8490803295164255
    Two-Electron Energy =                 165.7528902615418076
    DFT Exchange-Correlation Energy =     -19.5874027029810946
    Empirical Dispersion Energy =           0.0000000000000000
    VV10 Nonlocal Energy =                  0.0000000000000000
    Total Energy =                       -170.8400679435725351

Computation Completed


Properties will be evaluated at   0.000000,   0.000000,   0.000000 [a0]

Properties computed using the SCF density matrix

  Nuclear Dipole Moment: [e a0]
     X:    -4.7778      Y:    -0.0694      Z:     0.0000

  Electronic Dipole Moment: [e a0]
     X:     3.2783      Y:    -0.2034      Z:     0.0000

  Dipole Moment: [e a0]
     X:    -1.4995      Y:    -0.2728      Z:     0.0000     Total:     1.5241

  Dipole Moment: [D]
     X:    -3.8114      Y:    -0.6934      Z:     0.0000     Total:     3.8740


*** tstop() called on n051 at Fri Nov 12 10:23:59 2021
Module time:
	user time   =      47.95 seconds =       0.80 minutes
	system time =       0.74 seconds =       0.01 minutes
	total time  =         12 seconds =       0.20 minutes
Total time:
	user time   =      47.95 seconds =       0.80 minutes
	system time =       0.74 seconds =       0.01 minutes
	total time  =         12 seconds =       0.20 minutes
Grab this energy -170.84006794357254
    Psi4 stopped on: Friday, 12 November 2021 10:23AM
    Psi4 wall time for execution: 0:00:12.59

*** Psi4 exiting successfully. Buy a developer a beer!
