
    -----------------------------------------------------------------------
          Psi4: An Open-Source Ab Initio Electronic Structure Package
                               Psi4 1.4a2.dev629 

                         Git: Rev {master} 2938fc2 dirty


    D. G. A. Smith, L. A. Burns, A. C. Simmonett, R. M. Parrish,
    M. C. Schieber, R. Galvelis, P. Kraus, H. Kruse, R. Di Remigio,
    A. Alenaizan, A. M. James, S. Lehtola, J. P. Misiewicz, M. Scheurer,
    R. A. Shaw, J. B. Schriber, Y. Xie, Z. L. Glick, D. A. Sirianni,
    J. S. O'Brien, J. M. Waldrop, A. Kumar, E. G. Hohenstein,
    B. P. Pritchard, B. R. Brooks, H. F. Schaefer III, A. Yu. Sokolov,
    K. Patkowski, A. E. DePrince III, U. Bozkaya, R. A. King,
    F. A. Evangelista, J. M. Turney, T. D. Crawford, C. D. Sherrill,
    J. Chem. Phys. 152(18) 184108 (2020). https://doi.org/10.1063/5.0006002

                            Additional Code Authors
    E. T. Seidl, C. L. Janssen, E. F. Valeev, M. L. Leininger,
    J. F. Gonthier, R. M. Richard, H. R. McAlexander, M. Saitow, X. Wang,
    P. Verma, and M. H. Lechner

             Previous Authors, Complete List of Code Contributors,
                       and Citations for Specific Modules
    https://github.com/psi4/psi4/blob/master/codemeta.json
    https://github.com/psi4/psi4/graphs/contributors
    http://psicode.org/psi4manual/master/introduction.html#citing-psifour

    -----------------------------------------------------------------------


    Psi4 started on: Friday, 12 November 2021 10:21AM

    Process ID: 23989
    Host:       n031
    PSIDATADIR: /opt/psi/4/master/share/psi4
    Memory:     500.0 MiB
    Threads:    4
    
  ==> Input File <==

--------------------------------------------------------------------------
import os
memory 14 GB 
 
molecule {
 C   -3.1903652113    0.7238146482   -0.0025082826
 C   -1.3021484449   -0.9650390692    0.0023787475
 X    1.5864055600   -1.1719353700    0.0000000000
 C    1.3025098102   -0.2103285523   -0.0004504198
 X    1.3084471000   -0.2113422700    1.0000000000
 N    3.4143593997    0.3948054950    0.0000781833
 H   -5.1351151862    0.0982863674    0.0009262344
 H   -2.8195701734    2.7352974395    0.0004604648
 H   -1.6556879541   -2.9778519086   -0.0008849276
units bohr
}

basis {

assign 6-31g_2dfp_

[ 6-31g_2dfp_ ]

spherical

!----------------------------------------------------------------------
! Basis Set Exchange
! Version v0.8.13
! https://www.basissetexchange.org
!----------------------------------------------------------------------
!   Basis set: 6-31G(2df,p)
! Description: 6-31G(2df,p)
!        Role: orbital
!     Version: 0  (Data from the original Basis Set Exchange)
!----------------------------------------------------------------------


****
H     0
S    3   1.00
     18.7311370              0.03349460
      2.8253937              0.23472695
      0.6401217              0.81375733
S    1   1.00
      0.1612778              1.00000000
P    1   1.00
      1.5000000              1.0000000
P    1   1.00
      0.3750000              1.0000000
****
B     0
S    6   1.00
   2068.8823000              0.0018663
    310.6495700              0.0142515
     70.6830330              0.0695516
     19.8610800              0.2325729
      6.2993048              0.4670787
      2.1270270              0.3634314
SP   3   1.00
      4.7279710             -0.1303938              0.0745976
      1.1903377             -0.1307889              0.3078467
      0.3594117              1.1309444              0.7434568
SP   1   1.00
      0.1267512              1.0000000              1.0000000
D    1   1.00
      0.8020000              1.0000000
D    1   1.00
      0.2005000              1.0000000
F    1   1.00
      0.5000000              1.0000000
****
C     0
S    6   1.00
   3047.5249000              0.0018347
    457.3695100              0.0140373
    103.9486900              0.0688426
     29.2101550              0.2321844
      9.2866630              0.4679413
      3.1639270              0.3623120
SP   3   1.00
      7.8682724             -0.1193324              0.0689991
      1.8812885             -0.1608542              0.3164240
      0.5442493              1.1434564              0.7443083
SP   1   1.00
      0.1687144              1.0000000              1.0000000
D    1   1.00
      1.2520000              1.0000000
D    1   1.00
      0.3130000              1.0000000
F    1   1.00
      0.8000000              1.0000000
****
N     0
S    6   1.00
   4173.5110000              0.0018348
    627.4579000              0.0139950
    142.9021000              0.0685870
     40.2343300              0.2322410
     12.8202100              0.4690700
      4.3904370              0.3604550
SP   3   1.00
     11.6263580             -0.1149610              0.0675800
      2.7162800             -0.1691180              0.3239070
      0.7722180              1.1458520              0.7408950
SP   1   1.00
      0.2120313              1.0000000              1.0000000
D    1   1.00
      1.8260000              1.0000000
D    1   1.00
      0.4565000              1.0000000
F    1   1.00
      1.0000000              1.0000000
****
O     0
S    6   1.00
   5484.6717000              0.0018311
    825.2349500              0.0139501
    188.0469600              0.0684451
     52.9645000              0.2327143
     16.8975700              0.4701930
      5.7996353              0.3585209
SP   3   1.00
     15.5396160             -0.1107775              0.0708743
      3.5999336             -0.1480263              0.3397528
      1.0137618              1.1307670              0.7271586
SP   1   1.00
      0.2700058              1.0000000              1.0000000
D    1   1.00
      2.5840000              1.0000000
D    1   1.00
      0.6460000              1.0000000
F    1   1.00
      1.4000000              1.0000000
****
F     0
S    6   1.00
   7001.7130900              0.0018196169
   1051.3660900              0.0139160796
    239.2856900              0.0684053245
     67.3974453              0.233185760
     21.5199573              0.471267439
      7.40310130             0.356618546
SP   3   1.00
     20.8479528             -0.108506975            0.0716287243
      4.80830834            -0.146451658            0.3459121030
      1.34406986             1.128688580            0.7224699570
SP   1   1.00
      0.358151393            1.0000000              1.0000000
D    1   1.00
      3.5000000              1.0000000
D    1   1.00
      0.8750000              1.0000000
F    1   1.00
      1.8500000              1.0000000
****
Al     0
S    6   1.00
  13983.1000000              0.00194267
   2098.7500000              0.0148599
    477.7050000              0.0728494
    134.3600000              0.2468300
     42.8709000              0.4872580
     14.5189000              0.3234960
SP   6   1.00
    239.6680000             -0.00292619             0.00460285
     57.4419000             -0.0374080              0.0331990
     18.2859000             -0.1144870              0.1362820
      6.5991400              0.1156350              0.3304760
      2.4904900              0.6125950              0.4491460
      0.9445400              0.3937990              0.2657040
SP   3   1.00
      1.2779000             -0.2276060             -0.0175130
      0.3975900              0.00144583             0.2445330
      0.1600950              1.0927900              0.8049340
SP   1   1.00
      0.0556577              1.0000000              1.0000000
D    1   1.00
      0.6500000              1.0000000
D    1   1.00
      0.1625000              1.0000000
F    1   1.00
      0.2500000              1.0000000
****
Si     0
S    6   1.00
  16115.9000000              0.00195948
   2425.5800000              0.01492880
    553.8670000              0.07284780
    156.3400000              0.24613000
     50.0683000              0.48591400
     17.0178000              0.32500200
SP   6   1.00
    292.7180000             -0.00278094             0.00443826
     69.8731000             -0.03571460             0.03266790
     22.3363000             -0.11498500             0.13472100
      8.1503900              0.09356340             0.32867800
      3.1345800              0.60301700             0.44964000
      1.2254300              0.41895900             0.26137200
SP   3   1.00
      1.7273800             -0.24463000            -0.01779510
      0.5729220              0.00431572             0.25353900
      0.2221920              1.09818000             0.80066900
SP   1   1.00
      0.0778369              1.00000000             1.00000000
D    1   1.00
      0.9000000              1.0000000
D    1   1.00
      0.2250000              1.0000000
F    1   1.00
      0.3200000              1.0000000
****
P     0
S    6   1.00
  19413.3000000              0.0018516
   2909.4200000              0.0142062
    661.3640000              0.0699995
    185.7590000              0.2400790
     59.1943000              0.4847620
     20.0310000              0.3352000
SP   6   1.00
    339.4780000             -0.00278217             0.00456462
     81.0101000             -0.0360499              0.03369360
     25.8780000             -0.1166310              0.13975500
      9.4522100              0.0968328              0.33936200
      3.6656600              0.6144180              0.45092100
      1.4674600              0.4037980              0.23858600
SP   3   1.00
      2.1562300             -0.2529230             -0.01776530
      0.7489970              0.0328517              0.27405800
      0.2831450              1.0812500              0.78542100
SP   1   1.00
      0.0998317              1.0000000              1.00000000
D    1   1.00
      1.1000000              1.0000000
D    1   1.00
      0.2750000              1.0000000
F    1   1.00
      0.4500000              1.0000000
****
S     0
S    6   1.00
  21917.1000000              0.0018690
   3301.4900000              0.0142300
    754.1460000              0.0696960
    212.7110000              0.2384870
     67.9896000              0.4833070
     23.0515000              0.3380740
SP   6   1.00
    423.7350000             -0.0023767              0.0040610
    100.7100000             -0.0316930              0.0306810
     32.1599000             -0.1133170              0.1304520
     11.8079000              0.0560900              0.3272050
      4.6311000              0.5922550              0.4528510
      1.8702500              0.4550060              0.2560420
SP   3   1.00
      2.6158400             -0.2503740             -0.0145110
      0.9221670              0.0669570              0.3102630
      0.3412870              1.0545100              0.7544830
SP   1   1.00
      0.1171670              1.0000000              1.0000000
D    1   1.00
      1.3000000              1.0000000
D    1   1.00
      0.3250000              1.0000000
F    1   1.00
      0.5500000              1.0000000
****
Cl     0
S    6   1.00
  25180.1000000              0.0018330
   3780.3500000              0.0140340
    860.4740000              0.0690970
    242.1450000              0.2374520
     77.3349000              0.4830340
     26.2470000              0.3398560
SP   6   1.00
    491.7650000             -0.0022974              0.0039894
    116.9840000             -0.0307140              0.0303180
     37.4153000             -0.1125280              0.1298800
     13.7834000              0.0450160              0.3279510
      5.4521500              0.5893530              0.4535270
      2.2258800              0.4652060              0.2521540
SP   3   1.00
      3.1864900             -0.2518300             -0.0142990
      1.1442700              0.0615890              0.3235720
      0.4203770              1.0601800              0.7435070
SP   1   1.00
      0.1426570              1.0000000              1.0000000
D    1   1.00
      1.5000000              1.0000000
D    1   1.00
      0.3750000              1.0000000
F    1   1.00
      0.7000000              1.0000000
****
}


set {
reference rhf                          
freeze_core true
e_convergence 10                       
d_convergence 10                      
dft_spherical_points 1202
dft_radial_points 99
}

e = energy('b3lyp')

print_out('Grab this energy {0}'.format(e))
--------------------------------------------------------------------------

  Memory set to  13.039 GiB by Python driver.

Scratch directory: /tmp/

*** tstart() called on n031
*** at Fri Nov 12 10:21:48 2021

   => Loading Basis Set <=

    Name: ANONYMOUSC3F27772
    Role: ORBITAL
    Keyword: BASIS
    atoms 1-3 entry C          line    48 inputblock 6-31g_2dfp_ 
    atoms 4   entry N          line    69 inputblock 6-31g_2dfp_ 
    atoms 5-7 entry H          line    15 inputblock 6-31g_2dfp_ 


         ---------------------------------------------------------
                                   SCF
               by Justin Turney, Rob Parrish, Andy Simmonett
                          and Daniel G. A. Smith
                              RKS Reference
                        4 Threads,  13351 MiB Core
         ---------------------------------------------------------

  ==> Geometry <==

    Molecular point group: c1
    Full point group: C1

    Geometry (in Bohr), charge = 0, multiplicity = 1:

       Center              X                  Y                   Z               Mass       
    ------------   -----------------  -----------------  -----------------  -----------------
         C           -3.187459240659     0.724484918482    -0.002407220879    12.000000000000
         C           -1.299242474259    -0.964368798918     0.002479809221    12.000000000000
         C            1.305415780841    -0.209658282018    -0.000349358079    12.000000000000
         N            3.417265370341     0.395475765282     0.000179245021    14.003074004430
         H           -5.132209215559     0.098956637682     0.001027296121     1.007825032230
         H           -2.816664202759     2.735967709782     0.000561526521     1.007825032230
         H           -1.652781983459    -2.977181638318    -0.000783865879     1.007825032230

  Running in c1 symmetry.

  Rotational constants: A =      1.64198  B =      0.16564  C =      0.15046 [cm^-1]
  Rotational constants: A =  49225.28793  B =   4965.67759  C =   4510.65993 [MHz]
  Nuclear repulsion =   89.956498319700174

  Charge       = 0
  Multiplicity = 1
  Electrons    = 28
  Nalpha       = 14
  Nbeta        = 14

  ==> Algorithm <==

  SCF Algorithm Type is DF.
  DIIS enabled.
  MOM disabled.
  Fractional occupation disabled.
  Guess Type is SAD.
  Energy threshold   = 1.00e-10
  Density threshold  = 1.00e-10
  Integral threshold = 0.00e+00

  ==> Primary Basis <==

  Basis Set: ANONYMOUSC3F27772
    Blend: 6-31G_2DFP_
    Number of shells: 44
    Number of basis function: 128
    Number of Cartesian functions: 148
    Spherical Harmonics?: true
    Max angular momentum: 3

  ==> DFT Potential <==

   => Composite Functional: B3LYP <= 

    B3LYP Hyb-GGA Exchange-Correlation Functional

    P. J. Stephens, F. J. Devlin, C. F. Chabalowski, and M. J. Frisch, J. Phys. Chem. 98, 11623 (1994)

    Deriv               =              1
    GGA                 =           TRUE
    Meta                =          FALSE

    Exchange Hybrid     =           TRUE
    MP2 Hybrid          =          FALSE

   => Exchange Functionals <=

    0.0800   Slater exchange
    0.7200         Becke 88

   => Exact (HF) Exchange <=

    0.2000               HF 

   => Correlation Functionals <=

    0.1900   Vosko, Wilk & Nusair (VWN5_RPA)
    0.8100   Lee, Yang & Parr

   => Molecular Quadrature <=

    Radial Scheme          =       TREUTLER
    Pruning Scheme         =           NONE
    Nuclear Scheme         =       TREUTLER

    BS radius alpha        =              1
    Pruning alpha          =              1
    Radial Points          =             99
    Spherical Points       =           1202
    Total Points           =         782648
    Total Blocks           =           5468
    Max Points             =            256
    Max Functions          =            127
    Weights Tolerance      =       1.00E-15

   => Loading Basis Set <=

    Name: (ANONYMOUSC3F27772 AUX)
    Role: JKFIT
    Keyword: DF_BASIS_SCF
    atoms 1-3 entry C          line   198 file /opt/psi/4/master/share/psi4/basis/def2-universal-jkfit.gbs 
    atoms 4   entry N          line   258 file /opt/psi/4/master/share/psi4/basis/def2-universal-jkfit.gbs 
    atoms 5-7 entry H          line    18 file /opt/psi/4/master/share/psi4/basis/def2-universal-jkfit.gbs 

  ==> Integral Setup <==

  DFHelper Memory: AOs need 0.048 GiB; user supplied 7.427 GiB. Using in-core AOs.

  ==> MemDFJK: Density-Fitted J/K Matrices <==

    J tasked:                   Yes
    K tasked:                   Yes
    wK tasked:                   No
    OpenMP threads:               4
    Memory [MiB]:              7605
    Algorithm:                 Core
    Schwarz Cutoff:           1E-12
    Mask sparsity (%):       1.5625
    Fitting Condition:        1E-10

   => Auxiliary Basis Set <=

  Basis Set: (ANONYMOUSC3F27772 AUX)
    Blend: DEF2-UNIVERSAL-JKFIT
    Number of shells: 118
    Number of basis function: 356
    Number of Cartesian functions: 420
    Spherical Harmonics?: true
    Max angular momentum: 4

  Cached 100.0% of DFT collocation blocks in 2.352 [GiB].

  Minimum eigenvalue in the overlap matrix is 6.1335951275E-04.
  Reciprocal condition number of the overlap matrix is 1.1926273545E-04.
    Using symmetric orthogonalization.

  ==> Pre-Iterations <==

  SCF Guess: Superposition of Atomic Densities via on-the-fly atomic UHF (no occupation information).

   -------------------------
    Irrep   Nso     Nmo    
   -------------------------
     A        128     128 
   -------------------------
    Total     128     128
   -------------------------

  ==> Iterations <==

                           Total Energy        Delta E     RMS |[F,P]|

   @DF-RKS iter SAD:  -170.10489267805949   -1.70105e+02   0.00000e+00 
   @DF-RKS iter   1:  -170.62362782543315   -5.18735e-01   5.09299e-03 DIIS
   @DF-RKS iter   2:  -170.47067474462114    1.52953e-01   6.71508e-03 DIIS
   @DF-RKS iter   3:  -170.77479657176062   -3.04122e-01   2.89821e-03 DIIS
   @DF-RKS iter   4:  -170.83981471833829   -6.50181e-02   2.00108e-04 DIIS
   @DF-RKS iter   5:  -170.84005376593103   -2.39048e-04   1.07720e-04 DIIS
   @DF-RKS iter   6:  -170.84014812839385   -9.43625e-05   2.92381e-05 DIIS
   @DF-RKS iter   7:  -170.84015500890709   -6.88051e-06   1.29903e-05 DIIS
   @DF-RKS iter   8:  -170.84015635952383   -1.35062e-06   2.31271e-06 DIIS
   @DF-RKS iter   9:  -170.84015639998145   -4.04576e-08   4.29647e-07 DIIS
   @DF-RKS iter  10:  -170.84015640139449   -1.41304e-09   5.90388e-08 DIIS
   @DF-RKS iter  11:  -170.84015640141837   -2.38742e-11   1.22267e-08 DIIS
   @DF-RKS iter  12:  -170.84015640141968   -1.30740e-12   1.25298e-09 DIIS
   @DF-RKS iter  13:  -170.84015640141959    8.52651e-14   2.23330e-10 DIIS
   @DF-RKS iter  14:  -170.84015640141945    1.42109e-13   4.16970e-11 DIIS
  Energy and wave function converged.


  ==> Post-Iterations <==

    Orbital Energies [Eh]
    ---------------------

    Doubly Occupied:                                                      

       1A    -14.339917     2A    -10.241096     3A    -10.226502  
       4A    -10.224450     5A     -0.905730     6A     -0.815716  
       7A     -0.656989     8A     -0.538716     9A     -0.480041  
      10A     -0.418070    11A     -0.378521    12A     -0.362277  
      13A     -0.334878    14A     -0.289873  

    Virtual:                                                              

      15A     -0.057982    16A      0.025066    17A      0.104571  
      18A      0.107508    19A      0.107677    20A      0.134565  
      21A      0.226615    22A      0.281822    23A      0.306090  
      24A      0.394704    25A      0.440286    26A      0.447792  
      27A      0.465441    28A      0.477866    29A      0.508009  
      30A      0.540510    31A      0.568785    32A      0.582627  
      33A      0.602570    34A      0.607353    35A      0.627755  
      36A      0.636399    37A      0.649327    38A      0.693442  
      39A      0.701838    40A      0.764071    41A      0.770547  
      42A      0.786923    43A      0.796043    44A      0.858593  
      45A      0.949143    46A      0.979316    47A      0.992330  
      48A      1.003779    49A      1.046937    50A      1.096538  
      51A      1.115932    52A      1.119358    53A      1.187790  
      54A      1.235720    55A      1.290664    56A      1.320782  
      57A      1.335702    58A      1.340443    59A      1.433697  
      60A      1.447943    61A      1.518162    62A      1.561221  
      63A      1.645186    64A      1.757532    65A      1.770941  
      66A      1.835542    67A      2.053913    68A      2.133564  
      69A      2.238184    70A      2.411166    71A      2.579564  
      72A      2.624297    73A      2.688641    74A      2.746788  
      75A      2.761879    76A      2.781334    77A      2.844095  
      78A      2.871184    79A      2.909852    80A      2.912004  
      81A      2.954928    82A      2.956572    83A      3.047125  
      84A      3.072254    85A      3.118644    86A      3.143301  
      87A      3.168970    88A      3.181070    89A      3.191130  
      90A      3.244317    91A      3.264133    92A      3.320013  
      93A      3.323157    94A      3.408756    95A      3.461589  
      96A      3.481738    97A      3.586635    98A      3.665110  
      99A      3.665346   100A      3.696207   101A      3.716527  
     102A      3.840798   103A      3.849242   104A      3.879897  
     105A      4.034089   106A      4.037297   107A      4.114017  
     108A      4.184664   109A      4.233686   110A      4.278118  
     111A      4.389326   112A      4.418829   113A      4.506047  
     114A      4.589279   115A      4.645207   116A      4.675913  
     117A      4.761159   118A      4.781830   119A      4.821513  
     120A      4.843775   121A      4.929936   122A      5.151656  
     123A      5.216993   124A      5.401856   125A      5.494904  
     126A      5.495794   127A      5.654707   128A      6.095606  

    Final Occupation by Irrep:
              A 
    DOCC [    14 ]

  @DF-RKS Final Energy:  -170.84015640141945

   => Energetics <=

    Nuclear Repulsion Energy =             89.9564983197001737
    One-Electron Energy =                -407.0724478391331331
    Two-Electron Energy =                 165.8665509936283797
    DFT Exchange-Correlation Energy =     -19.5907578756148695
    Empirical Dispersion Energy =           0.0000000000000000
    VV10 Nonlocal Energy =                  0.0000000000000000
    Total Energy =                       -170.8401564014194491

Computation Completed


Properties will be evaluated at   0.000000,   0.000000,   0.000000 [a0]

Properties computed using the SCF density matrix

  Nuclear Dipole Moment: [e a0]
     X:    -4.7685      Y:    -0.0712      Z:     0.0004

  Electronic Dipole Moment: [e a0]
     X:     3.2702      Y:    -0.2001      Z:    -0.0002

  Dipole Moment: [e a0]
     X:    -1.4983      Y:    -0.2712      Z:     0.0002     Total:     1.5226

  Dipole Moment: [D]
     X:    -3.8083      Y:    -0.6894      Z:     0.0005     Total:     3.8701


*** tstop() called on n031 at Fri Nov 12 10:22:03 2021
Module time:
	user time   =      58.57 seconds =       0.98 minutes
	system time =       0.64 seconds =       0.01 minutes
	total time  =         15 seconds =       0.25 minutes
Total time:
	user time   =      58.57 seconds =       0.98 minutes
	system time =       0.64 seconds =       0.01 minutes
	total time  =         15 seconds =       0.25 minutes
Grab this energy -170.84015640141945
    Psi4 stopped on: Friday, 12 November 2021 10:22AM
    Psi4 wall time for execution: 0:00:15.26

*** Psi4 exiting successfully. Buy a developer a beer!
