
 Primary working directories    : /tmp/943210.335.gen6.q
 Secondary working directories  : /tmp/943210.335.gen6.q
 Wavefunction directory         : /home/vulcan/mel64643/wfu/
 Main file repository           : /tmp/943210.335.gen6.q/

 ARCHNAME  : Linux/x86_64
 FC        : /opt/intel/compilers_and_libraries_2016.1.150/linux/bin/intel64/ifort
 FCVERSION : 16.0.1
 BLASLIB   : -mkl
 id        : ccgc

 Nodes     nprocs
 n086         1
 ga_uses_ma=false, calling ma_init with nominal heap.
 GA-space will be limited to   8.0 MW (determined by -G option)

 Using customized tuning parameters: mindgm=10; mindgv=16; mindgc=4; mindgr=1; noblas=0; mincuda=1000; minvec=7
 default implementation of scratch files=df  

 ***,Optimization of formic acid
 memory,1000,m
 gthresh,energy=1.0d-12,orbital=1.0d-10,oneint=1.0d-16,twoint=1.0d-16,optgrad=1.0d-6,compress=1.0d-13
 geomtyp=xyz
 
 bohr
 geometry = {
  C   -3.5007407894   -0.8293579991   -0.0000000000
  O   -3.0849353549    1.6224974086    0.0000000000
  O   -1.8802790226   -2.4746646551   -0.0000000000
  H   -5.5201383772   -1.2712505679   -0.0000000000
  H   -1.2314944669    1.9466409118    0.0000000000
  C    3.4904192023    0.8312574937   -0.0000000000
  O    3.0942221735   -1.6238427108    0.0000000000
  O    1.8801066729    2.4864988319   -0.0000000000
  H    5.5094089437    1.2750097715   -0.0000000000
  H    1.2434310188   -1.9627884846    0.0000000000
 }
 
 basis=AVDZ, H=VDZ
 {rhf;maxit,200}
 {ccsd(t);maxit,200}

 Variables initialized (661), CPU time= 0.00 sec
 Commands  initialized (458), CPU time= 0.01 sec, 486 directives.
 Default parameters read. Elapsed time= 0.04 sec

 Checking input...
 Passed
1


                                         ***  PROGRAM SYSTEM MOLPRO  ***
                         Copyright, University College Cardiff Consultants Limited, 2008

                                    Version 2010.1 linked May 16 2016 07:17:05


 **********************************************************************************************************************************
 LABEL *   Optimization of formic acid                                                   
 Linux-4.4.3/n086(x86_64) 64 bit mpp version                                             DATE: 24-Oct-23          TIME: 00:53:33  
 **********************************************************************************************************************************

 SHA1:             9e8077add272b0f3cad6f7df79ec5211205f459d
 **********************************************************************************************************************************

 THRESHOLDS:

 ZERO    =  1.00D-12  ONEINT  =  1.00D-16  TWOINT  =  1.00D-16  PREFAC  =  1.00D-14  LOCALI  =  1.00D-09  EORDER  =  1.00D-04
 ENERGY  =  1.00D-12  ETEST   =  0.00D+00  EDENS   =  0.00D+00  THRDEDEF=  1.00D-06  GRADIENT=  1.00D-02  STEP    =  1.00D-03
 ORBITAL =  1.00D-10  CIVEC   =  1.00D-05  COEFF   =  1.00D-04  PRINTCI =  5.00D-02  PUNCHCI =  9.90D+01  OPTGRAD =  1.00D-06
 OPTENERG=  1.00D-06  OPTSTEP =  3.00D-04  THRGRAD =  1.00D-10  COMPRESS=  1.00D-13  VARMIN  =  1.00D-07  VARMAX  =  1.00D-03
 THRDOUB =  0.00D+00  THRDIV  =  1.00D-05  THRRED  =  1.00D-07  THRPSP  =  1.00D+00  THRDC   =  1.00D-10  THRCS   =  1.00D-10
 THRNRM  =  1.00D-08  THREQ   =  0.00D+00  THRDE   =  1.00D+00  THRREF  =  1.00D-05  SPARFAC =  1.00D+00  THRDLP  =  1.00D-07
 THRDIA  =  1.00D-10  THRDLS  =  1.00D-07  THRGPS  =  0.00D+00  THRKEX  =  0.00D+00  THRDIS  =  2.00D-01  THRVAR  =  1.00D-10
 THRLOC  =  1.00D-06  THRGAP  =  1.00D-06  THRLOCT = -1.00D+00  THRGAPT = -1.00D+00  THRORB  =  1.00D-06  THRMLTP =  0.00D+00
 THRCPQCI=  1.00D-10  KEXTA   =  0.00D+00  THRCOARS=  0.00D+00  SYMTOL  =  1.00D-06  GRADTOL =  1.00D-06  THROVL  =  1.00D-08
 THRORTH =  1.00D-08  GRID    =  1.00D-06  GRIDMAX =  1.00D-03  DTMAX   =  0.00D+00

 SETTING GEOMTYP        =    XYZ
 ZUNIT=BOHR
 

 Variable memory set to 1000000000 words,  buffer space   230000 words

 SETTING BASIS          =    AVDZ,H=VDZ


 Recomputing integrals since basis changed


 Using spherical harmonics

 Library entry C      S aug-cc-pVDZ          selected for orbital group  1
 Library entry C      P aug-cc-pVDZ          selected for orbital group  1
 Library entry C      D aug-cc-pVDZ          selected for orbital group  1
 Library entry O      S aug-cc-pVDZ          selected for orbital group  2
 Library entry O      P aug-cc-pVDZ          selected for orbital group  2
 Library entry O      D aug-cc-pVDZ          selected for orbital group  2
 Library entry H      S cc-pVDZ              selected for orbital group  3
 Library entry H      P cc-pVDZ              selected for orbital group  3

1PROGRAM * SEWARD (Integral evaluation for generally contracted gaussian basis sets)     Author: Roland Lindh, 1990

 Geometry written to block  1 of record 700


 Point group  Cs  



 ATOMIC COORDINATES

 NR  ATOM    CHARGE       X              Y              Z

   1  C       6.00   -3.500740789   -0.829357999    0.000000000
   2  O       8.00   -3.084935355    1.622497409    0.000000000
   3  O       8.00   -1.880279023   -2.474664655    0.000000000
   4  H       1.00   -5.520138377   -1.271250568    0.000000000
   5  H       1.00   -1.231494467    1.946640912    0.000000000
   6  C       6.00    3.490419202    0.831257494    0.000000000
   7  O       8.00    3.094222173   -1.623842711    0.000000000
   8  O       8.00    1.880106673    2.486498832    0.000000000
   9  H       1.00    5.509408944    1.275009771    0.000000000
  10  H       1.00    1.243431019   -1.962788485    0.000000000

 Bond lengths in Bohr (Angstrom)

 1-2  2.486863305  1-3  2.309313822  1-4  2.067180607  2-5  1.881571720  6-7  2.486863305
     ( 1.315991383)     ( 1.222036243)     ( 1.093904864)     ( 0.995684871)     ( 1.315991383)

  6- 8  2.309313822   6- 9  2.067180607   7-10  1.881571720
       ( 1.222036243)       ( 1.093904864)       ( 0.995684871)

 Bond angles

  1-2-5  109.54509197   2-1-3  125.81077397   2-1-4  111.96823610   3-1-4  122.22098994

  6- 7-10  109.54509197   7- 6- 8  126.62105408   7- 6- 9  111.56309604   8- 6- 9  121.81584988

 NUCLEAR CHARGE:                   48
 NUMBER OF PRIMITIVE AOS:         250
 NUMBER OF SYMMETRY AOS:          238
 NUMBER OF CONTRACTIONS:          158   ( 112A'  +  46A"  )
 NUMBER OF CORE ORBITALS:           6   (   6A'  +   0A"  )
 NUMBER OF VALENCE ORBITALS:       28   (  22A'  +   6A"  )


 NUCLEAR REPULSION ENERGY  235.68438321


 Eigenvalues of metric

         1 0.778E-03 0.127E-02 0.142E-02 0.198E-02 0.275E-02 0.419E-02 0.472E-02 0.693E-02
         2 0.270E-01 0.379E-01 0.473E-01 0.520E-01 0.617E-01 0.743E-01 0.105E+00 0.138E+00


 Contracted 2-electron integrals neglected if value below      1.0D-16
 AO integral compression algorithm  1   Integral accuracy      1.0D-16

     353.632 MB (compressed) written to integral file ( 94.6%)

     Node minimum: 353.632 MB, node maximum: 353.632 MB


 NUMBER OF SORTED TWO-ELECTRON INTEGRALS:   41131481.     BUFFER LENGTH:  32768
 NUMBER OF SEGMENTS:   3  SEGMENT LENGTH:   15997996      RECORD LENGTH: 524288

 Memory used in sort:      16.56 MW

 SORT1 READ    46708508. AND WROTE    40806241. INTEGRALS IN    118 RECORDS. CPU TIME:     0.46 SEC, REAL TIME:     0.72 SEC
 SORT2 READ    40806241. AND WROTE    41131481. INTEGRALS IN   1349 RECORDS. CPU TIME:     0.31 SEC, REAL TIME:     0.49 SEC

 FILE SIZES:   FILE 1:   319.9 MBYTE,  FILE 4:   495.0 MBYTE,   TOTAL:    814.9 MBYTE

 OPERATOR DM      FOR CENTER  0  COORDINATES:    0.000000    0.000000    0.000000


 **********************************************************************************************************************************
 DATASETS  * FILE   NREC   LENGTH (MB)   RECORD NAMES
              1      19      320.07       500      610      700      900      950      970     1000      129      960     1100   
                                          VAR    BASINP    GEOM    SYMINP    ZMAT    AOBASIS   BASIS     P2S    ABASIS      S 
                                         1400     1410     1200     1210     1080     1600     1650     1300     1700   
                                           T        V       H0       H01     AOSYM     SMH    MOLCAS    ERIS     OPER   

 PROGRAMS   *        TOTAL       INT
 CPU TIMES  *         3.79      3.75
 REAL TIME  *         4.94 SEC
 DISK USED  *         1.17 GB      
 GA USED    *         0.00 MB       (max)       0.00 MB       (current)
 **********************************************************************************************************************************

1PROGRAM * RHF-SCF (CLOSED SHELL)       Authors: W. Meyer, H.-J. Werner


 NUMBER OF ELECTRONS:      24+   24-
 CONVERGENCE THRESHOLDS:    1.00E-10 (Density)    1.00E-13 (Energy)
 MAX. NUMBER OF ITERATIONS:      200
 INTERPOLATION TYPE:            DIIS
 INTERPOLATION STEPS:              2 (START)      1 (STEP)
 LEVEL SHIFTS:                  0.00 (CLOSED)  0.00 (OPEN) 



 Orbital guess generated from atomic densities. Full valence occupancy:   28   6

 Molecular orbital dump at record        2100.2

 Initial alpha occupancy:  20   4
 Initial beta  occupancy:  20   4
 Wave function symmetry:    1

 ITERATION    DDIFF          GRAD             ENERGY        2-EL.EN.            DIPOLE MOMENTS         DIIS
    1      0.000D+00      0.000D+00      -377.47443892    746.608748   -0.01505   -0.01800    0.00000    0
    2      0.000D+00      0.943D-02      -377.56266851    743.815733   -0.00509   -0.00783    0.00000    1
    3      0.179D-01      0.592D-02      -377.60989375    746.088558   -0.00851   -0.01141    0.00000    2
    4      0.668D-02      0.846D-03      -377.61149982    745.689409   -0.00876   -0.01083    0.00000    3
    5      0.130D-02      0.359D-03      -377.61178149    745.727631   -0.00864   -0.01103    0.00000    4
    6      0.539D-03      0.101D-03      -377.61182511    745.779124   -0.00870   -0.01098    0.00000    5
    7      0.181D-03      0.449D-04      -377.61183558    745.761130   -0.00871   -0.01101    0.00000    6
    8      0.104D-03      0.141D-04      -377.61183682    745.766628   -0.00872   -0.01101    0.00000    7
    9      0.385D-04      0.465D-05      -377.61183693    745.765301   -0.00871   -0.01102    0.00000    8
   10      0.125D-04      0.128D-05      -377.61183694    745.765533   -0.00872   -0.01101    0.00000    7
   11      0.348D-05      0.380D-06      -377.61183694    745.765457   -0.00871   -0.01102    0.00000    8
   12      0.101D-05      0.134D-06      -377.61183694    745.765485   -0.00872   -0.01101    0.00000    8
   13      0.283D-06      0.501D-07      -377.61183694    745.765470   -0.00872   -0.01102    0.00000    8
   14      0.855D-07      0.148D-07      -377.61183694    745.765472   -0.00872   -0.01102    0.00000    8
   15      0.293D-07      0.608D-08      -377.61183694    745.765474   -0.00872   -0.01102    0.00000    8
   16      0.111D-07      0.165D-08      -377.61183694    745.765473   -0.00872   -0.01102    0.00000    8
   17      0.271D-08      0.481D-09      -377.61183694    745.765473   -0.00872   -0.01102    0.00000    8
   18      0.903D-09      0.187D-09      -377.61183694    745.765473   -0.00872   -0.01102    0.00000    8
   19      0.335D-09      0.822D-10      -377.61183694    745.765473   -0.00872   -0.01102    0.00000    8
   20      0.158D-09      0.423D-10      -377.61183694    745.765473   -0.00872   -0.01102    0.00000    8
   21      0.846D-10      0.114D-10      -377.61183694    745.765473   -0.00872   -0.01102    0.00000    8
   22      0.316D-10      0.333D-11      -377.61183694    745.765473   -0.00872   -0.01102    0.00000    8
   23      0.855D-11      0.131D-11      -377.61183694    745.765473   -0.00872   -0.01102    0.00000    8
   24      0.306D-11      0.350D-12      -377.61183694    745.765473   -0.00872   -0.01102    0.00000    8
   25      0.107D-11      0.152D-12      -377.61183694    745.765473   -0.00872   -0.01102    0.00000    0

 Final occupancy:  20   4

 !RHF STATE 1.1 Energy               -377.611836944468
 Nuclear energy                       235.68438321
 One-electron energy                 -986.17895658
 Two-electron energy                  372.88273642
 Virial quotient                       -1.00163168
 !RHF STATE 1.1 Dipole moment          -0.00871608    -0.01101643     0.00000000
 Dipole moment /Debye                  -0.02215261    -0.02799915     0.00000000

 Orbital energies:

         1.1          2.1          3.1          4.1          5.1          6.1          7.1          8.1          9.1         10.1
    -20.626600   -20.625435   -20.587954   -20.587357   -11.419989   -11.419898    -1.490368    -1.477506    -1.392346    -1.378110

        11.1         12.1         13.1         14.1         15.1         16.1         17.1         18.1         19.1         20.1
     -0.922109    -0.885991    -0.771928    -0.735485    -0.726719    -0.697906    -0.622601    -0.581834    -0.498116    -0.475623

        21.1         22.1
      0.069478     0.070571

         1.2          2.2          3.2          4.2          5.2          6.2
     -0.645642    -0.635177    -0.506978    -0.495072     0.080700     0.093013


 **********************************************************************************************************************************
 DATASETS  * FILE   NREC   LENGTH (MB)   RECORD NAMES
              1      19      320.07       500      610      700      900      950      970     1000      129      960     1100   
                                          VAR    BASINP    GEOM    SYMINP    ZMAT    AOBASIS   BASIS     P2S    ABASIS      S 
                                         1400     1410     1200     1210     1080     1600     1650     1300     1700   
                                           T        V       H0       H01     AOSYM     SMH    MOLCAS    ERIS     OPER   

              2       3        0.73       700     1000     2100   
                                         GEOM     BASIS     RHF  

 PROGRAMS   *        TOTAL       RHF       INT
 CPU TIMES  *         8.47      4.68      3.75
 REAL TIME  *        10.42 SEC
 DISK USED  *         1.17 GB      
 GA USED    *         0.00 MB       (max)       0.00 MB       (current)
 **********************************************************************************************************************************


1PROGRAM * CCSD (Closed-shell coupled cluster)     Authors: C. Hampel, H.-J. Werner, 1991, M. Deegan, P.J. Knowles, 1992


 Convergence thresholds:  THRVAR = 1.00D-08  THRDEN = 1.00D-12

 CCSD(T)     terms to be evaluated (factor= 1.000)


 Number of core orbitals:           6 (   6   0 )
 Number of closed-shell orbitals:  18 (  14   4 )
 Number of external orbitals:     134 (  92  42 )

 Molecular orbitals read from record     2100.2  Type=RHF/CANONICAL (state 1.1)

 Number of N-1 electron functions:              18
 Number of N-2 electron functions:             171
 Number of singly external CSFs:              1456
 Number of doubly external CSFs:           1518142
 Total number of CSFs:                     1519599

 Length of J-op  integral file:               0.00 MB
 Length of K-op  integral file:               1.05 MB
 Length of 3-ext integral record:             0.00 MB

 Memory could be reduced to 29.62 Mwords without degradation in triples

 Integral transformation finished. Total CPU:   1.29 sec, npass=  1  Memory used:  13.10 MW

 Reference energy:                   -377.61183694

 MP2 singlet pair energy:              -0.63198432
 MP2 triplet pair energy:              -0.43062081
 MP2 correlation energy:               -1.06260513
 MP2 total energy:                   -378.67444207

 SCS-MP2 correlation energy:           -1.02632302   (PS=  1.200000  PT=  0.333333)
 SCS-MP2 total energy:               -378.63815997

 ITER.      SQ.NORM     CORR.ENERGY   TOTAL ENERGY   ENERGY CHANGE        DEN1      VAR(S)    VAR(P)  DIIS     TIME
   1      1.30275927    -1.07994314  -378.69178008    -0.01733801     0.01550216  0.11D-01  0.60D-02  1  1     4.52
   2      1.32734789    -1.08104368  -378.69288062    -0.00110054    -0.02620749  0.24D-03  0.10D-02  2  2     7.82
   3      1.34052369    -1.08189637  -378.69373331    -0.00085269    -0.00594194  0.21D-03  0.45D-04  3  3    11.11
   4      1.34584679    -1.08162809  -378.69346503     0.00026828    -0.00176522  0.18D-04  0.80D-05  4  4    14.41
   5      1.34793392    -1.08153902  -378.69337597     0.00008906    -0.00046797  0.17D-05  0.73D-06  5  5    17.72
   6      1.34831647    -1.08151874  -378.69335568     0.00002029    -0.00002186  0.14D-06  0.84D-07  6  6    21.04
   7      1.34839872    -1.08150927  -378.69334621     0.00000947    -0.00000597  0.12D-07  0.12D-07  6  2    24.35
   8      1.34840452    -1.08151009  -378.69334704    -0.00000082     0.00000232  0.19D-08  0.11D-08  6  1    27.66
   9      1.34840521    -1.08150992  -378.69334686     0.00000017     0.00000127  0.31D-09  0.17D-09  6  4    30.99
  10      1.34840695    -1.08150975  -378.69334669     0.00000017    -0.00000050  0.70D-10  0.23D-10  6  3    34.30
  11      1.34840646    -1.08150986  -378.69334681    -0.00000012     0.00000022  0.16D-10  0.41D-11  6  5    37.61
  12      1.34840620    -1.08150988  -378.69334683    -0.00000002     0.00000004  0.30D-11  0.10D-11  6  6    40.92
  13      1.34840592    -1.08150992  -378.69334686    -0.00000004     0.00000011  0.49D-12  0.20D-12  6  1    44.24
  14      1.34840582    -1.08150993  -378.69334687    -0.00000001     0.00000002  0.67D-13  0.31D-13  6  2    47.55
  15      1.34840580    -1.08150993  -378.69334687    -0.00000000     0.00000000  0.12D-13  0.50D-14  6  4    50.87
  16      1.34840579    -1.08150993  -378.69334687    -0.00000000    -0.00000000  0.24D-14  0.11D-14  6  3    54.19
  17      1.34840579    -1.08150993  -378.69334687     0.00000000    -0.00000000  0.28D-15  0.17D-15  6  6    57.50
  18      1.34840579    -1.08150993  -378.69334687    -0.00000000     0.00000000  0.36D-16  0.17D-16  6  5    60.82
  19      1.34840579    -1.08150993  -378.69334687    -0.00000000     0.00000000  0.89D-17  0.27D-17  6  1    64.14
  20      1.34840579    -1.08150993  -378.69334687     0.00000000    -0.00000000  0.16D-17  0.78D-18  6  5    67.46
  21      1.34840579    -1.08150993  -378.69334687    -0.00000000     0.00000000  0.16D-18  0.87D-19  6  2    70.79
  22      1.34840579    -1.08150993  -378.69334687     0.00000000    -0.00000000  0.11D-19  0.12D-19  6  3    74.10
  23      1.34840579    -1.08150993  -378.69334687     0.00000000     0.00000000  0.12D-20  0.59D-21  6  4    77.42
  24      1.34840579    -1.08150993  -378.69334687     0.00000000     0.00000000  0.35D-21  0.10D-21  6  6    80.74

 Norm of t1 vector:      0.15400913      S-energy:    -0.00000000      T1 diagnostic:  0.01815015
                                                                       D1 diagnostic:  0.06242849

 Singles amplitudes (print threshold =  0.500E-01):

         I         SYM. A    A   T(IA)

        16         2         4      0.05268522


 Total CPU time for triples:     71.55 sec


 RESULTS
 =======

  Reference energy                   -377.611836944469
  CCSD singlet pair energy             -0.702902093855
  CCSD triplet pair energy             -0.378607832980
  CCSD correlation energy              -1.081509926836

  Triples (T) contribution             -0.039470522674
  Total correlation energy             -1.120980449510

  CCSD total energy                  -378.693346871305
  CCSD[T] energy                     -378.736465448748
  CCSD-T energy                      -378.731562082277
 !CCSD(T) total energy               -378.732817393979

 Timing summary (sec):

 STEP                 CPU(USER)    SYS     CPU(TOT)    WALL
 Transformation          1.34      0.17      1.51      1.51
 CCSD iterations        79.40      2.54     81.94     82.06
 Triples                71.55      1.94     73.49     73.50

 Program statistics:

 Available memory in ccsd:               999998604
 Min. memory needed in ccsd:               3931458
 Max. memory used in ccsd:                 5315516
 Max. memory used in cckext:               5296012 (24 integral passes)



 **********************************************************************************************************************************
 DATASETS  * FILE   NREC   LENGTH (MB)   RECORD NAMES
              1      20      438.46       500      610      700      900      950      970     1000      129      960     1100   
                                          VAR    BASINP    GEOM    SYMINP    ZMAT    AOBASIS   BASIS     P2S    ABASIS      S 
                                         1400     1410     1200     1210     1080     1600     1650     1300     1700     1380   
                                           T        V       H0       H01     AOSYM     SMH    MOLCAS    ERIS     OPER     JKOP   

              2       3        0.73       700     1000     2100   
                                         GEOM     BASIS     RHF  

 PROGRAMS   *        TOTAL   CCSD(T)       RHF       INT
 CPU TIMES  *       160.77    152.30      4.68      3.75
 REAL TIME  *       167.54 SEC
 DISK USED  *         1.17 GB      
 GA USED    *         0.00 MB       (max)       0.00 MB       (current)
 **********************************************************************************************************************************

        CCSD(T)         RHF-SCF 
   -378.73281739   -377.61183694
 **********************************************************************************************************************************
 Variable memory released
