
 Primary working directories    : /tmp/1047041.327.gen6.q
 Secondary working directories  : /tmp/1047041.327.gen6.q
 Wavefunction directory         : /home/vulcan/mel64643/wfu/
 Main file repository           : /tmp/1047041.327.gen6.q/

 ARCHNAME  : Linux/x86_64
 FC        : /opt/intel/compilers_and_libraries_2016.1.150/linux/bin/intel64/ifort
 FCVERSION : 16.0.1
 BLASLIB   : -mkl
 id        : ccgc

 Nodes     nprocs
 n084         1
 ga_uses_ma=false, calling ma_init with nominal heap.
 GA-space will be limited to   8.0 MW (determined by -G option)

 Using customized tuning parameters: mindgm=10; mindgv=16; mindgc=4; mindgr=1; noblas=0; mincuda=1000; minvec=7
 default implementation of scratch files=df  

 ***,Optimization of ben_hcn
 memory,1000,m
 gthresh,energy=1.0d-12,orbital=1.0d-10,oneint=1.0d-16,twoint=1.0d-16,optgrad=1.0d-6,compress=1.0d-13
 geomtyp=xyz
 
 
 
 bohr
 geometry = {
  C   -1.8844522857    1.3763784577    2.2905613166
  C   -1.8575256433    2.6876083412    0.0018967476
  C   -1.8749703154    1.3635769334   -2.2894707060
  C   -1.9194797853   -1.2823934043   -2.2960226673
  C   -1.9463925993   -2.5934404046   -0.0074888146
  C   -1.9289408740   -1.2696107042    2.2837865096
  H   -1.8651296144    2.4008220125    4.0637848933
  H   -1.8174032160    4.7351959077   -0.0018233171
  H   -1.8479568245    2.3891197026   -4.0619526918
  H   -1.9265355263   -2.3070386736   -4.0691896390
  H   -1.9742062635   -4.6411821495   -0.0037459129
  H   -1.9435642391   -2.2953942255    4.0562540180
  N    6.6241475845   -0.1990372577    0.0074263216
  C    4.4344431787   -0.0759499402    0.0101953323
  H    2.4147676706    0.0378689524    0.0128891236
 }
 
 basis=aug-cc-pvdz, H=cc-pvdz
 {rhf;maxit,200}
 {ccsd(t)}

 Variables initialized (661), CPU time= 0.00 sec
 Commands  initialized (458), CPU time= 0.01 sec, 486 directives.
 Default parameters read. Elapsed time= 0.04 sec

 Checking input...
 Passed
1


                                         ***  PROGRAM SYSTEM MOLPRO  ***
                         Copyright, University College Cardiff Consultants Limited, 2008

                                    Version 2010.1 linked May 16 2016 07:17:05


 **********************************************************************************************************************************
 LABEL *   Optimization of ben_hcn                                                       
 Linux-4.4.3/n084(x86_64) 64 bit mpp version                                             DATE: 07-Mar-24          TIME: 03:41:21  
 **********************************************************************************************************************************

 SHA1:             9e8077add272b0f3cad6f7df79ec5211205f459d
 **********************************************************************************************************************************

 THRESHOLDS:

 ZERO    =  1.00D-12  ONEINT  =  1.00D-16  TWOINT  =  1.00D-16  PREFAC  =  1.00D-14  LOCALI  =  1.00D-09  EORDER  =  1.00D-04
 ENERGY  =  1.00D-12  ETEST   =  0.00D+00  EDENS   =  0.00D+00  THRDEDEF=  1.00D-06  GRADIENT=  1.00D-02  STEP    =  1.00D-03
 ORBITAL =  1.00D-10  CIVEC   =  1.00D-05  COEFF   =  1.00D-04  PRINTCI =  5.00D-02  PUNCHCI =  9.90D+01  OPTGRAD =  1.00D-06
 OPTENERG=  1.00D-06  OPTSTEP =  3.00D-04  THRGRAD =  1.00D-10  COMPRESS=  1.00D-13  VARMIN  =  1.00D-07  VARMAX  =  1.00D-03
 THRDOUB =  0.00D+00  THRDIV  =  1.00D-05  THRRED  =  1.00D-07  THRPSP  =  1.00D+00  THRDC   =  1.00D-10  THRCS   =  1.00D-10
 THRNRM  =  1.00D-08  THREQ   =  0.00D+00  THRDE   =  1.00D+00  THRREF  =  1.00D-05  SPARFAC =  1.00D+00  THRDLP  =  1.00D-07
 THRDIA  =  1.00D-10  THRDLS  =  1.00D-07  THRGPS  =  0.00D+00  THRKEX  =  0.00D+00  THRDIS  =  2.00D-01  THRVAR  =  1.00D-10
 THRLOC  =  1.00D-06  THRGAP  =  1.00D-06  THRLOCT = -1.00D+00  THRGAPT = -1.00D+00  THRORB  =  1.00D-06  THRMLTP =  0.00D+00
 THRCPQCI=  1.00D-10  KEXTA   =  0.00D+00  THRCOARS=  0.00D+00  SYMTOL  =  1.00D-06  GRADTOL =  1.00D-06  THROVL  =  1.00D-08
 THRORTH =  1.00D-08  GRID    =  1.00D-06  GRIDMAX =  1.00D-03  DTMAX   =  0.00D+00

 SETTING GEOMTYP        =    XYZ
 ZUNIT=BOHR
 

 Variable memory set to 1000000000 words,  buffer space   230000 words

 SETTING BASIS          =    AUG-CC-PVDZ,H=CC-PVDZ


 Recomputing integrals since basis changed


 Using spherical harmonics

 Library entry C      S aug-cc-pVDZ          selected for orbital group  1
 Library entry C      P aug-cc-pVDZ          selected for orbital group  1
 Library entry C      D aug-cc-pVDZ          selected for orbital group  1
 Library entry H      S cc-pVDZ              selected for orbital group  2
 Library entry H      P cc-pVDZ              selected for orbital group  2
 Library entry N      S aug-cc-pVDZ          selected for orbital group  3
 Library entry N      P aug-cc-pVDZ          selected for orbital group  3
 Library entry N      D aug-cc-pVDZ          selected for orbital group  3

1PROGRAM * SEWARD (Integral evaluation for generally contracted gaussian basis sets)     Author: Roland Lindh, 1990

 Geometry written to block  1 of record 700


 Point group  C1  



 ATOMIC COORDINATES

 NR  ATOM    CHARGE       X              Y              Z

   1  C       6.00   -1.884452286    1.376378458    2.290561317
   2  C       6.00   -1.857525643    2.687608341    0.001896748
   3  C       6.00   -1.874970315    1.363576933   -2.289470706
   4  C       6.00   -1.919479785   -1.282393404   -2.296022667
   5  C       6.00   -1.946392599   -2.593440405   -0.007488815
   6  C       6.00   -1.928940874   -1.269610704    2.283786510
   7  H       1.00   -1.865129614    2.400822012    4.063784893
   8  H       1.00   -1.817403216    4.735195908   -0.001823317
   9  H       1.00   -1.847956824    2.389119703   -4.061952692
  10  H       1.00   -1.926535526   -2.307038674   -4.069189639
  11  H       1.00   -1.974206263   -4.641182149   -0.003745913
  12  H       1.00   -1.943564239   -2.295394225    4.056254018
  13  N       7.00    6.624147585   -0.199037258    0.007426322
  14  C       6.00    4.434443179   -0.075949940    0.010195332
  15  H       1.00    2.414767671    0.037868952    0.012889124

 Bond lengths in Bohr (Angstrom)

 1-2  2.637808629  1-6  2.646371814  1-7  2.047969681  2-3  2.646455798  2-8  2.047984006
     ( 1.395868208)     ( 1.400399650)     ( 1.083738880)     ( 1.400444093)     ( 1.083746461)

  3- 4  2.646352782   3- 9  2.047964865   4- 5  2.637604165   4-10  2.047942582   5- 6  2.646275165
       ( 1.400389579)       ( 1.083736332)       ( 1.395760011)       ( 1.083724540)       ( 1.400348506)

  5-11  2.047934048   6-12  2.047946958  13-14  2.193162908  14-15  2.022881893
       ( 1.083720023)       ( 1.083726856)       ( 1.160571826)       ( 1.070462995)

 Bond angles

  1- 2- 3  120.16286136   1- 2- 8  119.91868287   1- 6- 5  120.16664241   1- 6-12  119.91507263

  2-1-6  119.66771598   2-1-7  120.16469354   2-3-4  120.16459794   2-3-9  119.91655473

  3- 2- 8  119.91820634   3- 4- 5  119.67050194   3- 4-10  120.16278004   4- 3- 9  119.91856281

  4- 5- 6  120.16768036   4- 5-11  119.91650700   5- 4-10  120.16639021   5- 6-12  119.91796778

  6- 1- 7  120.16731715   6- 5-11  119.91546224  13-14-15  179.99091354

 NUCLEAR CHARGE:                   56
 NUMBER OF PRIMITIVE AOS:         345
 NUMBER OF SYMMETRY AOS:          329
 NUMBER OF CONTRACTIONS:          219   ( 219A   )
 NUMBER OF CORE ORBITALS:           8   (   8A   )
 NUMBER OF VALENCE ORBITALS:       39   (  39A   )


 NUCLEAR REPULSION ENERGY  303.39393138


 Eigenvalues of metric

         1 0.864E-05 0.186E-04 0.229E-04 0.535E-04 0.627E-04 0.633E-04 0.927E-04 0.931E-04


 Contracted 2-electron integrals neglected if value below      1.0D-16
 AO integral compression algorithm  1   Integral accuracy      1.0D-16

     2342.257 MB (compressed) written to integral file ( 91.3%)

     Node minimum: 2342.257 MB, node maximum: 2342.257 MB


 NUMBER OF SORTED TWO-ELECTRON INTEGRALS:  290176095.     BUFFER LENGTH:  32768
 NUMBER OF SEGMENTS:  19  SEGMENT LENGTH:   15999762      RECORD LENGTH: 524288

 Memory used in sort:      16.56 MW

 SORT1 READ   320642736. AND WROTE   287604930. INTEGRALS IN    832 RECORDS. CPU TIME:     2.96 SEC, REAL TIME:     4.82 SEC
 SORT2 READ   287604930. AND WROTE   290176095. INTEGRALS IN   8935 RECORDS. CPU TIME:     2.04 SEC, REAL TIME:     3.05 SEC

 FILE SIZES:   FILE 1:  2152.8 MBYTE,  FILE 4:  3489.7 MBYTE,   TOTAL:   5642.5 MBYTE

 OPERATOR DM      FOR CENTER  0  COORDINATES:    0.000000    0.000000    0.000000


 **********************************************************************************************************************************
 DATASETS  * FILE   NREC   LENGTH (MB)   RECORD NAMES
              1      19     2153.40       500      610      700      900      950      970     1000      129      960     1100   
                                          VAR    BASINP    GEOM    SYMINP    ZMAT    AOBASIS   BASIS     P2S    ABASIS      S 
                                         1400     1410     1200     1210     1080     1600     1650     1300     1700   
                                           T        V       H0       H01     AOSYM     SMH    MOLCAS    ERIS     OPER   

 PROGRAMS   *        TOTAL       INT
 CPU TIMES  *        15.88     15.84
 REAL TIME  *        20.22 SEC
 DISK USED  *         7.99 GB      
 GA USED    *         0.01 MB       (max)       0.00 MB       (current)
 **********************************************************************************************************************************

1PROGRAM * RHF-SCF (CLOSED SHELL)       Authors: W. Meyer, H.-J. Werner


 NUMBER OF ELECTRONS:      28+   28-    SPACE SYMMETRY=1    SPIN SYMMETRY: Singlet 
 CONVERGENCE THRESHOLDS:    1.00E-10 (Density)    1.00E-13 (Energy)
 MAX. NUMBER OF ITERATIONS:      200
 INTERPOLATION TYPE:            DIIS
 INTERPOLATION STEPS:              2 (START)      1 (STEP)
 LEVEL SHIFTS:                  0.00 (CLOSED)  0.00 (OPEN) 



 Orbital guess generated from atomic densities. Full valence occupancy:   47

 Molecular orbital dump at record        2100.2

 ITERATION    DDIFF          GRAD             ENERGY        2-EL.EN.            DIPOLE MOMENTS         DIIS
    1      0.000D+00      0.000D+00      -323.54134113    822.124678   -1.89880    0.10257    0.00205    0
    2      0.000D+00      0.292D-02      -323.59778091    819.104222   -1.36876    0.04985   -0.00071    1
    3      0.781D-02      0.179D-02      -323.61437694    820.249422   -1.72960    0.07898    0.00056    2
    4      0.260D-02      0.576D-03      -323.61671331    820.451102   -1.63887    0.07176    0.00025    3
    5      0.963D-03      0.133D-03      -323.61684265    820.191122   -1.66281    0.07246    0.00022    4
    6      0.223D-03      0.229D-04      -323.61684878    820.217985   -1.66416    0.07242    0.00021    5
    7      0.845D-04      0.434D-05      -323.61684898    820.213104   -1.66451    0.07235    0.00021    6
    8      0.108D-04      0.123D-05      -323.61684899    820.214092   -1.66482    0.07241    0.00021    7
    9      0.345D-05      0.270D-06      -323.61684899    820.214128   -1.66479    0.07236    0.00021    6
   10      0.816D-06      0.745D-07      -323.61684899    820.214105   -1.66479    0.07239    0.00021    6
   11      0.186D-06      0.362D-07      -323.61684899    820.214121   -1.66479    0.07238    0.00021    7
   12      0.862D-07      0.762D-08      -323.61684899    820.214115   -1.66479    0.07238    0.00021    7
   13      0.239D-07      0.296D-08      -323.61684899    820.214118   -1.66479    0.07238    0.00021    7
   14      0.713D-08      0.108D-08      -323.61684899    820.214117   -1.66479    0.07238    0.00021    7
   15      0.260D-08      0.548D-09      -323.61684899    820.214117   -1.66479    0.07238    0.00021    8
   16      0.126D-08      0.279D-09      -323.61684899    820.214117   -1.66479    0.07238    0.00021    8
   17      0.777D-09      0.148D-09      -323.61684899    820.214117   -1.66479    0.07238    0.00021    9
   18      0.453D-09      0.437D-10      -323.61684899    820.214117   -1.66479    0.07238    0.00021    9
   19      0.213D-09      0.127D-10      -323.61684899    820.214117   -1.66479    0.07238    0.00021    9
   20      0.198D-09      0.390D-11      -323.61684899    820.214117   -1.66479    0.07238    0.00021    9
   21      0.211D-09      0.154D-11      -323.61684899    820.214117   -1.66479    0.07238    0.00021    9
   22      0.841D-10      0.899D-12      -323.61684899    820.214117   -1.66479    0.07238    0.00021    9
   23      0.748D-10      0.621D-12      -323.61684899    820.214117   -1.66479    0.07238    0.00021    9
   24      0.553D-10      0.558D-12      -323.61684899    820.214117   -1.66479    0.07238    0.00021    9
   25      0.421D-10      0.501D-12      -323.61684899    820.214117   -1.66479    0.07238    0.00021    9
   26      0.349D-10      0.523D-12      -323.61684899    820.214117   -1.66479    0.07238    0.00021    9
   27      0.231D-10      0.433D-12      -323.61684899    820.214117   -1.66479    0.07238    0.00021    9
   28      0.287D-10      0.475D-12      -323.61684899    820.214117   -1.66479    0.07238    0.00021    9
   29      0.161D-10      0.532D-12      -323.61684899    820.214117   -1.66479    0.07238    0.00021    9
   30      0.155D-10      0.491D-12      -323.61684899    820.214117   -1.66479    0.07238    0.00021    9
   31      0.635D-11      0.480D-12      -323.61684899    820.214117   -1.66479    0.07238    0.00021    9
   32      0.896D-11      0.450D-12      -323.61684899    820.214117   -1.66479    0.07238    0.00021    9
   33      0.790D-11      0.467D-12      -323.61684899    820.214117   -1.66479    0.07238    0.00021    9
   34      0.179D-10      0.473D-12      -323.61684899    820.214117   -1.66479    0.07238    0.00021    9
   35      0.155D-10      0.440D-12      -323.61684899    820.214117   -1.66479    0.07238    0.00021    9
   36      0.155D-10      0.501D-12      -323.61684899    820.214117   -1.66479    0.07238    0.00021    9
   37      0.250D-10      0.511D-12      -323.61684899    820.214117   -1.66479    0.07238    0.00021    9
   38      0.254D-10      0.579D-12      -323.61684899    820.214117   -1.66479    0.07238    0.00021    9
   39      0.190D-10      0.522D-12      -323.61684899    820.214117   -1.66479    0.07238    0.00021    9
   40      0.120D-10      0.420D-12      -323.61684899    820.214117   -1.66479    0.07238    0.00021    9
   41      0.210D-10      0.397D-12      -323.61684899    820.214117   -1.66479    0.07238    0.00021    9
   42      0.140D-10      0.443D-12      -323.61684899    820.214117   -1.66479    0.07238    0.00021    9
   43      0.206D-10      0.451D-12      -323.61684899    820.214117   -1.66479    0.07238    0.00021    9
   44      0.153D-10      0.443D-12      -323.61684899    820.214117   -1.66479    0.07238    0.00021    9
   45      0.732D-11      0.482D-12      -323.61684899    820.214117   -1.66479    0.07238    0.00021    9
   46      0.300D-10      0.431D-12      -323.61684899    820.214117   -1.66479    0.07238    0.00021    9
   47      0.273D-10      0.530D-12      -323.61684899    820.214117   -1.66479    0.07238    0.00021    9
   48      0.211D-10      0.458D-12      -323.61684899    820.214117   -1.66479    0.07238    0.00021    9
   49      0.118D-10      0.412D-12      -323.61684899    820.214117   -1.66479    0.07238    0.00021    0

 Final occupancy:  28

 !RHF STATE 1.1 Energy               -323.616848993851
 Nuclear energy                       303.39393138
 One-electron energy                -1037.11783901
 Two-electron energy                  410.10705864
 Virial quotient                       -1.00170946
 !RHF STATE 1.1 Dipole moment          -1.66478805     0.07238366     0.00020723
 Dipole moment /Debye                  -4.23119201     0.18396886     0.00052669

 Orbital energies:

         1.1          2.1          3.1          4.1          5.1          6.1          7.1          8.1          9.1         10.1
    -15.591649   -11.283865   -11.266269   -11.265837   -11.265581   -11.264640   -11.264376   -11.263896    -1.218335    -1.173925

        11.1         12.1         13.1         14.1         15.1         16.1         17.1         18.1         19.1         20.1
     -1.038882    -1.036696    -0.846275    -0.845159    -0.789909    -0.729362    -0.664880    -0.639193    -0.609750    -0.607357

        21.1         22.1         23.1         24.1         25.1         26.1         27.1         28.1         29.1         30.1
     -0.565229    -0.520378    -0.515513    -0.514192    -0.475691    -0.475686    -0.360570    -0.358765     0.055868     0.060038


 **********************************************************************************************************************************
 DATASETS  * FILE   NREC   LENGTH (MB)   RECORD NAMES
              1      19     2153.40       500      610      700      900      950      970     1000      129      960     1100   
                                          VAR    BASINP    GEOM    SYMINP    ZMAT    AOBASIS   BASIS     P2S    ABASIS      S 
                                         1400     1410     1200     1210     1080     1600     1650     1300     1700   
                                           T        V       H0       H01     AOSYM     SMH    MOLCAS    ERIS     OPER   

              2       3        1.49       700     1000     2100   
                                         GEOM     BASIS     RHF  

 PROGRAMS   *        TOTAL       RHF       INT
 CPU TIMES  *       109.39     93.51     15.84
 REAL TIME  *       123.57 SEC
 DISK USED  *         7.99 GB      
 GA USED    *         0.01 MB       (max)       0.00 MB       (current)
 **********************************************************************************************************************************


1PROGRAM * CCSD (Closed-shell coupled cluster)     Authors: C. Hampel, H.-J. Werner, 1991, M. Deegan, P.J. Knowles, 1992


 Convergence thresholds:  THRVAR = 1.00D-08  THRDEN = 1.00D-12

 CCSD(T)     terms to be evaluated (factor= 1.000)


 Number of core orbitals:           8 (   8 )
 Number of closed-shell orbitals:  20 (  20 )
 Number of external orbitals:     191 ( 191 )

 Molecular orbitals read from record     2100.2  Type=RHF/CANONICAL (state 1.1)

 Number of N-1 electron functions:              20
 Number of N-2 electron functions:             210
 Number of singly external CSFs:              3820
 Number of doubly external CSFs:           7298110
 Total number of CSFs:                     7301931

 Length of J-op  integral file:               0.00 MB
 Length of K-op  integral file:               3.32 MB
 Length of 3-ext integral record:             0.00 MB

 Memory could be reduced to 174.82 Mwords without degradation in triples

 Integral transformation finished. Total CPU:  14.22 sec, npass=  1  Memory used: 128.13 MW

 Reference energy:                   -323.61684899

 MP2 singlet pair energy:              -0.67334462
 MP2 triplet pair energy:              -0.43519921
 MP2 correlation energy:               -1.10854383
 MP2 total energy:                   -324.72539283

 SCS-MP2 correlation energy:           -1.07880416   (PS=  1.200000  PT=  0.333333)
 SCS-MP2 total energy:               -324.69565316

 ITER.      SQ.NORM     CORR.ENERGY   TOTAL ENERGY   ENERGY CHANGE        DEN1      VAR(S)    VAR(P)  DIIS     TIME
   1      1.42873426    -1.14462530  -324.76147430    -0.03608147    -0.00288886  0.51D-02  0.99D-02  1  1    60.62
   2      1.46305666    -1.15049873  -324.76734773    -0.00587343    -0.03103140  0.83D-04  0.13D-02  2  2   107.26
   3      1.47634888    -1.15094646  -324.76779545    -0.00044772    -0.00655981  0.40D-04  0.12D-03  3  3   153.94
   4      1.48204137    -1.15119615  -324.76804514    -0.00024969    -0.00178594  0.22D-05  0.15D-04  4  4   200.69
   5      1.48357068    -1.15123185  -324.76808085    -0.00003571    -0.00036583  0.25D-06  0.14D-05  5  5   247.47
   6      1.48387688    -1.15122333  -324.76807233     0.00000852    -0.00005024  0.24D-07  0.91D-07  6  6   294.29
   7      1.48391166    -1.15122675  -324.76807574    -0.00000341    -0.00000225  0.34D-08  0.80D-08  6  2   341.11
   8      1.48391633    -1.15122710  -324.76807610    -0.00000036    -0.00000041  0.41D-09  0.83D-09  6  1   387.91
   9      1.48391655    -1.15122727  -324.76807626    -0.00000017     0.00000079  0.63D-10  0.78D-10  6  3   434.70
  10      1.48391692    -1.15122733  -324.76807632    -0.00000006     0.00000002  0.10D-10  0.99D-11  6  4   481.50
  11      1.48391664    -1.15122736  -324.76807636    -0.00000004     0.00000022  0.17D-11  0.14D-11  6  5   528.26
  12      1.48391648    -1.15122738  -324.76807637    -0.00000001     0.00000008  0.25D-12  0.27D-12  6  6   575.09
  13      1.48391634    -1.15122738  -324.76807637    -0.00000000     0.00000005  0.14D-13  0.52D-13  6  2   621.92
  14      1.48391628    -1.15122738  -324.76807637    -0.00000000     0.00000002  0.22D-14  0.94D-14  6  1   668.71
  15      1.48391625    -1.15122738  -324.76807637     0.00000000     0.00000001  0.47D-15  0.13D-14  6  3   715.54
  16      1.48391624    -1.15122738  -324.76807637    -0.00000000     0.00000000  0.10D-15  0.19D-15  6  4   762.35
  17      1.48391624    -1.15122738  -324.76807637    -0.00000000     0.00000000  0.19D-16  0.28D-16  6  5   809.19
  18      1.48391624    -1.15122738  -324.76807637    -0.00000000     0.00000000  0.38D-17  0.36D-17  6  6   855.97
  19      1.48391624    -1.15122738  -324.76807637    -0.00000000     0.00000000  0.87D-18  0.62D-18  6  2   902.74
  20      1.48391624    -1.15122738  -324.76807637    -0.00000000     0.00000000  0.20D-18  0.13D-18  6  1   949.57
  21      1.48391624    -1.15122738  -324.76807637    -0.00000000     0.00000000  0.76D-19  0.42D-19  6  3   996.37
  22      1.48391624    -1.15122738  -324.76807637     0.00000000     0.00000000  0.36D-19  0.19D-19  6  4  1043.19

 Norm of t1 vector:      0.09773734      S-energy:     0.00000000      T1 diagnostic:  0.01092737
                                                                       D1 diagnostic:  0.02772851

 Doubles amplitudes (print threshold =  0.500E-01):

         I         J         SYM. A    SYM. B    A         B      T(IJ, AB)

        19        19         1         1         8         8     -0.05863780
        20        20         1         1         7         7     -0.05977020


 Total CPU time for triples:   1006.47 sec


 RESULTS
 =======

  Reference energy                   -323.616848993854
  CCSD singlet pair energy             -0.770021642375
  CCSD triplet pair energy             -0.381205738421
  CCSD correlation energy              -1.151227380796

  Triples (T) contribution             -0.054015995416
  Total correlation energy             -1.205243376212

  CCSD total energy                  -324.768076374650
  CCSD[T] energy                     -324.823424702992
  CCSD-T energy                      -324.821486885085
 !CCSD(T) total energy               -324.822092370066

 Timing summary (sec):

 STEP                 CPU(USER)    SYS     CPU(TOT)    WALL
 Transformation         14.69      0.95     15.64     15.66
 CCSD iterations      1028.51     13.59   1042.10   1042.28
 Triples              1006.47     14.69   1021.16   1021.30

 Program statistics:

 Available memory in ccsd:               999998300
 Min. memory needed in ccsd:              17709720
 Max. memory used in ccsd:                24415330
 Max. memory used in cckext:              20754978 (22 integral passes)



 **********************************************************************************************************************************
 DATASETS  * FILE   NREC   LENGTH (MB)   RECORD NAMES
              1      20     2835.57       500      610      700      900      950      970     1000      129      960     1100   
                                          VAR    BASINP    GEOM    SYMINP    ZMAT    AOBASIS   BASIS     P2S    ABASIS      S 
                                         1400     1410     1200     1210     1080     1600     1650     1300     1700     1380   
                                           T        V       H0       H01     AOSYM     SMH    MOLCAS    ERIS     OPER     JKOP   

              2       3        1.49       700     1000     2100   
                                         GEOM     BASIS     RHF  

 PROGRAMS   *        TOTAL   CCSD(T)       RHF       INT
 CPU TIMES  *      2159.07   2049.68     93.51     15.84
 REAL TIME  *      2202.93 SEC
 DISK USED  *         7.99 GB      
 GA USED    *         0.01 MB       (max)       0.00 MB       (current)
 **********************************************************************************************************************************

        CCSD(T)         RHF-SCF 
   -324.82209237   -323.61684899
 **********************************************************************************************************************************
 Variable memory released
