
 Primary working directories    : /tmp/878919.911.gen6.q
 Secondary working directories  : /tmp/878919.911.gen6.q
 Wavefunction directory         : /home/vulcan/lo21740/wfu/
 Main file repository           : /tmp/878919.911.gen6.q/

 ARCHNAME  : Linux/x86_64
 FC        : /opt/intel/compilers_and_libraries_2016.1.150/linux/bin/intel64/ifort
 FCVERSION : 16.0.1
 BLASLIB   : -mkl
 id        : ccgc

 Nodes     nprocs
 n087         1
 ga_uses_ma=false, calling ma_init with nominal heap.
 GA-space will be limited to   8.0 MW (determined by -G option)

 Using customized tuning parameters: mindgm=10; mindgv=16; mindgc=4; mindgr=1; noblas=0; mincuda=1000; minvec=7
 default implementation of scratch files=df  

 ***,Optimization of formamide
 memory,1000,m
 gthresh,energy=1.0d-12,orbital=1.0d-10,oneint=1.0d-16,twoint=1.0d-16,optgrad=1.0d-6,compress=1.0d-13
 geomtyp=xyz
 
 bohr
 geometry = {
  C   -3.8288655419    0.0911518738    0.0000000000
  O   -2.7349645436    2.1431400941   -0.0000000000
  N   -2.6755962309   -2.1744410792   -0.0000000000
  H   -3.7240690772   -3.7562590189   -0.0000000000
  H   -0.7453414120   -2.2979225658   -0.0000000000
  H   -5.9067748943   -0.0125823361    0.0000000000
  C    3.8243900207   -0.0891929793    0.0000000000
  O    2.7343607291   -2.1413040665    0.0000000000
  N    2.6764240000    2.1704471976    0.0000000000
  H    3.7354046372    3.7433188596    0.0000000000
  H    0.7457471839    2.2984309751    0.0000000000
  H    5.8992851288    0.0252130456    0.0000000000
 }
 
 basis=VDZ
 {rhf;maxit,200}
 {ccsd(t);maxit,200}

 Variables initialized (661), CPU time= 0.00 sec
 Commands  initialized (458), CPU time= 0.01 sec, 486 directives.
 Default parameters read. Elapsed time= 0.04 sec

 Checking input...
 Passed
1


                                         ***  PROGRAM SYSTEM MOLPRO  ***
                         Copyright, University College Cardiff Consultants Limited, 2008

                                    Version 2010.1 linked May 16 2016 07:17:05


 **********************************************************************************************************************************
 LABEL *   Optimization of formamide                                                     
 Linux-4.4.3/n087(x86_64) 64 bit mpp version                                             DATE: 22-May-23          TIME: 22:01:37  
 **********************************************************************************************************************************

 SHA1:             9e8077add272b0f3cad6f7df79ec5211205f459d
 **********************************************************************************************************************************

 THRESHOLDS:

 ZERO    =  1.00D-12  ONEINT  =  1.00D-16  TWOINT  =  1.00D-16  PREFAC  =  1.00D-14  LOCALI  =  1.00D-09  EORDER  =  1.00D-04
 ENERGY  =  1.00D-12  ETEST   =  0.00D+00  EDENS   =  0.00D+00  THRDEDEF=  1.00D-06  GRADIENT=  1.00D-02  STEP    =  1.00D-03
 ORBITAL =  1.00D-10  CIVEC   =  1.00D-05  COEFF   =  1.00D-04  PRINTCI =  5.00D-02  PUNCHCI =  9.90D+01  OPTGRAD =  1.00D-06
 OPTENERG=  1.00D-06  OPTSTEP =  3.00D-04  THRGRAD =  1.00D-10  COMPRESS=  1.00D-13  VARMIN  =  1.00D-07  VARMAX  =  1.00D-03
 THRDOUB =  0.00D+00  THRDIV  =  1.00D-05  THRRED  =  1.00D-07  THRPSP  =  1.00D+00  THRDC   =  1.00D-10  THRCS   =  1.00D-10
 THRNRM  =  1.00D-08  THREQ   =  0.00D+00  THRDE   =  1.00D+00  THRREF  =  1.00D-05  SPARFAC =  1.00D+00  THRDLP  =  1.00D-07
 THRDIA  =  1.00D-10  THRDLS  =  1.00D-07  THRGPS  =  0.00D+00  THRKEX  =  0.00D+00  THRDIS  =  2.00D-01  THRVAR  =  1.00D-10
 THRLOC  =  1.00D-06  THRGAP  =  1.00D-06  THRLOCT = -1.00D+00  THRGAPT = -1.00D+00  THRORB  =  1.00D-06  THRMLTP =  0.00D+00
 THRCPQCI=  1.00D-10  KEXTA   =  0.00D+00  THRCOARS=  0.00D+00  SYMTOL  =  1.00D-06  GRADTOL =  1.00D-06  THROVL  =  1.00D-08
 THRORTH =  1.00D-08  GRID    =  1.00D-06  GRIDMAX =  1.00D-03  DTMAX   =  0.00D+00

 SETTING GEOMTYP        =    XYZ
 ZUNIT=BOHR
 

 Variable memory set to 1000000000 words,  buffer space   230000 words

 SETTING BASIS          =    VDZ


 Recomputing integrals since basis changed


 Using spherical harmonics

 Library entry C      S cc-pVDZ              selected for orbital group  1
 Library entry C      P cc-pVDZ              selected for orbital group  1
 Library entry C      D cc-pVDZ              selected for orbital group  1
 Library entry O      S cc-pVDZ              selected for orbital group  2
 Library entry O      P cc-pVDZ              selected for orbital group  2
 Library entry O      D cc-pVDZ              selected for orbital group  2
 Library entry N      S cc-pVDZ              selected for orbital group  3
 Library entry N      P cc-pVDZ              selected for orbital group  3
 Library entry N      D cc-pVDZ              selected for orbital group  3
 Library entry H      S cc-pVDZ              selected for orbital group  4
 Library entry H      P cc-pVDZ              selected for orbital group  4

1PROGRAM * SEWARD (Integral evaluation for generally contracted gaussian basis sets)     Author: Roland Lindh, 1990

 Geometry written to block  1 of record 700


 Point group  Cs  



 ATOMIC COORDINATES

 NR  ATOM    CHARGE       X              Y              Z

   1  C       6.00   -3.828865542    0.091151874    0.000000000
   2  O       8.00   -2.734964544    2.143140094    0.000000000
   3  N       7.00   -2.675596231   -2.174441079    0.000000000
   4  H       1.00   -3.724069077   -3.756259019    0.000000000
   5  H       1.00   -0.745341412   -2.297922566    0.000000000
   6  H       1.00   -5.906774894   -0.012582336    0.000000000
   7  C       6.00    3.824390021   -0.089192979    0.000000000
   8  O       8.00    2.734360729   -2.141304067    0.000000000
   9  N       7.00    2.676424000    2.170447198    0.000000000
  10  H       1.00    3.735404637    3.743318860    0.000000000
  11  H       1.00    0.745747184    2.298430975    0.000000000
  12  H       1.00    5.899285129    0.025213046    0.000000000

 Bond lengths in Bohr (Angstrom)

 1-2  2.325354822  1-3  2.542231605  1-6  2.080497071  3-4  1.897746902  3-5  1.934200440
     ( 1.230524775)     ( 1.345291025)     ( 1.100951633)     ( 1.004244409)     ( 1.023534791)

  7- 8  2.323644502   7- 9  2.534521595   7-12  2.078046787   9-10  1.896144840   9-11  1.934914162
       ( 1.229619712)       ( 1.341211064)       ( 1.099654999)       ( 1.003396634)       ( 1.023912476)

 Bond angles

  1-3-4  119.48472657   1-3-5  120.63806590   2-1-3  124.96047422   2-1-6  120.91974464

  3- 1- 6  114.11978115   4- 3- 5  119.87720753   7- 9-10  119.11650968   7- 9-11  120.72452147

  8- 7- 9  125.09193842   8- 7-12  121.13209682   9- 7-12  113.77596476  10- 9-11  120.15896885

 NUCLEAR CHARGE:                   48
 NUMBER OF PRIMITIVE AOS:         204
 NUMBER OF SYMMETRY AOS:          198
 NUMBER OF CONTRACTIONS:          114   (  84A'  +  30A"  )
 NUMBER OF CORE ORBITALS:           6   (   6A'  +   0A"  )
 NUMBER OF VALENCE ORBITALS:       30   (  24A'  +   6A"  )


 NUCLEAR REPULSION ENERGY  230.60203257


 Eigenvalues of metric

         1 0.554E-02 0.571E-02 0.108E-01 0.113E-01 0.153E-01 0.154E-01 0.238E-01 0.241E-01
         2 0.105E+00 0.106E+00 0.169E+00 0.173E+00 0.192E+00 0.196E+00 0.400E+00 0.408E+00


 Contracted 2-electron integrals neglected if value below      1.0D-16
 AO integral compression algorithm  1   Integral accuracy      1.0D-16

     84.935 MB (compressed) written to integral file ( 86.0%)

     Node minimum: 84.935 MB, node maximum: 84.935 MB


 NUMBER OF SORTED TWO-ELECTRON INTEGRALS:   11462730.     BUFFER LENGTH:  32768
 NUMBER OF SEGMENTS:   1  SEGMENT LENGTH:   11462730      RECORD LENGTH: 524288

 Memory used in sort:      12.02 MW

 SORT1 READ    12322111. AND WROTE    11137081. INTEGRALS IN     32 RECORDS. CPU TIME:     0.15 SEC, REAL TIME:     0.21 SEC
 SORT2 READ    11137081. AND WROTE    11462730. INTEGRALS IN    324 RECORDS. CPU TIME:     0.12 SEC, REAL TIME:     0.16 SEC

 FILE SIZES:   FILE 1:    81.1 MBYTE,  FILE 4:   134.3 MBYTE,   TOTAL:    215.3 MBYTE

 OPERATOR DM      FOR CENTER  0  COORDINATES:    0.000000    0.000000    0.000000


 **********************************************************************************************************************************
 DATASETS  * FILE   NREC   LENGTH (MB)   RECORD NAMES
              1      19       81.18       500      610      700      900      950      970     1000      129      960     1100   
                                          VAR    BASINP    GEOM    SYMINP    ZMAT    AOBASIS   BASIS     P2S    ABASIS      S 
                                         1400     1410     1200     1210     1080     1600     1650     1300     1700   
                                           T        V       H0       H01     AOSYM     SMH    MOLCAS    ERIS     OPER   

 PROGRAMS   *        TOTAL       INT
 CPU TIMES  *         2.16      2.12
 REAL TIME  *         2.49 SEC
 DISK USED  *       301.13 MB      
 GA USED    *         0.00 MB       (max)       0.00 MB       (current)
 **********************************************************************************************************************************

1PROGRAM * RHF-SCF (CLOSED SHELL)       Authors: W. Meyer, H.-J. Werner


 NUMBER OF ELECTRONS:      24+   24-
 CONVERGENCE THRESHOLDS:    1.00E-10 (Density)    1.00E-13 (Energy)
 MAX. NUMBER OF ITERATIONS:      200
 INTERPOLATION TYPE:            DIIS
 INTERPOLATION STEPS:              2 (START)      1 (STEP)
 LEVEL SHIFTS:                  0.00 (CLOSED)  0.00 (OPEN) 



 Orbital guess generated from atomic densities. Full valence occupancy:   30   6

 Molecular orbital dump at record        2100.2

 Initial alpha occupancy:  20   4
 Initial beta  occupancy:  20   4
 Wave function symmetry:    1

 ITERATION    DDIFF          GRAD             ENERGY        2-EL.EN.            DIPOLE MOMENTS         DIIS
    1      0.000D+00      0.000D+00      -337.77966970    705.592879   -0.00498    0.00592    0.00000    0
    2      0.000D+00      0.121D-01      -337.85827744    700.396544   -0.00228    0.00515    0.00000    1
    3      0.242D-01      0.861D-02      -337.91366013    702.871695   -0.00372    0.00432    0.00000    2
    4      0.927D-02      0.114D-02      -337.91575660    702.857308   -0.00356    0.00514    0.00000    3
    5      0.204D-02      0.400D-03      -337.91602339    702.785783   -0.00357    0.00471    0.00000    4
    6      0.735D-03      0.133D-03      -337.91609110    702.804872   -0.00351    0.00500    0.00000    5
    7      0.341D-03      0.597D-04      -337.91610244    702.800418   -0.00353    0.00484    0.00000    6
    8      0.173D-03      0.157D-04      -337.91610314    702.800907   -0.00348    0.00506    0.00000    7
    9      0.441D-04      0.427D-05      -337.91610319    702.800590   -0.00354    0.00480    0.00000    7
   10      0.112D-04      0.204D-05      -337.91610319    702.800640   -0.00350    0.00496    0.00000    7
   11      0.372D-05      0.538D-06      -337.91610319    702.800710   -0.00351    0.00494    0.00000    8
   12      0.127D-05      0.877D-07      -337.91610319    702.800680   -0.00350    0.00494    0.00000    8
   13      0.210D-06      0.337D-07      -337.91610319    702.800686   -0.00351    0.00494    0.00000    8
   14      0.672D-07      0.120D-07      -337.91610319    702.800689   -0.00351    0.00494    0.00000    7
   15      0.316D-07      0.335D-08      -337.91610319    702.800688   -0.00351    0.00494    0.00000    7
   16      0.649D-08      0.749D-09      -337.91610319    702.800688   -0.00351    0.00494    0.00000    7
   17      0.165D-08      0.341D-09      -337.91610319    702.800688   -0.00351    0.00494    0.00000    7
   18      0.731D-09      0.127D-09      -337.91610319    702.800688   -0.00351    0.00494    0.00000    7
   19      0.331D-09      0.473D-10      -337.91610319    702.800688   -0.00351    0.00494    0.00000    8
   20      0.844D-10      0.202D-10      -337.91610319    702.800688   -0.00351    0.00494    0.00000    8
   21      0.469D-10      0.534D-11      -337.91610319    702.800688   -0.00351    0.00494    0.00000    8
   22      0.128D-10      0.133D-11      -337.91610319    702.800688   -0.00351    0.00494    0.00000    0

 Final occupancy:  20   4

 !RHF STATE 1.1 Energy               -337.916103192662
 Nuclear energy                       230.60203257
 One-electron energy                 -919.91847983
 Two-electron energy                  351.40034406
 Virial quotient                       -1.00140670
 !RHF STATE 1.1 Dipole moment          -0.00350545     0.00493933     0.00000000
 Dipole moment /Debye                  -0.00890939     0.01255371     0.00000000

 Orbital energies:

         1.1          2.1          3.1          4.1          5.1          6.1          7.1          8.1          9.1         10.1
    -20.525722   -20.525022   -15.577043   -15.577019   -11.359671   -11.358616    -1.378873    -1.374132    -1.208417    -1.202074

        11.1         12.1         13.1         14.1         15.1         16.1         17.1         18.1         19.1         20.1
     -0.851945    -0.826790    -0.740518    -0.731352    -0.695899    -0.634387    -0.610378    -0.583923    -0.443566    -0.418660

        21.1         22.1
      0.186350     0.188334

         1.2          2.2          3.2          4.2          5.2          6.2
     -0.565385    -0.557882    -0.410585    -0.401037     0.194579     0.201590


 **********************************************************************************************************************************
 DATASETS  * FILE   NREC   LENGTH (MB)   RECORD NAMES
              1      19       81.18       500      610      700      900      950      970     1000      129      960     1100   
                                          VAR    BASINP    GEOM    SYMINP    ZMAT    AOBASIS   BASIS     P2S    ABASIS      S 
                                         1400     1410     1200     1210     1080     1600     1650     1300     1700   
                                           T        V       H0       H01     AOSYM     SMH    MOLCAS    ERIS     OPER   

              2       3        0.62       700     1000     2100   
                                         GEOM     BASIS     RHF  

 PROGRAMS   *        TOTAL       RHF       INT
 CPU TIMES  *         3.49      1.33      2.12
 REAL TIME  *         4.03 SEC
 DISK USED  *       301.13 MB      
 GA USED    *         0.00 MB       (max)       0.00 MB       (current)
 **********************************************************************************************************************************


1PROGRAM * CCSD (Closed-shell coupled cluster)     Authors: C. Hampel, H.-J. Werner, 1991, M. Deegan, P.J. Knowles, 1992


 Convergence thresholds:  THRVAR = 1.00D-08  THRDEN = 1.00D-12

 CCSD(T)     terms to be evaluated (factor= 1.000)


 Number of core orbitals:           6 (   6   0 )
 Number of closed-shell orbitals:  18 (  14   4 )
 Number of external orbitals:      90 (  64  26 )

 Molecular orbitals read from record     2100.2  Type=RHF/CANONICAL (state 1.1)

 Number of N-1 electron functions:              18
 Number of N-2 electron functions:             171
 Number of singly external CSFs:              1000
 Number of doubly external CSFs:            693010
 Total number of CSFs:                      694011

 Length of J-op  integral file:               0.00 MB
 Length of K-op  integral file:               0.59 MB
 Length of 3-ext integral record:             0.00 MB

 Memory could be reduced to 9.94 Mwords without degradation in triples

 Integral transformation finished. Total CPU:   0.38 sec, npass=  1  Memory used:   5.91 MW

 Reference energy:                   -337.91610319

 MP2 singlet pair energy:              -0.58945180
 MP2 triplet pair energy:              -0.38303433
 MP2 correlation energy:               -0.97248613
 MP2 total energy:                   -338.88858932

 SCS-MP2 correlation energy:           -0.94567463   (PS=  1.200000  PT=  0.333333)
 SCS-MP2 total energy:               -338.86177782

 ITER.      SQ.NORM     CORR.ENERGY   TOTAL ENERGY   ENERGY CHANGE        DEN1      VAR(S)    VAR(P)  DIIS     TIME
   1      1.29747695    -1.00448132  -338.92058451    -0.03199519    -0.00239325  0.96D-02  0.55D-02  1  1     1.54
   2      1.32234175    -1.00712686  -338.92323005    -0.00264554    -0.02512136  0.22D-03  0.10D-02  2  2     2.73
   3      1.33495678    -1.00809741  -338.92420060    -0.00097055    -0.00559332  0.21D-03  0.47D-04  3  3     3.94
   4      1.34030479    -1.00786901  -338.92397220     0.00022840    -0.00169245  0.20D-04  0.80D-05  4  4     5.14
   5      1.34240617    -1.00780554  -338.92390874     0.00006347    -0.00043352  0.19D-05  0.10D-05  5  5     6.34
   6      1.34287183    -1.00777489  -338.92387809     0.00003065    -0.00004131  0.15D-06  0.13D-06  6  6     7.54
   7      1.34297649    -1.00776527  -338.92386846     0.00000962    -0.00000526  0.14D-07  0.15D-07  6  2     8.74
   8      1.34299432    -1.00776537  -338.92386856    -0.00000010     0.00000000  0.17D-08  0.17D-08  6  1     9.94
   9      1.34299580    -1.00776506  -338.92386825     0.00000031     0.00000149  0.29D-09  0.21D-09  6  4    11.14
  10      1.34299880    -1.00776502  -338.92386821     0.00000004    -0.00000043  0.75D-10  0.20D-10  6  3    12.32
  11      1.34299870    -1.00776509  -338.92386829    -0.00000007     0.00000017  0.15D-10  0.49D-11  6  5    13.53
  12      1.34299851    -1.00776511  -338.92386831    -0.00000002     0.00000008  0.32D-11  0.12D-11  6  6    14.73
  13      1.34299827    -1.00776515  -338.92386834    -0.00000003     0.00000010  0.42D-12  0.20D-12  6  2    15.91
  14      1.34299816    -1.00776515  -338.92386835    -0.00000001     0.00000003  0.88D-13  0.31D-13  6  1    17.12
  15      1.34299814    -1.00776515  -338.92386835    -0.00000000     0.00000000  0.14D-13  0.78D-14  6  4    18.32
  16      1.34299813    -1.00776516  -338.92386835    -0.00000000    -0.00000000  0.34D-14  0.13D-14  6  3    19.52
  17      1.34299813    -1.00776516  -338.92386835    -0.00000000    -0.00000000  0.84D-15  0.19D-15  6  5    20.71
  18      1.34299813    -1.00776516  -338.92386835    -0.00000000     0.00000000  0.60D-16  0.57D-16  6  6    21.90
  19      1.34299813    -1.00776516  -338.92386835    -0.00000000     0.00000000  0.28D-16  0.55D-17  6  4    23.09
  20      1.34299812    -1.00776516  -338.92386835    -0.00000000     0.00000000  0.16D-17  0.86D-18  6  2    24.29
  21      1.34299812    -1.00776516  -338.92386835    -0.00000000     0.00000000  0.35D-18  0.15D-18  6  1    25.50
  22      1.34299812    -1.00776516  -338.92386835     0.00000000    -0.00000000  0.81D-19  0.19D-19  6  3    26.71
  23      1.34299812    -1.00776516  -338.92386835     0.00000000    -0.00000000  0.12D-19  0.60D-20  6  5    27.91
  24      1.34299812    -1.00776516  -338.92386835     0.00000000    -0.00000000  0.17D-20  0.64D-21  6  6    29.11
  25      1.34299812    -1.00776516  -338.92386835     0.00000000     0.00000000  0.27D-21  0.13D-21  6  4    30.30
  26      1.34299812    -1.00776516  -338.92386835     0.00000000     0.00000000  0.73D-22  0.22D-22  6  2    31.50

 Norm of t1 vector:      0.14879807      S-energy:     0.00000000      T1 diagnostic:  0.01753602
                                                                       D1 diagnostic:  0.06215761

 Singles amplitudes (print threshold =  0.500E-01):

         I         SYM. A    A   T(IA)

        15         2         1      0.05713524
        16         2         2     -0.05805937


 Total CPU time for triples:     16.48 sec


 RESULTS
 =======

  Reference energy                   -337.916103192661
  CCSD singlet pair energy             -0.667695467969
  CCSD triplet pair energy             -0.340069688213
  CCSD correlation energy              -1.007765156180

  Triples (T) contribution             -0.032206933021
  Total correlation energy             -1.039972089201

  CCSD total energy                  -338.923868348841
  CCSD[T] energy                     -338.959061884261
  CCSD-T energy                      -338.955099247900
 !CCSD(T) total energy               -338.956075281863

 Timing summary (sec):

 STEP                 CPU(USER)    SYS     CPU(TOT)    WALL
 Transformation          0.40      0.06      0.46      0.46
 CCSD iterations        31.10      0.98     32.08     32.13
 Triples                16.48      0.49     16.97     16.98

 Program statistics:

 Available memory in ccsd:               999998604
 Min. memory needed in ccsd:               1904590
 Max. memory used in ccsd:                 2522532
 Max. memory used in cckext:               2734922 (26 integral passes)



 **********************************************************************************************************************************
 DATASETS  * FILE   NREC   LENGTH (MB)   RECORD NAMES
              1      20      123.98       500      610      700      900      950      970     1000      129      960     1100   
                                          VAR    BASINP    GEOM    SYMINP    ZMAT    AOBASIS   BASIS     P2S    ABASIS      S 
                                         1400     1410     1200     1210     1080     1600     1650     1300     1700     1380   
                                           T        V       H0       H01     AOSYM     SMH    MOLCAS    ERIS     OPER     JKOP   

              2       3        0.62       700     1000     2100   
                                         GEOM     BASIS     RHF  

 PROGRAMS   *        TOTAL   CCSD(T)       RHF       INT
 CPU TIMES  *        51.49     48.00      1.33      2.12
 REAL TIME  *        53.63 SEC
 DISK USED  *       332.26 MB      
 GA USED    *         0.00 MB       (max)       0.00 MB       (current)
 **********************************************************************************************************************************

        CCSD(T)         RHF-SCF 
   -338.95607528   -337.91610319
 **********************************************************************************************************************************
 Variable memory released
