
 Primary working directories    : /tmp/985636.1362.gen4.q
 Secondary working directories  : /tmp/985636.1362.gen4.q
 Wavefunction directory         : /home/vulcan/jj04645/wfu/
 Main file repository           : /tmp/985636.1362.gen4.q/

 ARCHNAME  : Linux/x86_64
 FC        : /opt/intel/compilers_and_libraries_2016.1.150/linux/bin/intel64/ifort
 FCVERSION : 16.0.1
 BLASLIB   : -mkl
 id        : ccgc

 Nodes     nprocs
 n067         1
 ga_uses_ma=false, calling ma_init with nominal heap.
 GA-space will be limited to   8.0 MW (determined by -G option)

 Using customized tuning parameters: mindgm=10; mindgv=16; mindgc=4; mindgr=1; noblas=0; mincuda=1000; minvec=7
 default implementation of scratch files=df  

 ***,Optimization of tetrahydrothiopyran
 memory,1000,m
 gthresh,energy=1.0d-12,orbital=1.0d-10,oneint=1.0d-16,twoint=1.0d-16,optgrad=1.0d-6,compress=1.0d-13
 geomtyp=xyz
 
 bohr
 geometry = {
  S    0.3542538432    2.6992059941    0.0001101963
  C   -0.3309114945   -3.3655968940   -0.0023786201
  C   -0.6615649452    0.6699160926   -2.5820602868
  C   -0.6622973004    0.6678803055    2.5803910797
  C    0.4719894135   -1.9812664525   -2.4156216836
  C    0.4713045320   -1.9831702743    2.4121832060
  H   -2.7274782306    0.5651512255   -2.5897310189
  H   -2.7282126672    0.5631096507    2.5873930297
  H   -0.0724996313    1.6328407861   -4.3081581915
  H   -0.0737218592    1.6294432829    4.3074149582
  H    2.5340989738   -1.8369780150   -2.4821704693
  H    2.5333951117   -1.8389346008    2.4794308402
  H   -0.1281536130   -3.0732652756   -4.0678175466
  H   -0.1293071219   -3.0764717560    4.0633469664
  H    0.4638002570   -5.2726502981    0.0086606035
  H   -2.3934302845   -3.5790351878    0.0090069367
 }
 
 basis=VDZ
 {rhf;maxit,200}
 {ccsd(t);maxit,200}

 Variables initialized (661), CPU time= 0.01 sec
 Commands  initialized (458), CPU time= 0.00 sec, 486 directives.
 Default parameters read. Elapsed time= 0.04 sec

 Checking input...
 Passed
1


                                         ***  PROGRAM SYSTEM MOLPRO  ***
                         Copyright, University College Cardiff Consultants Limited, 2008

                                    Version 2010.1 linked May 16 2016 07:17:05


 **********************************************************************************************************************************
 LABEL *   Optimization of tetrahydrothiopyran                                           
 Linux-4.4.3/n067(x86_64) 64 bit mpp version                                             DATE: 26-Jan-24          TIME: 17:29:14  
 **********************************************************************************************************************************

 SHA1:             9e8077add272b0f3cad6f7df79ec5211205f459d
 **********************************************************************************************************************************

 THRESHOLDS:

 ZERO    =  1.00D-12  ONEINT  =  1.00D-16  TWOINT  =  1.00D-16  PREFAC  =  1.00D-14  LOCALI  =  1.00D-09  EORDER  =  1.00D-04
 ENERGY  =  1.00D-12  ETEST   =  0.00D+00  EDENS   =  0.00D+00  THRDEDEF=  1.00D-06  GRADIENT=  1.00D-02  STEP    =  1.00D-03
 ORBITAL =  1.00D-10  CIVEC   =  1.00D-05  COEFF   =  1.00D-04  PRINTCI =  5.00D-02  PUNCHCI =  9.90D+01  OPTGRAD =  1.00D-06
 OPTENERG=  1.00D-06  OPTSTEP =  3.00D-04  THRGRAD =  1.00D-10  COMPRESS=  1.00D-13  VARMIN  =  1.00D-07  VARMAX  =  1.00D-03
 THRDOUB =  0.00D+00  THRDIV  =  1.00D-05  THRRED  =  1.00D-07  THRPSP  =  1.00D+00  THRDC   =  1.00D-10  THRCS   =  1.00D-10
 THRNRM  =  1.00D-08  THREQ   =  0.00D+00  THRDE   =  1.00D+00  THRREF  =  1.00D-05  SPARFAC =  1.00D+00  THRDLP  =  1.00D-07
 THRDIA  =  1.00D-10  THRDLS  =  1.00D-07  THRGPS  =  0.00D+00  THRKEX  =  0.00D+00  THRDIS  =  2.00D-01  THRVAR  =  1.00D-10
 THRLOC  =  1.00D-06  THRGAP  =  1.00D-06  THRLOCT = -1.00D+00  THRGAPT = -1.00D+00  THRORB  =  1.00D-06  THRMLTP =  0.00D+00
 THRCPQCI=  1.00D-10  KEXTA   =  0.00D+00  THRCOARS=  0.00D+00  SYMTOL  =  1.00D-06  GRADTOL =  1.00D-06  THROVL  =  1.00D-08
 THRORTH =  1.00D-08  GRID    =  1.00D-06  GRIDMAX =  1.00D-03  DTMAX   =  0.00D+00

 SETTING GEOMTYP        =    XYZ
 ZUNIT=BOHR
 

 Variable memory set to 1000000000 words,  buffer space   230000 words

 SETTING BASIS          =    VDZ


 Recomputing integrals since basis changed


 Using spherical harmonics

 Library entry S      S cc-pVDZ              selected for orbital group  1
 Library entry S      P cc-pVDZ              selected for orbital group  1
 Library entry S      D cc-pVDZ              selected for orbital group  1
 Library entry C      S cc-pVDZ              selected for orbital group  2
 Library entry C      P cc-pVDZ              selected for orbital group  2
 Library entry C      D cc-pVDZ              selected for orbital group  2
 Library entry H      S cc-pVDZ              selected for orbital group  3
 Library entry H      P cc-pVDZ              selected for orbital group  3

1PROGRAM * SEWARD (Integral evaluation for generally contracted gaussian basis sets)     Author: Roland Lindh, 1990

 Geometry written to block  1 of record 700


 Point group  C1  



 ATOMIC COORDINATES

 NR  ATOM    CHARGE       X              Y              Z

   1  S      16.00    0.354253843    2.699205994    0.000110196
   2  C       6.00   -0.330911495   -3.365596894   -0.002378620
   3  C       6.00   -0.661564945    0.669916093   -2.582060287
   4  C       6.00   -0.662297300    0.667880305    2.580391080
   5  C       6.00    0.471989414   -1.981266453   -2.415621684
   6  C       6.00    0.471304532   -1.983170274    2.412183206
   7  H       1.00   -2.727478231    0.565151225   -2.589731019
   8  H       1.00   -2.728212667    0.563109651    2.587393030
   9  H       1.00   -0.072499631    1.632840786   -4.308158191
  10  H       1.00   -0.073721859    1.629443283    4.307414958
  11  H       1.00    2.534098974   -1.836978015   -2.482170469
  12  H       1.00    2.533395112   -1.838934601    2.479430840
  13  H       1.00   -0.128153613   -3.073265276   -4.067817547
  14  H       1.00   -0.129307122   -3.076471756    4.063346966
  15  H       1.00    0.463800257   -5.272650298    0.008660604
  16  H       1.00   -2.393430284   -3.579035188    0.009006937

 Bond lengths in Bohr (Angstrom)

  1- 3  3.437660501   1- 4  3.437660501   2- 5  2.895645476   2- 6  2.895645476   2-15  2.066044849
       ( 1.819131589)       ( 1.819131589)       ( 1.532309591)       ( 1.532309591)       ( 1.093303847)

  2-16  2.073564394   3- 5  2.888150997   3- 7  2.068582176   3- 9  2.062434456   4- 6  2.888150997
       ( 1.097283019)       ( 1.528343684)       ( 1.094646543)       ( 1.091393309)       ( 1.528343684)

  4- 8  2.068582176   4-10  2.062434456   5-11  2.068222361   5-13  2.069392242   6-12  2.068222361
       ( 1.094646543)       ( 1.091393309)       ( 1.094456136)       ( 1.095075211)       ( 1.094456136)

  6-14  2.069392242
       ( 1.095075211)

 Bond angles

  1-3-5  112.49558705   1-3-7  109.13517821   1-3-9  105.58333872   1-4-6  112.49558732

  1- 4- 8  109.13517816   1- 4-10  105.58333867   2- 5- 3  112.21281663   2- 5-11  109.67156734

  2- 5-13  109.43267511   2- 6- 4  112.21281634   2- 6-12  109.67156739   2- 6-14  109.43267517

  3- 1- 4   97.33107620   3- 5-11  108.99161289   3- 5-13  108.93892947   4- 6-12  108.99161295

  4- 6-14  108.93892953   5- 2- 6  112.94731527   5- 2-15  109.82083457   5- 2-16  109.24372823

  5- 3- 7  110.22461977   5- 3- 9  111.38974964   6- 2-15  109.24787676   6- 2-16  108.67077042

  6- 4- 8  110.22461972   6- 4-10  111.38974959   7- 3- 9  107.80572092   8- 4-10  107.80572086

 11- 5-13  107.47420333  12- 6-14  107.47420339  15- 2-16  106.71213991

 NUCLEAR CHARGE:                   56
 NUMBER OF PRIMITIVE AOS:         247
 NUMBER OF SYMMETRY AOS:          241
 NUMBER OF CONTRACTIONS:          138   ( 138A   )
 NUMBER OF CORE ORBITALS:          10   (  10A   )
 NUMBER OF VALENCE ORBITALS:       34   (  34A   )


 NUCLEAR REPULSION ENERGY  312.12779437


 Eigenvalues of metric

         1 0.285E-02 0.305E-02 0.426E-02 0.634E-02 0.704E-02 0.151E-01 0.157E-01 0.196E-01


 Contracted 2-electron integrals neglected if value below      1.0D-16
 AO integral compression algorithm  1   Integral accuracy      1.0D-16

     374.079 MB (compressed) written to integral file ( 94.2%)

     Node minimum: 374.079 MB, node maximum: 374.079 MB


 NUMBER OF SORTED TWO-ELECTRON INTEGRALS:   45998436.     BUFFER LENGTH:  32768
 NUMBER OF SEGMENTS:   3  SEGMENT LENGTH:   15998004      RECORD LENGTH: 524288

 Memory used in sort:      16.56 MW

 SORT1 READ    49669917. AND WROTE    45796732. INTEGRALS IN    132 RECORDS. CPU TIME:     0.51 SEC, REAL TIME:     0.77 SEC
 SORT2 READ    45796732. AND WROTE    45998436. INTEGRALS IN   1427 RECORDS. CPU TIME:     0.35 SEC, REAL TIME:     0.55 SEC

 FILE SIZES:   FILE 1:   349.6 MBYTE,  FILE 4:   553.7 MBYTE,   TOTAL:    903.3 MBYTE

 OPERATOR DM      FOR CENTER  0  COORDINATES:    0.000000    0.000000    0.000000


 **********************************************************************************************************************************
 DATASETS  * FILE   NREC   LENGTH (MB)   RECORD NAMES
              1      19      349.81       500      610      700      900      950      970     1000      129      960     1100   
                                          VAR    BASINP    GEOM    SYMINP    ZMAT    AOBASIS   BASIS     P2S    ABASIS      S 
                                         1400     1410     1200     1210     1080     1600     1650     1300     1700   
                                           T        V       H0       H01     AOSYM     SMH    MOLCAS    ERIS     OPER   

 PROGRAMS   *        TOTAL       INT
 CPU TIMES  *         5.27      5.23
 REAL TIME  *         6.07 SEC
 DISK USED  *         1.28 GB      
 GA USED    *         0.01 MB       (max)       0.00 MB       (current)
 **********************************************************************************************************************************

1PROGRAM * RHF-SCF (CLOSED SHELL)       Authors: W. Meyer, H.-J. Werner


 NUMBER OF ELECTRONS:      28+   28-    SPACE SYMMETRY=1    SPIN SYMMETRY: Singlet 
 CONVERGENCE THRESHOLDS:    1.00E-10 (Density)    1.00E-13 (Energy)
 MAX. NUMBER OF ITERATIONS:      200
 INTERPOLATION TYPE:            DIIS
 INTERPOLATION STEPS:              2 (START)      1 (STEP)
 LEVEL SHIFTS:                  0.00 (CLOSED)  0.00 (OPEN) 



 Orbital guess generated from atomic densities. Full valence occupancy:   44

 Molecular orbital dump at record        2100.2

 ITERATION    DDIFF          GRAD             ENERGY        2-EL.EN.            DIPOLE MOMENTS         DIIS
    1      0.000D+00      0.000D+00      -592.64386915   1056.821819   -0.40785   -0.80328    0.00051    0
    2      0.000D+00      0.396D-02      -592.70488797   1054.236187   -0.20785   -0.73849   -0.00011    1
    3      0.777D-02      0.132D-02      -592.71082492   1055.673015   -0.27997   -0.67574   -0.00026    2
    4      0.269D-02      0.540D-03      -592.71183502   1055.053534   -0.25292   -0.70891   -0.00031    3
    5      0.931D-03      0.774D-04      -592.71186080   1055.116684   -0.24895   -0.70044   -0.00034    4
    6      0.181D-03      0.267D-04      -592.71186334   1055.085800   -0.25069   -0.70072   -0.00034    5
    7      0.505D-04      0.620D-05      -592.71186355   1055.088923   -0.25003   -0.70061   -0.00034    6
    8      0.165D-04      0.174D-05      -592.71186357   1055.088065   -0.25001   -0.70047   -0.00034    7
    9      0.540D-05      0.455D-06      -592.71186357   1055.087946   -0.25000   -0.70043   -0.00034    7
   10      0.127D-05      0.162D-06      -592.71186357   1055.087984   -0.24999   -0.70043   -0.00034    7
   11      0.481D-06      0.344D-07      -592.71186357   1055.087970   -0.24999   -0.70043   -0.00034    7
   12      0.114D-06      0.691D-08      -592.71186357   1055.087976   -0.24999   -0.70042   -0.00034    7
   13      0.183D-07      0.289D-08      -592.71186357   1055.087973   -0.24999   -0.70042   -0.00034    7
   14      0.635D-08      0.850D-09      -592.71186357   1055.087974   -0.24999   -0.70042   -0.00034    7
   15      0.227D-08      0.277D-09      -592.71186357   1055.087973   -0.24999   -0.70042   -0.00034    7
   16      0.661D-09      0.857D-10      -592.71186357   1055.087973   -0.24999   -0.70042   -0.00034    8
   17      0.206D-09      0.192D-10      -592.71186357   1055.087974   -0.24999   -0.70042   -0.00034    7
   18      0.504D-10      0.614D-11      -592.71186357   1055.087973   -0.24999   -0.70042   -0.00034    7
   19      0.188D-10      0.219D-11      -592.71186357   1055.087974   -0.24999   -0.70042   -0.00034    8
   20      0.616D-11      0.737D-12      -592.71186357   1055.087974   -0.24999   -0.70042   -0.00034    8
   21      0.232D-11      0.273D-12      -592.71186357   1055.087974   -0.24999   -0.70042   -0.00034    8
   22      0.981D-12      0.875D-13      -592.71186357   1055.087974   -0.24999   -0.70042   -0.00034    0

 Final occupancy:  28

 !RHF STATE 1.1 Energy               -592.711863569429
 Nuclear energy                       312.12779437
 One-electron energy                -1432.38364469
 Two-electron energy                  527.54398675
 Virial quotient                       -1.00019602
 !RHF STATE 1.1 Dipole moment          -0.24998801    -0.70042418    -0.00033661
 Dipole moment /Debye                  -0.63536453    -1.78018409    -0.00085553

 Orbital energies:

         1.1          2.1          3.1          4.1          5.1          6.1          7.1          8.1          9.1         10.1
    -91.929848   -11.255020   -11.254896   -11.231130   -11.230845   -11.229186    -8.933734    -6.615632    -6.614191    -6.611993

        11.1         12.1         13.1         14.1         15.1         16.1         17.1         18.1         19.1         20.1
     -1.119563    -1.019947    -1.006516    -0.842432    -0.835809    -0.755697    -0.646745    -0.614646    -0.609759    -0.578149

        21.1         22.1         23.1         24.1         25.1         26.1         27.1         28.1         29.1         30.1
     -0.547117    -0.523429    -0.497760    -0.495646    -0.472904    -0.434424    -0.412067    -0.328750     0.176963     0.190111


 **********************************************************************************************************************************
 DATASETS  * FILE   NREC   LENGTH (MB)   RECORD NAMES
              1      19      349.81       500      610      700      900      950      970     1000      129      960     1100   
                                          VAR    BASINP    GEOM    SYMINP    ZMAT    AOBASIS   BASIS     P2S    ABASIS      S 
                                         1400     1410     1200     1210     1080     1600     1650     1300     1700   
                                           T        V       H0       H01     AOSYM     SMH    MOLCAS    ERIS     OPER   

              2       3        0.92       700     1000     2100   
                                         GEOM     BASIS     RHF  

 PROGRAMS   *        TOTAL       RHF       INT
 CPU TIMES  *        13.12      7.85      5.23
 REAL TIME  *        14.82 SEC
 DISK USED  *         1.28 GB      
 GA USED    *         0.01 MB       (max)       0.00 MB       (current)
 **********************************************************************************************************************************


1PROGRAM * CCSD (Closed-shell coupled cluster)     Authors: C. Hampel, H.-J. Werner, 1991, M. Deegan, P.J. Knowles, 1992


 Convergence thresholds:  THRVAR = 1.00D-08  THRDEN = 1.00D-12

 CCSD(T)     terms to be evaluated (factor= 1.000)


 Number of core orbitals:          10 (  10 )
 Number of closed-shell orbitals:  18 (  18 )
 Number of external orbitals:     110 ( 110 )

 Molecular orbitals read from record     2100.2  Type=RHF/CANONICAL (state 1.1)

 Number of N-1 electron functions:              18
 Number of N-2 electron functions:             171
 Number of singly external CSFs:              1980
 Number of doubly external CSFs:           1961190
 Total number of CSFs:                     1963171

 Length of J-op  integral file:               0.00 MB
 Length of K-op  integral file:               1.35 MB
 Length of 3-ext integral record:             0.00 MB

 Memory could be reduced to 32.58 Mwords without degradation in triples

 Integral transformation finished. Total CPU:   2.66 sec, npass=  1  Memory used:  30.89 MW

 Reference energy:                   -592.71186357

 MP2 singlet pair energy:              -0.53947006
 MP2 triplet pair energy:              -0.30437431
 MP2 correlation energy:               -0.84384437
 MP2 total energy:                   -593.55570794

 SCS-MP2 correlation energy:           -0.83675253   (PS=  1.200000  PT=  0.333333)
 SCS-MP2 total energy:               -593.54861610

 ITER.      SQ.NORM     CORR.ENERGY   TOTAL ENERGY   ENERGY CHANGE        DEN1      VAR(S)    VAR(P)  DIIS     TIME
   1      1.33971539    -0.91081839  -593.62268196    -0.06697401    -0.04301391  0.26D-02  0.55D-02  1  1    10.65
   2      1.36671281    -0.91616594  -593.62802951    -0.00534755    -0.02577783  0.69D-04  0.46D-03  2  2    18.75
   3      1.37204748    -0.91629377  -593.62815734    -0.00012783    -0.00303836  0.16D-04  0.28D-04  3  3    26.85
   4      1.37354101    -0.91635183  -593.62821540    -0.00005806    -0.00059404  0.76D-06  0.20D-05  4  4    34.96
   5      1.37378185    -0.91635843  -593.62822200    -0.00000661    -0.00007090  0.17D-06  0.16D-06  5  5    43.07
   6      1.37382754    -0.91635398  -593.62821755     0.00000445    -0.00001393  0.30D-07  0.14D-07  6  6    51.19
   7      1.37383514    -0.91635387  -593.62821744     0.00000011     0.00000064  0.53D-08  0.23D-08  6  2    59.31
   8      1.37384122    -0.91635356  -593.62821713     0.00000031    -0.00000125  0.73D-09  0.27D-09  6  1    67.43
   9      1.37384205    -0.91635349  -593.62821706     0.00000006     0.00000051  0.65D-10  0.44D-10  6  4    75.56
  10      1.37384293    -0.91635346  -593.62821703     0.00000003    -0.00000011  0.47D-11  0.35D-11  6  3    83.70
  11      1.37384294    -0.91635346  -593.62821703    -0.00000000     0.00000004  0.11D-11  0.53D-12  6  5    91.83
  12      1.37384291    -0.91635347  -593.62821703    -0.00000000     0.00000002  0.17D-12  0.76D-13  6  6    99.95
  13      1.37384286    -0.91635347  -593.62821704    -0.00000000     0.00000002  0.23D-13  0.10D-13  6  1   108.06
  14      1.37384285    -0.91635347  -593.62821704    -0.00000000     0.00000000  0.30D-14  0.12D-14  6  2   116.19
  15      1.37384285    -0.91635347  -593.62821704     0.00000000    -0.00000000  0.66D-15  0.30D-15  6  4   124.32
  16      1.37384285    -0.91635347  -593.62821704     0.00000000    -0.00000000  0.31D-16  0.22D-16  6  5   132.43
  17      1.37384285    -0.91635347  -593.62821704     0.00000000    -0.00000000  0.55D-17  0.23D-17  6  3   140.55
  18      1.37384285    -0.91635347  -593.62821704     0.00000000    -0.00000000  0.18D-17  0.47D-18  6  6   148.68
  19      1.37384285    -0.91635347  -593.62821704     0.00000000    -0.00000000  0.36D-18  0.11D-18  6  1   156.81
  20      1.37384285    -0.91635347  -593.62821704     0.00000000     0.00000000  0.44D-19  0.17D-19  6  2   164.93
  21      1.37384285    -0.91635347  -593.62821704    -0.00000000     0.00000000  0.79D-20  0.34D-20  6  4   173.05

 Norm of t1 vector:      0.07015976      S-energy:    -0.00000000      T1 diagnostic:  0.00826841
                                                                       D1 diagnostic:  0.02107322


 Total CPU time for triples:    122.94 sec


 RESULTS
 =======

  Reference energy                   -592.711863569429
  CCSD singlet pair energy             -0.634225857313
  CCSD triplet pair energy             -0.282127610104
  CCSD correlation energy              -0.916353467417

  Triples (T) contribution             -0.029870649178
  Total correlation energy             -0.946224116595

  CCSD total energy                  -593.628217036846
  CCSD[T] energy                     -593.658707245573
  CCSD-T energy                      -593.657776384127
 !CCSD(T) total energy               -593.658087686024

 Timing summary (sec):

 STEP                 CPU(USER)    SYS     CPU(TOT)    WALL
 Transformation          2.77      0.22      2.99      2.99
 CCSD iterations       170.29      2.93    173.22    173.26
 Triples               122.94      2.25    125.19    125.20

 Program statistics:

 Available memory in ccsd:               999998604
 Min. memory needed in ccsd:               5123362
 Max. memory used in ccsd:                 6867976
 Max. memory used in cckext:               6836871 (21 integral passes)



 **********************************************************************************************************************************
 DATASETS  * FILE   NREC   LENGTH (MB)   RECORD NAMES
              1      20      486.19       500      610      700      900      950      970     1000      129      960     1100   
                                          VAR    BASINP    GEOM    SYMINP    ZMAT    AOBASIS   BASIS     P2S    ABASIS      S 
                                         1400     1410     1200     1210     1080     1600     1650     1300     1700     1380   
                                           T        V       H0       H01     AOSYM     SMH    MOLCAS    ERIS     OPER     JKOP   

              2       3        0.92       700     1000     2100   
                                         GEOM     BASIS     RHF  

 PROGRAMS   *        TOTAL   CCSD(T)       RHF       INT
 CPU TIMES  *       309.14    296.02      7.85      5.23
 REAL TIME  *       316.33 SEC
 DISK USED  *         1.28 GB      
 GA USED    *         0.01 MB       (max)       0.00 MB       (current)
 **********************************************************************************************************************************

        CCSD(T)         RHF-SCF 
   -593.65808769   -592.71186357
 **********************************************************************************************************************************
 Variable memory released
