
 Primary working directories    : /tmp/862144.143.gen4.q
 Secondary working directories  : /tmp/862144.143.gen4.q
 Wavefunction directory         : /home/vulcan/lo21740/wfu/
 Main file repository           : /tmp/862144.143.gen4.q/

 ARCHNAME  : Linux/x86_64
 FC        : /opt/intel/compilers_and_libraries_2016.1.150/linux/bin/intel64/ifort
 FCVERSION : 16.0.1
 BLASLIB   : -mkl
 id        : ccgc

 Nodes     nprocs
 n066         1
 ga_uses_ma=false, calling ma_init with nominal heap.
 GA-space will be limited to   8.0 MW (determined by -G option)

 Using customized tuning parameters: mindgm=10; mindgv=16; mindgc=4; mindgr=1; noblas=0; mincuda=1000; minvec=7
 default implementation of scratch files=df  

 ***,Optimization of formic acid
 memory,1000,m
 gthresh,energy=1.0d-12,orbital=1.0d-10,oneint=1.0d-16,twoint=1.0d-16,optgrad=1.0d-6,compress=1.0d-13
 geomtyp=xyz
 
 bohr
 geometry = {
  C   -3.5026115830   -0.8294882042   -0.0019764323
  O   -3.0930894922    1.6217833920    0.0003211923
  O   -1.8839777986   -2.4817638862    0.0006205064
  H   -5.5192207722   -1.2736014788    0.0005927764
  H   -1.2434785783    1.9544000102    0.0004461651
  C    3.4986083769    0.8320577068   -0.0019764691
  O    3.0956048346   -1.6235726087    0.0003178852
  O    1.8868033410    2.4806840242    0.0006134637
  H    5.5204773756    1.2731526057    0.0005977307
  H    1.2408842962   -1.9536515609    0.0004431815
 }
 
 basis=VDZ
 {rhf;maxit,200}
 {ccsd(t);maxit,200}

 Variables initialized (661), CPU time= 0.00 sec
 Commands  initialized (458), CPU time= 0.00 sec, 486 directives.
 Default parameters read. Elapsed time= 0.05 sec

 Checking input...
 Passed
1


                                         ***  PROGRAM SYSTEM MOLPRO  ***
                         Copyright, University College Cardiff Consultants Limited, 2008

                                    Version 2010.1 linked May 16 2016 07:17:05


 **********************************************************************************************************************************
 LABEL *   Optimization of formic acid                                                   
 Linux-4.4.3/n066(x86_64) 64 bit mpp version                                             DATE: 26-Apr-23          TIME: 17:52:21  
 **********************************************************************************************************************************

 SHA1:             9e8077add272b0f3cad6f7df79ec5211205f459d
 **********************************************************************************************************************************

 THRESHOLDS:

 ZERO    =  1.00D-12  ONEINT  =  1.00D-16  TWOINT  =  1.00D-16  PREFAC  =  1.00D-14  LOCALI  =  1.00D-09  EORDER  =  1.00D-04
 ENERGY  =  1.00D-12  ETEST   =  0.00D+00  EDENS   =  0.00D+00  THRDEDEF=  1.00D-06  GRADIENT=  1.00D-02  STEP    =  1.00D-03
 ORBITAL =  1.00D-10  CIVEC   =  1.00D-05  COEFF   =  1.00D-04  PRINTCI =  5.00D-02  PUNCHCI =  9.90D+01  OPTGRAD =  1.00D-06
 OPTENERG=  1.00D-06  OPTSTEP =  3.00D-04  THRGRAD =  1.00D-10  COMPRESS=  1.00D-13  VARMIN  =  1.00D-07  VARMAX  =  1.00D-03
 THRDOUB =  0.00D+00  THRDIV  =  1.00D-05  THRRED  =  1.00D-07  THRPSP  =  1.00D+00  THRDC   =  1.00D-10  THRCS   =  1.00D-10
 THRNRM  =  1.00D-08  THREQ   =  0.00D+00  THRDE   =  1.00D+00  THRREF  =  1.00D-05  SPARFAC =  1.00D+00  THRDLP  =  1.00D-07
 THRDIA  =  1.00D-10  THRDLS  =  1.00D-07  THRGPS  =  0.00D+00  THRKEX  =  0.00D+00  THRDIS  =  2.00D-01  THRVAR  =  1.00D-10
 THRLOC  =  1.00D-06  THRGAP  =  1.00D-06  THRLOCT = -1.00D+00  THRGAPT = -1.00D+00  THRORB  =  1.00D-06  THRMLTP =  0.00D+00
 THRCPQCI=  1.00D-10  KEXTA   =  0.00D+00  THRCOARS=  0.00D+00  SYMTOL  =  1.00D-06  GRADTOL =  1.00D-06  THROVL  =  1.00D-08
 THRORTH =  1.00D-08  GRID    =  1.00D-06  GRIDMAX =  1.00D-03  DTMAX   =  0.00D+00

 SETTING GEOMTYP        =    XYZ
 ZUNIT=BOHR
 

 Variable memory set to 1000000000 words,  buffer space   230000 words

 SETTING BASIS          =    VDZ


 Recomputing integrals since basis changed


 Using spherical harmonics

 Library entry C      S cc-pVDZ              selected for orbital group  1
 Library entry C      P cc-pVDZ              selected for orbital group  1
 Library entry C      D cc-pVDZ              selected for orbital group  1
 Library entry O      S cc-pVDZ              selected for orbital group  2
 Library entry O      P cc-pVDZ              selected for orbital group  2
 Library entry O      D cc-pVDZ              selected for orbital group  2
 Library entry H      S cc-pVDZ              selected for orbital group  3
 Library entry H      P cc-pVDZ              selected for orbital group  3

1PROGRAM * SEWARD (Integral evaluation for generally contracted gaussian basis sets)     Author: Roland Lindh, 1990

 Geometry written to block  1 of record 700


 Point group  C1  



 ATOMIC COORDINATES

 NR  ATOM    CHARGE       X              Y              Z

   1  C       6.00   -3.502611583   -0.829488204   -0.001976432
   2  O       8.00   -3.093089492    1.621783392    0.000321192
   3  O       8.00   -1.883977799   -2.481763886    0.000620506
   4  H       1.00   -5.519220772   -1.273601479    0.000592776
   5  H       1.00   -1.243478578    1.954400010    0.000446165
   6  C       6.00    3.498608377    0.832057707   -0.001976469
   7  O       8.00    3.095604835   -1.623572609    0.000317885
   8  O       8.00    1.886803341    2.480684024    0.000613464
   9  H       1.00    5.520477376    1.273152606    0.000597731
  10  H       1.00    1.240884296   -1.953651561    0.000443182

 Bond lengths in Bohr (Angstrom)

 1-2  2.485245674  1-3  2.313006053  1-4  2.064934823  2-5  1.879280278  6-7  2.488480935
     ( 1.315135369)     ( 1.223990088)     ( 1.092716446)     ( 0.994472292)     ( 1.316847396)

  6- 8  2.305621590   6- 9  2.069426390   7-10  1.883863160
       ( 1.220082398)       ( 1.095093281)       ( 0.996897449)

 Bond angles

  1-2-5  109.67910230   2-1-3  126.10462302   2-1-4  111.90430100   3-1-4  121.99071484

  6- 7-10  109.41106393   7- 6- 8  126.32695258   7- 6- 9  111.62679631   8- 6- 9  122.04589022

 NUCLEAR CHARGE:                   48
 NUMBER OF PRIMITIVE AOS:         190
 NUMBER OF SYMMETRY AOS:          184
 NUMBER OF CONTRACTIONS:          104   ( 104A   )
 NUMBER OF CORE ORBITALS:           6   (   6A   )
 NUMBER OF VALENCE ORBITALS:       28   (  28A   )


 NUCLEAR REPULSION ENERGY  235.53077210


 Eigenvalues of metric

         1 0.818E-02 0.871E-02 0.138E-01 0.140E-01 0.165E-01 0.167E-01 0.299E-01 0.307E-01


 Contracted 2-electron integrals neglected if value below      1.0D-16
 AO integral compression algorithm  1   Integral accuracy      1.0D-16

     98.828 MB (compressed) written to integral file ( 74.0%)

     Node minimum: 98.828 MB, node maximum: 98.828 MB


 NUMBER OF SORTED TWO-ELECTRON INTEGRALS:   14908530.     BUFFER LENGTH:  32768
 NUMBER OF SEGMENTS:   1  SEGMENT LENGTH:   14908530      RECORD LENGTH: 524288

 Memory used in sort:      15.47 MW

 SORT1 READ    16652603. AND WROTE    14416025. INTEGRALS IN     42 RECORDS. CPU TIME:     0.16 SEC, REAL TIME:     0.24 SEC
 SORT2 READ    14416025. AND WROTE    14908530. INTEGRALS IN    377 RECORDS. CPU TIME:     0.16 SEC, REAL TIME:     0.23 SEC

 FILE SIZES:   FILE 1:    90.8 MBYTE,  FILE 4:   176.2 MBYTE,   TOTAL:    267.0 MBYTE

 OPERATOR DM      FOR CENTER  0  COORDINATES:    0.000000    0.000000    0.000000


 **********************************************************************************************************************************
 DATASETS  * FILE   NREC   LENGTH (MB)   RECORD NAMES
              1      19       90.94       500      610      700      900      950      970     1000      129      960     1100   
                                          VAR    BASINP    GEOM    SYMINP    ZMAT    AOBASIS   BASIS     P2S    ABASIS      S 
                                         1400     1410     1200     1210     1080     1600     1650     1300     1700   
                                           T        V       H0       H01     AOSYM     SMH    MOLCAS    ERIS     OPER   

 PROGRAMS   *        TOTAL       INT
 CPU TIMES  *         1.73      1.69
 REAL TIME  *         2.12 SEC
 DISK USED  *       366.62 MB      
 GA USED    *         0.00 MB       (max)       0.00 MB       (current)
 **********************************************************************************************************************************

1PROGRAM * RHF-SCF (CLOSED SHELL)       Authors: W. Meyer, H.-J. Werner


 NUMBER OF ELECTRONS:      24+   24-    SPACE SYMMETRY=1    SPIN SYMMETRY: Singlet 
 CONVERGENCE THRESHOLDS:    1.00E-10 (Density)    1.00E-13 (Energy)
 MAX. NUMBER OF ITERATIONS:      200
 INTERPOLATION TYPE:            DIIS
 INTERPOLATION STEPS:              2 (START)      1 (STEP)
 LEVEL SHIFTS:                  0.00 (CLOSED)  0.00 (OPEN) 



 Orbital guess generated from atomic densities. Full valence occupancy:   34

 Molecular orbital dump at record        2100.2

 ITERATION    DDIFF          GRAD             ENERGY        2-EL.EN.            DIPOLE MOMENTS         DIIS
    1      0.000D+00      0.000D+00      -377.44985795    747.056085   -0.02234    0.01674   -0.00574    0
    2      0.000D+00      0.110D-01      -377.53760511    744.208041   -0.01203    0.00489   -0.00062    1
    3      0.218D-01      0.684D-02      -377.58425527    746.457291   -0.01636    0.01062   -0.00256    2
    4      0.792D-02      0.968D-03      -377.58574584    746.177421   -0.01522    0.00883   -0.00245    3
    5      0.155D-02      0.402D-03      -377.58600656    746.203218   -0.01554    0.00951   -0.00241    4
    6      0.637D-03      0.115D-03      -377.58605276    746.247511   -0.01536    0.00929   -0.00241    5
    7      0.221D-03      0.526D-04      -377.58606411    746.232354   -0.01539    0.00936   -0.00241    6
    8      0.132D-03      0.156D-04      -377.58606511    746.237556   -0.01536    0.00932   -0.00241    7
    9      0.411D-04      0.530D-05      -377.58606521    746.236111   -0.01539    0.00937   -0.00241    8
   10      0.143D-04      0.148D-05      -377.58606522    746.236266   -0.01536    0.00932   -0.00241    7
   11      0.405D-05      0.457D-06      -377.58606522    746.236239   -0.01538    0.00936   -0.00241    8
   12      0.930D-06      0.242D-06      -377.58606522    746.236227   -0.01537    0.00934   -0.00241    9
   13      0.387D-06      0.421D-07      -377.58606522    746.236234   -0.01537    0.00935   -0.00241    8
   14      0.113D-06      0.154D-07      -377.58606522    746.236230   -0.01537    0.00935   -0.00241    8
   15      0.259D-07      0.607D-08      -377.58606522    746.236232   -0.01537    0.00935   -0.00241    8
   16      0.141D-07      0.159D-08      -377.58606522    746.236232   -0.01537    0.00935   -0.00241    8
   17      0.343D-08      0.578D-09      -377.58606522    746.236232   -0.01537    0.00935   -0.00241    8
   18      0.105D-08      0.124D-09      -377.58606522    746.236232   -0.01537    0.00935   -0.00241    8
   19      0.287D-09      0.557D-10      -377.58606522    746.236232   -0.01537    0.00935   -0.00241    7
   20      0.134D-09      0.141D-10      -377.58606522    746.236232   -0.01537    0.00935   -0.00241    7
   21      0.374D-10      0.494D-11      -377.58606522    746.236232   -0.01537    0.00935   -0.00241    8
   22      0.102D-10      0.297D-11      -377.58606522    746.236232   -0.01537    0.00935   -0.00241    8
   23      0.666D-11      0.760D-12      -377.58606522    746.236232   -0.01537    0.00935   -0.00241    8
   24      0.160D-11      0.265D-12      -377.58606522    746.236232   -0.01537    0.00935   -0.00241    0

 Final occupancy:  24

 !RHF STATE 1.1 Energy               -377.586065221571
 Nuclear energy                       235.53077210
 One-electron energy                 -986.23495311
 Two-electron energy                  373.11811579
 Virial quotient                       -1.00122969
 !RHF STATE 1.1 Dipole moment          -0.01537351     0.00934546    -0.00240795
 Dipole moment /Debye                  -0.03907301     0.02375224    -0.00612000

 Orbital energies:

         1.1          2.1          3.1          4.1          5.1          6.1          7.1          8.1          9.1         10.1
    -20.614369   -20.613284   -20.575663   -20.575366   -11.412438   -11.411698    -1.482106    -1.469373    -1.383632    -1.369599

        11.1         12.1         13.1         14.1         15.1         16.1         17.1         18.1         19.1         20.1
     -0.914439    -0.878459    -0.763273    -0.728069    -0.719298    -0.688812    -0.638428    -0.628851    -0.615098    -0.573622

        21.1         22.1         23.1         24.1         25.1         26.1
     -0.498414    -0.489556    -0.487737    -0.467776     0.160814     0.166064


 **********************************************************************************************************************************
 DATASETS  * FILE   NREC   LENGTH (MB)   RECORD NAMES
              1      19       90.94       500      610      700      900      950      970     1000      129      960     1100   
                                          VAR    BASINP    GEOM    SYMINP    ZMAT    AOBASIS   BASIS     P2S    ABASIS      S 
                                         1400     1410     1200     1210     1080     1600     1650     1300     1700   
                                           T        V       H0       H01     AOSYM     SMH    MOLCAS    ERIS     OPER   

              2       3        0.64       700     1000     2100   
                                         GEOM     BASIS     RHF  

 PROGRAMS   *        TOTAL       RHF       INT
 CPU TIMES  *         4.91      3.18      1.69
 REAL TIME  *         5.58 SEC
 DISK USED  *       366.62 MB      
 GA USED    *         0.00 MB       (max)       0.00 MB       (current)
 **********************************************************************************************************************************


1PROGRAM * CCSD (Closed-shell coupled cluster)     Authors: C. Hampel, H.-J. Werner, 1991, M. Deegan, P.J. Knowles, 1992


 Convergence thresholds:  THRVAR = 1.00D-08  THRDEN = 1.00D-12

 CCSD(T)     terms to be evaluated (factor= 1.000)


 Number of core orbitals:           6 (   6 )
 Number of closed-shell orbitals:  18 (  18 )
 Number of external orbitals:      80 (  80 )

 Molecular orbitals read from record     2100.2  Type=RHF/CANONICAL (state 1.1)

 Number of N-1 electron functions:              18
 Number of N-2 electron functions:             171
 Number of singly external CSFs:              1440
 Number of doubly external CSFs:           1037520
 Total number of CSFs:                     1038961

 Length of J-op  integral file:               0.00 MB
 Length of K-op  integral file:               0.78 MB
 Length of 3-ext integral record:             0.00 MB

 Memory could be reduced to 13.51 Mwords without degradation in triples

 Integral transformation finished. Total CPU:   0.93 sec, npass=  1  Memory used:  14.06 MW

 Reference energy:                   -377.58606522

 MP2 singlet pair energy:              -0.59906004
 MP2 triplet pair energy:              -0.40690359
 MP2 correlation energy:               -1.00596363
 MP2 total energy:                   -378.59202885

 SCS-MP2 correlation energy:           -0.97205651   (PS=  1.200000  PT=  0.333333)
 SCS-MP2 total energy:               -378.55812173

 ITER.      SQ.NORM     CORR.ENERGY   TOTAL ENERGY   ENERGY CHANGE        DEN1      VAR(S)    VAR(P)  DIIS     TIME
   1      1.28158309    -1.02620533  -378.61227055    -0.02024170     0.01051060  0.10D-01  0.55D-02  1  1     4.37
   2      1.30525155    -1.02808678  -378.61415200    -0.00188145    -0.02505151  0.25D-03  0.10D-02  2  2     7.76
   3      1.31827618    -1.02903600  -378.61510123    -0.00094922    -0.00595422  0.20D-03  0.42D-04  3  3    11.15
   4      1.32361860    -1.02880267  -378.61486790     0.00023333    -0.00175118  0.18D-04  0.71D-05  4  4    14.54
   5      1.32568334    -1.02871305  -378.61477827     0.00008962    -0.00045837  0.11D-05  0.68D-06  5  5    17.92
   6      1.32602702    -1.02869263  -378.61475785     0.00002042    -0.00001562  0.10D-06  0.60D-07  6  6    21.32
   7      1.32609579    -1.02868501  -378.61475023     0.00000761    -0.00000448  0.79D-08  0.89D-08  6  2    24.72
   8      1.32609903    -1.02868586  -378.61475108    -0.00000085     0.00000208  0.16D-08  0.90D-09  6  1    28.11
   9      1.32609981    -1.02868554  -378.61475076     0.00000032     0.00000091  0.33D-09  0.16D-09  6  4    31.51
  10      1.32610163    -1.02868538  -378.61475060     0.00000016    -0.00000062  0.93D-10  0.26D-10  6  3    34.90
  11      1.32610111    -1.02868551  -378.61475073    -0.00000013     0.00000025  0.21D-10  0.54D-11  6  5    38.29
  12      1.32610076    -1.02868552  -378.61475074    -0.00000002     0.00000005  0.27D-11  0.11D-11  6  6    41.69
  13      1.32610043    -1.02868556  -378.61475079    -0.00000004     0.00000013  0.30D-12  0.21D-12  6  1    45.07
  14      1.32610032    -1.02868557  -378.61475079    -0.00000000     0.00000002  0.29D-13  0.23D-13  6  2    48.46
  15      1.32610029    -1.02868557  -378.61475079    -0.00000000     0.00000001  0.63D-14  0.29D-14  6  4    51.86
  16      1.32610028    -1.02868557  -378.61475079    -0.00000000     0.00000000  0.10D-14  0.63D-15  6  5    55.26
  17      1.32610027    -1.02868557  -378.61475079    -0.00000000    -0.00000000  0.15D-15  0.62D-16  6  3    58.65
  18      1.32610027    -1.02868557  -378.61475079    -0.00000000     0.00000000  0.56D-16  0.18D-16  6  5    62.05
  19      1.32610027    -1.02868557  -378.61475079    -0.00000000     0.00000000  0.14D-16  0.40D-17  6  4    65.44
  20      1.32610027    -1.02868557  -378.61475079    -0.00000000     0.00000000  0.38D-17  0.79D-18  6  6    68.83
  21      1.32610027    -1.02868557  -378.61475079     0.00000000     0.00000000  0.12D-17  0.25D-18  6  1    72.21
  22      1.32610027    -1.02868557  -378.61475079     0.00000000    -0.00000000  0.62D-19  0.33D-19  6  2    75.61
  23      1.32610027    -1.02868557  -378.61475079     0.00000000    -0.00000000  0.11D-19  0.57D-20  6  3    79.00
  24      1.32610027    -1.02868557  -378.61475079     0.00000000    -0.00000000  0.16D-20  0.12D-20  6  4    82.39
  25      1.32610027    -1.02868557  -378.61475079     0.00000000    -0.00000000  0.27D-21  0.13D-21  6  5    85.78

 Norm of t1 vector:      0.15247072      S-energy:     0.00000000      T1 diagnostic:  0.01796885
                                                                       D1 diagnostic:  0.06498606

 Singles amplitudes (print threshold =  0.500E-01):

         I         SYM. A    A   T(IA)

        11         1         1      0.05903919
        12         1         2     -0.06081683


 Total CPU time for triples:     38.72 sec


 RESULTS
 =======

  Reference energy                   -377.586065221571
  CCSD singlet pair energy             -0.670879623959
  CCSD triplet pair energy             -0.357805947158
  CCSD correlation energy              -1.028685571116

  Triples (T) contribution             -0.031909939947
  Total correlation energy             -1.060595511064

  CCSD total energy                  -378.614750792688
  CCSD[T] energy                     -378.649945004832
  CCSD-T energy                      -378.645581070406
 !CCSD(T) total energy               -378.646660732635

 Timing summary (sec):

 STEP                 CPU(USER)    SYS     CPU(TOT)    WALL
 Transformation          0.99      0.09      1.08      1.08
 CCSD iterations        84.79      1.47     86.26     86.85
 Triples                38.72      0.87     39.59     39.60

 Program statistics:

 Available memory in ccsd:               999998604
 Min. memory needed in ccsd:               2834340
 Max. memory used in ccsd:                 3747300
 Max. memory used in cckext:               3919086 (25 integral passes)



 **********************************************************************************************************************************
 DATASETS  * FILE   NREC   LENGTH (MB)   RECORD NAMES
              1      20      150.85       500      610      700      900      950      970     1000      129      960     1100   
                                          VAR    BASINP    GEOM    SYMINP    ZMAT    AOBASIS   BASIS     P2S    ABASIS      S 
                                         1400     1410     1200     1210     1080     1600     1650     1300     1700     1380   
                                           T        V       H0       H01     AOSYM     SMH    MOLCAS    ERIS     OPER     JKOP   

              2       3        0.64       700     1000     2100   
                                         GEOM     BASIS     RHF  

 PROGRAMS   *        TOTAL   CCSD(T)       RHF       INT
 CPU TIMES  *       129.43    124.51      3.18      1.69
 REAL TIME  *       133.15 SEC
 DISK USED  *       432.05 MB      
 GA USED    *         0.00 MB       (max)       0.00 MB       (current)
 **********************************************************************************************************************************

        CCSD(T)         RHF-SCF 
   -378.64666073   -377.58606522
 **********************************************************************************************************************************
 Variable memory released
