
 Primary working directories    : /tmp/1049102.1567.gen6.q
 Secondary working directories  : /tmp/1049102.1567.gen6.q
 Wavefunction directory         : /home/vulcan/mel64643/wfu/
 Main file repository           : /tmp/1049102.1567.gen6.q/

 ARCHNAME  : Linux/x86_64
 FC        : /opt/intel/compilers_and_libraries_2016.1.150/linux/bin/intel64/ifort
 FCVERSION : 16.0.1
 BLASLIB   : -mkl
 id        : ccgc

 Nodes     nprocs
 n081         1
 ga_uses_ma=false, calling ma_init with nominal heap.
 GA-space will be limited to   8.0 MW (determined by -G option)

 Using customized tuning parameters: mindgm=10; mindgv=16; mindgc=4; mindgr=1; noblas=0; mincuda=1000; minvec=7
 default implementation of scratch files=df  

 ***,Optimization of h2o_3
 memory,1000,m
 gthresh,energy=1.0d-12,orbital=1.0d-10,oneint=1.0d-16,twoint=1.0d-16,optgrad=1.0d-6,compress=1.0d-13
 geomtyp=xyz
 
 
 
 bohr
 geometry = {
  C    0.9148309846    1.4052561911   -2.2732055458
  C    0.7391840021    2.7091705056    0.0182263881
  C    0.9980963310    1.4059297606    2.3022952761
  C    1.4310574696   -1.2012775865    2.2949336115
  C    1.6074317368   -2.5047004024    0.0035437605
  C    1.3485778884   -1.2012359970   -2.2803210196
  H    0.7050569648    2.4143609135   -4.0430430409
  H    0.3881234361    4.7266945992    0.0239774710
  H    0.8567172308    2.4160337542    4.0785664897
  H    1.6290995447   -2.2114442276    4.0659319344
  H    1.9409859603   -4.5256719074   -0.0021976655
  H    1.4828650174   -2.2119551060   -4.0570787813
  N   -5.4441462059   -0.3539238333   -0.0668335996
  H   -5.5790933296   -1.5649981885   -1.5488532177
  H   -6.0754090930   -1.3201990421    1.4657980966
  H   -3.5624460712   -0.0738290313    0.1983375194
 }
 
 basis=aug-cc-pvdz, H=cc-pvdz
 {rhf;maxit,200}
 {ccsd(t)}

 Variables initialized (661), CPU time= 0.00 sec
 Commands  initialized (458), CPU time= 0.00 sec, 486 directives.
 Default parameters read. Elapsed time= 0.04 sec

 Checking input...
 Passed
1


                                         ***  PROGRAM SYSTEM MOLPRO  ***
                         Copyright, University College Cardiff Consultants Limited, 2008

                                    Version 2010.1 linked May 16 2016 07:17:05


 **********************************************************************************************************************************
 LABEL *   Optimization of h2o_3                                                         
 Linux-4.4.3/n081(x86_64) 64 bit mpp version                                             DATE: 21-Mar-24          TIME: 09:27:06  
 **********************************************************************************************************************************

 SHA1:             9e8077add272b0f3cad6f7df79ec5211205f459d
 **********************************************************************************************************************************

 THRESHOLDS:

 ZERO    =  1.00D-12  ONEINT  =  1.00D-16  TWOINT  =  1.00D-16  PREFAC  =  1.00D-14  LOCALI  =  1.00D-09  EORDER  =  1.00D-04
 ENERGY  =  1.00D-12  ETEST   =  0.00D+00  EDENS   =  0.00D+00  THRDEDEF=  1.00D-06  GRADIENT=  1.00D-02  STEP    =  1.00D-03
 ORBITAL =  1.00D-10  CIVEC   =  1.00D-05  COEFF   =  1.00D-04  PRINTCI =  5.00D-02  PUNCHCI =  9.90D+01  OPTGRAD =  1.00D-06
 OPTENERG=  1.00D-06  OPTSTEP =  3.00D-04  THRGRAD =  1.00D-10  COMPRESS=  1.00D-13  VARMIN  =  1.00D-07  VARMAX  =  1.00D-03
 THRDOUB =  0.00D+00  THRDIV  =  1.00D-05  THRRED  =  1.00D-07  THRPSP  =  1.00D+00  THRDC   =  1.00D-10  THRCS   =  1.00D-10
 THRNRM  =  1.00D-08  THREQ   =  0.00D+00  THRDE   =  1.00D+00  THRREF  =  1.00D-05  SPARFAC =  1.00D+00  THRDLP  =  1.00D-07
 THRDIA  =  1.00D-10  THRDLS  =  1.00D-07  THRGPS  =  0.00D+00  THRKEX  =  0.00D+00  THRDIS  =  2.00D-01  THRVAR  =  1.00D-10
 THRLOC  =  1.00D-06  THRGAP  =  1.00D-06  THRLOCT = -1.00D+00  THRGAPT = -1.00D+00  THRORB  =  1.00D-06  THRMLTP =  0.00D+00
 THRCPQCI=  1.00D-10  KEXTA   =  0.00D+00  THRCOARS=  0.00D+00  SYMTOL  =  1.00D-06  GRADTOL =  1.00D-06  THROVL  =  1.00D-08
 THRORTH =  1.00D-08  GRID    =  1.00D-06  GRIDMAX =  1.00D-03  DTMAX   =  0.00D+00

 SETTING GEOMTYP        =    XYZ
 ZUNIT=BOHR
 

 Variable memory set to 1000000000 words,  buffer space   230000 words

 SETTING BASIS          =    AUG-CC-PVDZ,H=CC-PVDZ


 Recomputing integrals since basis changed


 Using spherical harmonics

 Library entry C      S aug-cc-pVDZ          selected for orbital group  1
 Library entry C      P aug-cc-pVDZ          selected for orbital group  1
 Library entry C      D aug-cc-pVDZ          selected for orbital group  1
 Library entry H      S cc-pVDZ              selected for orbital group  2
 Library entry H      P cc-pVDZ              selected for orbital group  2
 Library entry N      S aug-cc-pVDZ          selected for orbital group  3
 Library entry N      P aug-cc-pVDZ          selected for orbital group  3
 Library entry N      D aug-cc-pVDZ          selected for orbital group  3

1PROGRAM * SEWARD (Integral evaluation for generally contracted gaussian basis sets)     Author: Roland Lindh, 1990

 Geometry written to block  1 of record 700


 Point group  C1  



 ATOMIC COORDINATES

 NR  ATOM    CHARGE       X              Y              Z

   1  C       6.00    0.914830985    1.405256191   -2.273205546
   2  C       6.00    0.739184002    2.709170506    0.018226388
   3  C       6.00    0.998096331    1.405929761    2.302295276
   4  C       6.00    1.431057470   -1.201277587    2.294933611
   5  C       6.00    1.607431737   -2.504700402    0.003543761
   6  C       6.00    1.348577888   -1.201235997   -2.280321020
   7  H       1.00    0.705056965    2.414360913   -4.043043041
   8  H       1.00    0.388123436    4.726694599    0.023977471
   9  H       1.00    0.856717231    2.416033754    4.078566490
  10  H       1.00    1.629099545   -2.211444228    4.065931934
  11  H       1.00    1.940985960   -4.525671907   -0.002197665
  12  H       1.00    1.482865017   -2.211955106   -4.057078781
  13  N       7.00   -5.444146206   -0.353923833   -0.066833600
  14  H       1.00   -5.579093330   -1.564998188   -1.548853218
  15  H       1.00   -6.075409093   -1.320199042    1.465798097
  16  H       1.00   -3.562446071   -0.073829031    0.198337519

 Bond lengths in Bohr (Angstrom)

 1-2  2.642291564  1-6  2.642345271  1-7  2.048077694  2-3  2.642431214  2-8  2.047847666
     ( 1.398240475)     ( 1.398268896)     ( 1.083796038)     ( 1.398314375)     ( 1.083674312)

  3- 4  2.642922566   3- 9  2.048276727   4- 5  2.642061008   4-10  2.048436566   5- 6  2.642359382
       ( 1.398574387)       ( 1.083901362)       ( 1.398118470)       ( 1.083985945)       ( 1.398276363)

  5-11  2.048320582   6-12  2.048524907  13-14  1.918669844  13-15  1.918629857  13-16  1.920823838
       ( 1.083924569)       ( 1.084032693)       ( 1.015316353)       ( 1.015295193)       ( 1.016456198)

 Bond angles

  1- 2- 3  119.98067262   1- 2- 8  120.00017341   1- 6- 5  120.02353239   1- 6-12  119.98613464

  2-1-6  120.00199113   2-1-7  119.96358318   2-3-4  120.01167878   2-3-9  119.97429906

  3- 2- 8  120.01747696   3- 4- 5  120.00136303   3- 4-10  119.99378370   4- 3- 9  120.01369044

  4- 5- 6  119.98073411   4- 5-11  120.00333293   5- 4-10  120.00484855   5- 6-12  119.99031843

  6- 1- 7  120.03368579   6- 5-11  120.01581896  14-13-15  106.02090471  14-13-16  105.52011905

 15-13-16  106.58742506

 NUCLEAR CHARGE:                   52
 NUMBER OF PRIMITIVE AOS:         322
 NUMBER OF SYMMETRY AOS:          308
 NUMBER OF CONTRACTIONS:          206   ( 206A   )
 NUMBER OF CORE ORBITALS:           7   (   7A   )
 NUMBER OF VALENCE ORBITALS:       37   (  37A   )


 NUCLEAR REPULSION ENERGY  273.71350630


 Eigenvalues of metric

         1 0.861E-05 0.184E-04 0.228E-04 0.532E-04 0.643E-04 0.644E-04 0.107E-03 0.107E-03


 Contracted 2-electron integrals neglected if value below      1.0D-16
 AO integral compression algorithm  1   Integral accuracy      1.0D-16

     1891.893 MB (compressed) written to integral file ( 94.5%)

     Node minimum: 1891.893 MB, node maximum: 1891.893 MB


 NUMBER OF SORTED TWO-ELECTRON INTEGRALS:  227303181.     BUFFER LENGTH:  32768
 NUMBER OF SEGMENTS:  15  SEGMENT LENGTH:   15999503      RECORD LENGTH: 524288

 Memory used in sort:      16.56 MW

 SORT1 READ   250230481. AND WROTE   226408429. INTEGRALS IN    654 RECORDS. CPU TIME:     2.15 SEC, REAL TIME:     3.83 SEC
 SORT2 READ   226408429. AND WROTE   227303181. INTEGRALS IN   7217 RECORDS. CPU TIME:     1.28 SEC, REAL TIME:     2.12 SEC

 FILE SIZES:   FILE 1:  1742.9 MBYTE,  FILE 4:  2743.1 MBYTE,   TOTAL:   4486.0 MBYTE

 OPERATOR DM      FOR CENTER  0  COORDINATES:    0.000000    0.000000    0.000000


 **********************************************************************************************************************************
 DATASETS  * FILE   NREC   LENGTH (MB)   RECORD NAMES
              1      19     1743.41       500      610      700      900      950      970     1000      129      960     1100   
                                          VAR    BASINP    GEOM    SYMINP    ZMAT    AOBASIS   BASIS     P2S    ABASIS      S 
                                         1400     1410     1200     1210     1080     1600     1650     1300     1700   
                                           T        V       H0       H01     AOSYM     SMH    MOLCAS    ERIS     OPER   

 PROGRAMS   *        TOTAL       INT
 CPU TIMES  *        12.21     12.18
 REAL TIME  *        16.10 SEC
 DISK USED  *         6.38 GB      
 GA USED    *         0.01 MB       (max)       0.00 MB       (current)
 **********************************************************************************************************************************

1PROGRAM * RHF-SCF (CLOSED SHELL)       Authors: W. Meyer, H.-J. Werner


 NUMBER OF ELECTRONS:      26+   26-    SPACE SYMMETRY=1    SPIN SYMMETRY: Singlet 
 CONVERGENCE THRESHOLDS:    1.00E-10 (Density)    1.00E-13 (Energy)
 MAX. NUMBER OF ITERATIONS:      200
 INTERPOLATION TYPE:            DIIS
 INTERPOLATION STEPS:              2 (START)      1 (STEP)
 LEVEL SHIFTS:                  0.00 (CLOSED)  0.00 (OPEN) 



 Orbital guess generated from atomic densities. Full valence occupancy:   44

 Molecular orbital dump at record        2100.2

 ITERATION    DDIFF          GRAD             ENERGY        2-EL.EN.            DIPOLE MOMENTS         DIIS
    1      0.000D+00      0.000D+00      -286.85320097    740.882008    0.52288   -0.77166    0.13323    0
    2      0.000D+00      0.322D-02      -286.92078406    735.096477    0.43739   -0.38537    0.06264    1
    3      0.826D-02      0.133D-02      -286.93011293    737.726432    0.45417   -0.52490    0.09131    2
    4      0.218D-02      0.381D-03      -286.93133097    737.207145    0.45271   -0.49781    0.08401    3
    5      0.783D-03      0.527D-04      -286.93135486    737.195903    0.45854   -0.50803    0.08781    4
    6      0.135D-03      0.177D-04      -286.93135730    737.210820    0.45739   -0.50247    0.08581    5
    7      0.511D-04      0.555D-05      -286.93135758    737.207734    0.45805   -0.50470    0.08653    6
    8      0.150D-04      0.130D-05      -286.93135760    737.206723    0.45820   -0.50434    0.08640    7
    9      0.418D-05      0.546D-06      -286.93135761    737.207185    0.45823   -0.50444    0.08643    7
   10      0.149D-05      0.144D-06      -286.93135761    737.207133    0.45824   -0.50444    0.08643    7
   11      0.519D-06      0.411D-07      -286.93135761    737.207118    0.45825   -0.50444    0.08643    7
   12      0.142D-06      0.174D-07      -286.93135761    737.207132    0.45824   -0.50444    0.08643    8
   13      0.610D-07      0.762D-08      -286.93135761    737.207127    0.45824   -0.50444    0.08643    8
   14      0.338D-07      0.364D-08      -286.93135761    737.207129    0.45824   -0.50444    0.08643    8
   15      0.203D-07      0.139D-08      -286.93135761    737.207128    0.45824   -0.50444    0.08643    8
   16      0.719D-08      0.457D-09      -286.93135761    737.207128    0.45824   -0.50444    0.08643    9
   17      0.216D-08      0.125D-09      -286.93135761    737.207128    0.45824   -0.50444    0.08643    9
   18      0.393D-09      0.383D-10      -286.93135761    737.207128    0.45824   -0.50444    0.08643    8
   19      0.245D-09      0.157D-10      -286.93135761    737.207128    0.45824   -0.50444    0.08643    9
   20      0.140D-09      0.836D-11      -286.93135761    737.207128    0.45824   -0.50444    0.08643    9
   21      0.162D-09      0.410D-11      -286.93135761    737.207128    0.45824   -0.50444    0.08643    9
   22      0.167D-09      0.136D-11      -286.93135761    737.207128    0.45824   -0.50444    0.08643    9
   23      0.158D-09      0.859D-12      -286.93135761    737.207128    0.45824   -0.50444    0.08643    9
   24      0.121D-09      0.625D-12      -286.93135761    737.207128    0.45824   -0.50444    0.08643    9
   25      0.592D-10      0.581D-12      -286.93135761    737.207128    0.45824   -0.50444    0.08643    9
   26      0.406D-10      0.558D-12      -286.93135761    737.207128    0.45824   -0.50444    0.08643    9
   27      0.370D-10      0.510D-12      -286.93135761    737.207128    0.45824   -0.50444    0.08643    9
   28      0.296D-10      0.456D-12      -286.93135761    737.207128    0.45824   -0.50444    0.08643    9
   29      0.243D-10      0.580D-12      -286.93135761    737.207128    0.45824   -0.50444    0.08643    9
   30      0.183D-10      0.402D-12      -286.93135761    737.207128    0.45824   -0.50444    0.08643    9
   31      0.118D-10      0.440D-12      -286.93135761    737.207128    0.45824   -0.50444    0.08643    9
   32      0.126D-10      0.425D-12      -286.93135761    737.207128    0.45824   -0.50444    0.08643    9
   33      0.954D-11      0.469D-12      -286.93135761    737.207128    0.45824   -0.50444    0.08643    9
   34      0.129D-10      0.437D-12      -286.93135761    737.207128    0.45824   -0.50444    0.08643    9
   35      0.177D-10      0.440D-12      -286.93135761    737.207128    0.45824   -0.50444    0.08643    9
   36      0.145D-10      0.484D-12      -286.93135761    737.207128    0.45824   -0.50444    0.08643    9
   37      0.179D-10      0.407D-12      -286.93135761    737.207128    0.45824   -0.50444    0.08643    9
   38      0.168D-10      0.425D-12      -286.93135761    737.207128    0.45824   -0.50444    0.08643    9
   39      0.111D-10      0.427D-12      -286.93135761    737.207128    0.45824   -0.50444    0.08643    9
   40      0.139D-10      0.376D-12      -286.93135761    737.207128    0.45824   -0.50444    0.08643    9
   41      0.151D-10      0.404D-12      -286.93135761    737.207128    0.45824   -0.50444    0.08643    9
   42      0.139D-10      0.425D-12      -286.93135761    737.207128    0.45824   -0.50444    0.08643    9
   43      0.219D-10      0.466D-12      -286.93135761    737.207128    0.45824   -0.50444    0.08643    9
   44      0.189D-10      0.414D-12      -286.93135761    737.207128    0.45824   -0.50444    0.08643    9
   45      0.169D-10      0.553D-12      -286.93135761    737.207128    0.45824   -0.50444    0.08643    9
   46      0.152D-10      0.422D-12      -286.93135761    737.207128    0.45824   -0.50444    0.08643    0

 Final occupancy:  26

 !RHF STATE 1.1 Energy               -286.931357605859
 Nuclear energy                       273.71350630
 One-electron energy                 -929.24842812
 Two-electron energy                  368.60356422
 Virial quotient                       -1.00146260
 !RHF STATE 1.1 Dipole moment           0.45824298    -0.50444061     0.08642960
 Dipole moment /Debye                   1.16466120    -1.28207617     0.21966773

 Orbital energies:

         1.1          2.1          3.1          4.1          5.1          6.1          7.1          8.1          9.1         10.1
    -15.535102   -11.250662   -11.250057   -11.249701   -11.248833   -11.248691   -11.247857    -1.157536    -1.125819    -1.022084

        11.1         12.1         13.1         14.1         15.1         16.1         17.1         18.1         19.1         20.1
     -1.021981    -0.830665    -0.830567    -0.714531    -0.650481    -0.623950    -0.612222    -0.608779    -0.593606    -0.593484

        21.1         22.1         23.1         24.1         25.1         26.1         27.1         28.1
     -0.504941    -0.500129    -0.500053    -0.413888    -0.343005    -0.342026     0.063863     0.066415


 **********************************************************************************************************************************
 DATASETS  * FILE   NREC   LENGTH (MB)   RECORD NAMES
              1      19     1743.41       500      610      700      900      950      970     1000      129      960     1100   
                                          VAR    BASINP    GEOM    SYMINP    ZMAT    AOBASIS   BASIS     P2S    ABASIS      S 
                                         1400     1410     1200     1210     1080     1600     1650     1300     1700   
                                           T        V       H0       H01     AOSYM     SMH    MOLCAS    ERIS     OPER   

              2       3        1.40       700     1000     2100   
                                         GEOM     BASIS     RHF  

 PROGRAMS   *        TOTAL       RHF       INT
 CPU TIMES  *        72.13     59.92     12.18
 REAL TIME  *        83.21 SEC
 DISK USED  *         6.38 GB      
 GA USED    *         0.01 MB       (max)       0.00 MB       (current)
 **********************************************************************************************************************************


1PROGRAM * CCSD (Closed-shell coupled cluster)     Authors: C. Hampel, H.-J. Werner, 1991, M. Deegan, P.J. Knowles, 1992


 Convergence thresholds:  THRVAR = 1.00D-08  THRDEN = 1.00D-12

 CCSD(T)     terms to be evaluated (factor= 1.000)


 Number of core orbitals:           7 (   7 )
 Number of closed-shell orbitals:  19 (  19 )
 Number of external orbitals:     180 ( 180 )

 Molecular orbitals read from record     2100.2  Type=RHF/CANONICAL (state 1.1)

 Number of N-1 electron functions:              19
 Number of N-2 electron functions:             190
 Number of singly external CSFs:              3420
 Number of doubly external CSFs:           5849910
 Total number of CSFs:                     5853331

 Length of J-op  integral file:               0.00 MB
 Length of K-op  integral file:               2.96 MB
 Length of 3-ext integral record:             0.00 MB

 Memory could be reduced to 140.12 Mwords without degradation in triples

 Integral transformation finished. Total CPU:  10.31 sec, npass=  1  Memory used: 101.90 MW

 Reference energy:                   -286.93135761

 MP2 singlet pair energy:              -0.62063797
 MP2 triplet pair energy:              -0.38983589
 MP2 correlation energy:               -1.01047386
 MP2 total energy:                   -287.94183146

 SCS-MP2 correlation energy:           -0.98733011   (PS=  1.200000  PT=  0.333333)
 SCS-MP2 total energy:               -287.91868772

 ITER.      SQ.NORM     CORR.ENERGY   TOTAL ENERGY   ENERGY CHANGE        DEN1      VAR(S)    VAR(P)  DIIS     TIME
   1      1.38488730    -1.05476647  -287.98612408    -0.04429262    -0.01721303  0.36D-02  0.80D-02  1  1    42.59
   2      1.41440109    -1.06062923  -287.99198684    -0.00586276    -0.02705419  0.63D-04  0.10D-02  2  2    75.13
   3      1.42353214    -1.06072490  -287.99208251    -0.00009567    -0.00464351  0.27D-04  0.84D-04  3  3   107.72
   4      1.42746859    -1.06089368  -287.99225129    -0.00016878    -0.00121390  0.22D-05  0.11D-04  4  4   140.30
   5      1.42868171    -1.06092464  -287.99228225    -0.00003096    -0.00027311  0.27D-06  0.13D-05  5  5   172.92
   6      1.42898444    -1.06091441  -287.99227201     0.00001023    -0.00004354  0.23D-07  0.79D-07  6  6   205.57
   7      1.42902524    -1.06091604  -287.99227365    -0.00000163    -0.00000105  0.35D-08  0.82D-08  6  2   238.20
   8      1.42903443    -1.06091590  -287.99227350     0.00000014    -0.00000118  0.76D-09  0.76D-09  6  1   270.82
   9      1.42903426    -1.06091603  -287.99227364    -0.00000013     0.00000123  0.21D-09  0.92D-10  6  4   303.45
  10      1.42903546    -1.06091604  -287.99227365    -0.00000001    -0.00000018  0.57D-10  0.15D-10  6  3   336.07
  11      1.42903541    -1.06091606  -287.99227367    -0.00000002     0.00000013  0.14D-10  0.37D-11  6  5   368.68
  12      1.42903536    -1.06091606  -287.99227367    -0.00000000     0.00000003  0.14D-11  0.10D-11  6  6   401.31
  13      1.42903519    -1.06091607  -287.99227367    -0.00000000     0.00000006  0.69D-13  0.20D-12  6  2   433.96
  14      1.42903509    -1.06091607  -287.99227367    -0.00000000     0.00000003  0.80D-14  0.40D-13  6  1   466.60
  15      1.42903503    -1.06091607  -287.99227367    -0.00000000     0.00000001  0.88D-15  0.54D-14  6  3   499.24
  16      1.42903501    -1.06091607  -287.99227367    -0.00000000     0.00000000  0.12D-15  0.37D-15  6  4   531.90
  17      1.42903500    -1.06091607  -287.99227367    -0.00000000     0.00000000  0.31D-16  0.44D-16  6  5   564.57
  18      1.42903500    -1.06091607  -287.99227367    -0.00000000     0.00000000  0.81D-17  0.70D-17  6  6   597.20
  19      1.42903500    -1.06091607  -287.99227367    -0.00000000     0.00000000  0.23D-17  0.76D-18  6  2   629.85
  20      1.42903500    -1.06091607  -287.99227367    -0.00000000     0.00000000  0.75D-18  0.18D-18  6  1   662.48
  21      1.42903500    -1.06091607  -287.99227367    -0.00000000     0.00000000  0.29D-18  0.75D-19  6  3   695.09
  22      1.42903500    -1.06091607  -287.99227367    -0.00000000     0.00000000  0.12D-18  0.37D-19  6  4   727.72
  23      1.42903500    -1.06091607  -287.99227367    -0.00000000     0.00000000  0.47D-19  0.18D-19  6  5   760.33

 Norm of t1 vector:      0.08384779      S-energy:    -0.00000000      T1 diagnostic:  0.00961800
                                                                       D1 diagnostic:  0.02618489

 Doubles amplitudes (print threshold =  0.500E-01):

         I         J         SYM. A    SYM. B    A         B      T(IJ, AB)

        18        18         1         1         6         6     -0.05136814
        19        19         1         1         7         7     -0.05472953


 Total CPU time for triples:    640.37 sec


 RESULTS
 =======

  Reference energy                   -286.931357605857
  CCSD singlet pair energy             -0.711163596523
  CCSD triplet pair energy             -0.349752470586
  CCSD correlation energy              -1.060916067110

  Triples (T) contribution             -0.045604660104
  Total correlation energy             -1.106520727213

  CCSD total energy                  -287.992273672966
  CCSD[T] energy                     -288.038748411905
  CCSD-T energy                      -288.037489794455
 !CCSD(T) total energy               -288.037878333070

 Timing summary (sec):

 STEP                 CPU(USER)    SYS     CPU(TOT)    WALL
 Transformation         10.65      0.76     11.41     11.40
 CCSD iterations       749.70     11.51    761.21    761.76
 Triples               640.37      9.32    649.69    649.77

 Program statistics:

 Available memory in ccsd:               999998456
 Min. memory needed in ccsd:              14392275
 Max. memory used in ccsd:                19775697
 Max. memory used in cckext:              16737545 (23 integral passes)



 **********************************************************************************************************************************
 DATASETS  * FILE   NREC   LENGTH (MB)   RECORD NAMES
              1      20     2287.01       500      610      700      900      950      970     1000      129      960     1100   
                                          VAR    BASINP    GEOM    SYMINP    ZMAT    AOBASIS   BASIS     P2S    ABASIS      S 
                                         1400     1410     1200     1210     1080     1600     1650     1300     1700     1380   
                                           T        V       H0       H01     AOSYM     SMH    MOLCAS    ERIS     OPER     JKOP   

              2       3        1.40       700     1000     2100   
                                         GEOM     BASIS     RHF  

 PROGRAMS   *        TOTAL   CCSD(T)       RHF       INT
 CPU TIMES  *      1472.86   1400.73     59.92     12.18
 REAL TIME  *      1506.24 SEC
 DISK USED  *         6.38 GB      
 GA USED    *         0.01 MB       (max)       0.00 MB       (current)
 **********************************************************************************************************************************

        CCSD(T)         RHF-SCF 
   -288.03787833   -286.93135761
 **********************************************************************************************************************************
 Variable memory released
