
 Primary working directories    : /tmp/944438.177.gen6.q
 Secondary working directories  : /tmp/944438.177.gen6.q
 Wavefunction directory         : /home/vulcan/mel64643/wfu/
 Main file repository           : /tmp/944438.177.gen6.q/

 ARCHNAME  : Linux/x86_64
 FC        : /opt/intel/compilers_and_libraries_2016.1.150/linux/bin/intel64/ifort
 FCVERSION : 16.0.1
 BLASLIB   : -mkl
 id        : ccgc

 Nodes     nprocs
 n074         1
 ga_uses_ma=false, calling ma_init with nominal heap.
 GA-space will be limited to   8.0 MW (determined by -G option)

 Using customized tuning parameters: mindgm=10; mindgv=16; mindgc=4; mindgr=1; noblas=0; mincuda=1000; minvec=7
 default implementation of scratch files=df  

 ***,Optimization of min3
 memory,1000,m
 gthresh,energy=1.0d-12,orbital=1.0d-10,oneint=1.0d-16,twoint=1.0d-16,optgrad=1.0d-6,compress=1.0d-13
 geomtyp=xyz
 
 
 
  bohr
  geometry = {
  C   -0.2867177950    2.3989837954   -2.1296496173
  C    0.7653516608    0.0042789647   -0.8938493687
  C    0.1924885407    0.0043711151    1.8340436370
  N   -0.2959679470    0.0044276115    3.9773420052
  H    2.8247469176    0.0051122371   -1.0648650124
  C   -0.2898648157   -2.4033087241   -2.1351091670
  H   -2.3450622933   -2.4549054167   -1.9630633299
  H    0.4800262092   -4.0991177677   -1.2534307043
  H    0.1996696386   -2.4176887597   -4.1387486100
  H   -2.3419573728    2.4489176543   -1.9576160513
  H    0.2028047660    2.4132854850   -4.1332925269
  H    0.4817665209    4.0956438051   -1.2483811668
 }
 
 basis=cc-pvdz
 {rhf;maxit,200}
 {ccsd(t);maxit,200}

 Variables initialized (661), CPU time= 0.00 sec
 Commands  initialized (458), CPU time= 0.01 sec, 486 directives.
 Default parameters read. Elapsed time= 0.04 sec

 Checking input...
 Passed
1


                                         ***  PROGRAM SYSTEM MOLPRO  ***
                         Copyright, University College Cardiff Consultants Limited, 2008

                                    Version 2010.1 linked May 16 2016 07:17:05


 **********************************************************************************************************************************
 LABEL *   Optimization of min3                                                          
 Linux-4.4.3/n074(x86_64) 64 bit mpp version                                             DATE: 27-Oct-23          TIME: 10:33:33  
 **********************************************************************************************************************************

 SHA1:             9e8077add272b0f3cad6f7df79ec5211205f459d
 **********************************************************************************************************************************

 THRESHOLDS:

 ZERO    =  1.00D-12  ONEINT  =  1.00D-16  TWOINT  =  1.00D-16  PREFAC  =  1.00D-14  LOCALI  =  1.00D-09  EORDER  =  1.00D-04
 ENERGY  =  1.00D-12  ETEST   =  0.00D+00  EDENS   =  0.00D+00  THRDEDEF=  1.00D-06  GRADIENT=  1.00D-02  STEP    =  1.00D-03
 ORBITAL =  1.00D-10  CIVEC   =  1.00D-05  COEFF   =  1.00D-04  PRINTCI =  5.00D-02  PUNCHCI =  9.90D+01  OPTGRAD =  1.00D-06
 OPTENERG=  1.00D-06  OPTSTEP =  3.00D-04  THRGRAD =  1.00D-10  COMPRESS=  1.00D-13  VARMIN  =  1.00D-07  VARMAX  =  1.00D-03
 THRDOUB =  0.00D+00  THRDIV  =  1.00D-05  THRRED  =  1.00D-07  THRPSP  =  1.00D+00  THRDC   =  1.00D-10  THRCS   =  1.00D-10
 THRNRM  =  1.00D-08  THREQ   =  0.00D+00  THRDE   =  1.00D+00  THRREF  =  1.00D-05  SPARFAC =  1.00D+00  THRDLP  =  1.00D-07
 THRDIA  =  1.00D-10  THRDLS  =  1.00D-07  THRGPS  =  0.00D+00  THRKEX  =  0.00D+00  THRDIS  =  2.00D-01  THRVAR  =  1.00D-10
 THRLOC  =  1.00D-06  THRGAP  =  1.00D-06  THRLOCT = -1.00D+00  THRGAPT = -1.00D+00  THRORB  =  1.00D-06  THRMLTP =  0.00D+00
 THRCPQCI=  1.00D-10  KEXTA   =  0.00D+00  THRCOARS=  0.00D+00  SYMTOL  =  1.00D-06  GRADTOL =  1.00D-06  THROVL  =  1.00D-08
 THRORTH =  1.00D-08  GRID    =  1.00D-06  GRIDMAX =  1.00D-03  DTMAX   =  0.00D+00

 SETTING GEOMTYP        =    XYZ
 ZUNIT=BOHR
 

 Variable memory set to 1000000000 words,  buffer space   230000 words

 SETTING BASIS          =    CC-PVDZ


 Recomputing integrals since basis changed


 Using spherical harmonics

 Library entry C      S cc-pVDZ              selected for orbital group  1
 Library entry C      P cc-pVDZ              selected for orbital group  1
 Library entry C      D cc-pVDZ              selected for orbital group  1
 Library entry N      S cc-pVDZ              selected for orbital group  2
 Library entry N      P cc-pVDZ              selected for orbital group  2
 Library entry N      D cc-pVDZ              selected for orbital group  2
 Library entry H      S cc-pVDZ              selected for orbital group  3
 Library entry H      P cc-pVDZ              selected for orbital group  3

1PROGRAM * SEWARD (Integral evaluation for generally contracted gaussian basis sets)     Author: Roland Lindh, 1990

 Geometry written to block  1 of record 700


 Point group  C1  



 ATOMIC COORDINATES

 NR  ATOM    CHARGE       X              Y              Z

   1  C       6.00   -0.286717795    2.398983795   -2.129649617
   2  C       6.00    0.765351661    0.004278965   -0.893849369
   3  C       6.00    0.192488541    0.004371115    1.834043637
   4  N       7.00   -0.295967947    0.004427612    3.977342005
   5  H       1.00    2.824746918    0.005112237   -1.064865012
   6  C       6.00   -0.289864816   -2.403308724   -2.135109167
   7  H       1.00   -2.345062293   -2.454905417   -1.963063330
   8  H       1.00    0.480026209   -4.099117768   -1.253430704
   9  H       1.00    0.199669639   -2.417688760   -4.138748610
  10  H       1.00   -2.341957373    2.448917654   -1.957616051
  11  H       1.00    0.202804766    2.413285485   -4.133292527
  12  H       1.00    0.481766521    4.095643805   -1.248381167

 Bond lengths in Bohr (Angstrom)

  1- 2  2.892864259   1-10  2.063031425   1-11  2.062624974   1-12  2.060547843   2- 3  2.787395274
       ( 1.530837835)       ( 1.091709212)       ( 1.091494127)       ( 1.090394957)       ( 1.475026051)

 2-5  2.066483939  2-6  2.907006395  3-4  2.198253315  6-7  2.063031425  6-8  2.060547843
     ( 1.093536203)     ( 1.538321530)     ( 1.163265554)     ( 1.091709212)     ( 1.090394957)

 6-9  2.062624974
     ( 1.091494127)

 Bond angles

  1- 2- 3  110.07805261   1- 2- 5  109.07122566   1- 2- 6  111.78757045   2- 1-10  110.28665572

  2- 1-11  109.53615441   2- 1-12  111.30134518   2- 3- 4  179.02148594   2- 6- 7  110.28665573

  2-6-8  111.30134516   2-6-9  109.53615441   3-2-5  106.60693543   3-2-6  110.07805261

  5-2-6  109.07122566   7-6-8  108.41810730   7-6-9  108.49789839   8-6-9  108.73761275

 10- 1-11  108.49789838  10- 1-12  108.41810731  11- 1-12  108.73761275

 NUCLEAR CHARGE:                   38
 NUMBER OF PRIMITIVE AOS:         184
 NUMBER OF SYMMETRY AOS:          179
 NUMBER OF CONTRACTIONS:          105   ( 105A   )
 NUMBER OF CORE ORBITALS:           5   (   5A   )
 NUMBER OF VALENCE ORBITALS:       27   (  27A   )


 NUCLEAR REPULSION ENERGY  158.94553523


 Eigenvalues of metric

         1 0.197E-02 0.463E-02 0.573E-02 0.601E-02 0.167E-01 0.195E-01 0.210E-01 0.265E-01


 Contracted 2-electron integrals neglected if value below      1.0D-16
 AO integral compression algorithm  1   Integral accuracy      1.0D-16

     129.499 MB (compressed) written to integral file ( 94.6%)

     Node minimum: 129.499 MB, node maximum: 129.499 MB


 NUMBER OF SORTED TWO-ELECTRON INTEGRALS:   15487395.     BUFFER LENGTH:  32768
 NUMBER OF SEGMENTS:   1  SEGMENT LENGTH:   15487395      RECORD LENGTH: 524288

 Memory used in sort:      16.04 MW

 SORT1 READ    17101285. AND WROTE    15442598. INTEGRALS IN     45 RECORDS. CPU TIME:     0.14 SEC, REAL TIME:     0.23 SEC
 SORT2 READ    15442598. AND WROTE    15487395. INTEGRALS IN    494 RECORDS. CPU TIME:     0.13 SEC, REAL TIME:     0.20 SEC

 FILE SIZES:   FILE 1:   120.4 MBYTE,  FILE 4:   188.8 MBYTE,   TOTAL:    309.2 MBYTE

 OPERATOR DM      FOR CENTER  0  COORDINATES:    0.000000    0.000000    0.000000


 **********************************************************************************************************************************
 DATASETS  * FILE   NREC   LENGTH (MB)   RECORD NAMES
              1      19      120.53       500      610      700      900      950      970     1000      129      960     1100   
                                          VAR    BASINP    GEOM    SYMINP    ZMAT    AOBASIS   BASIS     P2S    ABASIS      S 
                                         1400     1410     1200     1210     1080     1600     1650     1300     1700   
                                           T        V       H0       H01     AOSYM     SMH    MOLCAS    ERIS     OPER   

 PROGRAMS   *        TOTAL       INT
 CPU TIMES  *         1.54      1.50
 REAL TIME  *         1.96 SEC
 DISK USED  *       439.52 MB      
 GA USED    *         0.00 MB       (max)       0.00 MB       (current)
 **********************************************************************************************************************************

1PROGRAM * RHF-SCF (CLOSED SHELL)       Authors: W. Meyer, H.-J. Werner


 NUMBER OF ELECTRONS:      19+   19-    SPACE SYMMETRY=1    SPIN SYMMETRY: Singlet 
 CONVERGENCE THRESHOLDS:    1.00E-10 (Density)    1.00E-13 (Energy)
 MAX. NUMBER OF ITERATIONS:      200
 INTERPOLATION TYPE:            DIIS
 INTERPOLATION STEPS:              2 (START)      1 (STEP)
 LEVEL SHIFTS:                  0.00 (CLOSED)  0.00 (OPEN) 



 Orbital guess generated from atomic densities. Full valence occupancy:   32

 Molecular orbital dump at record        2100.2

 ITERATION    DDIFF          GRAD             ENERGY        2-EL.EN.            DIPOLE MOMENTS         DIIS
    1      0.000D+00      0.000D+00      -209.94376892    457.115912    0.48578    0.00022   -2.25192    0
    2      0.000D+00      0.590D-02      -209.98972424    456.669869    0.15071   -0.00108   -1.29400    1
    3      0.124D-01      0.414D-02      -210.01005721    456.354671    0.30680   -0.00100   -1.70243    2
    4      0.554D-02      0.106D-02      -210.01230446    456.681898    0.29344   -0.00125   -1.61421    3
    5      0.196D-02      0.235D-03      -210.01242255    456.522284    0.28711   -0.00121   -1.62544    4
    6      0.425D-03      0.579D-04      -210.01243193    456.541303    0.28734   -0.00124   -1.62351    5
    7      0.169D-03      0.160D-04      -210.01243248    456.539300    0.28769   -0.00125   -1.62482    6
    8      0.307D-04      0.501D-05      -210.01243253    456.538970    0.28756   -0.00125   -1.62494    7
    9      0.110D-04      0.107D-05      -210.01243254    456.538906    0.28759   -0.00125   -1.62493    7
   10      0.263D-05      0.382D-06      -210.01243254    456.539003    0.28759   -0.00125   -1.62496    7
   11      0.961D-06      0.202D-06      -210.01243254    456.538970    0.28758   -0.00125   -1.62495    7
   12      0.684D-06      0.925D-07      -210.01243254    456.538987    0.28758   -0.00125   -1.62495    7
   13      0.434D-06      0.239D-07      -210.01243254    456.538980    0.28758   -0.00125   -1.62495    8
   14      0.114D-06      0.463D-08      -210.01243254    456.538979    0.28758   -0.00125   -1.62495    8
   15      0.145D-07      0.184D-08      -210.01243254    456.538980    0.28758   -0.00125   -1.62495    8
   16      0.354D-08      0.526D-09      -210.01243254    456.538980    0.28758   -0.00125   -1.62495    8
   17      0.112D-08      0.104D-09      -210.01243254    456.538980    0.28758   -0.00125   -1.62495    8
   18      0.234D-09      0.259D-10      -210.01243254    456.538980    0.28758   -0.00125   -1.62495    7
   19      0.605D-10      0.860D-11      -210.01243254    456.538980    0.28758   -0.00125   -1.62495    7
   20      0.201D-10      0.316D-11      -210.01243254    456.538980    0.28758   -0.00125   -1.62495    7
   21      0.815D-11      0.125D-11      -210.01243254    456.538980    0.28758   -0.00125   -1.62495    7
   22      0.316D-11      0.594D-12      -210.01243254    456.538980    0.28758   -0.00125   -1.62495    7
   23      0.181D-11      0.294D-12      -210.01243254    456.538980    0.28758   -0.00125   -1.62495    8
   24      0.124D-11      0.116D-12      -210.01243254    456.538980    0.28758   -0.00125   -1.62495    8
   25      0.533D-12      0.524D-13      -210.01243254    456.538980    0.28758   -0.00125   -1.62495    9
   26      0.254D-12      0.377D-13      -210.01243254    456.538980    0.28758   -0.00125   -1.62495    9
   27      0.173D-12      0.253D-13      -210.01243254    456.538980    0.28758   -0.00125   -1.62495    0

 Final occupancy:  19

 !RHF STATE 1.1 Energy               -210.012432536731
 Nuclear energy                       158.94553523
 One-electron energy                 -597.22745775
 Two-electron energy                  228.26948998
 Virial quotient                       -1.00163704
 !RHF STATE 1.1 Dipole moment           0.28758285    -0.00124865    -1.62495254
 Dipole moment /Debye                   0.73091481    -0.00317354    -4.12994687

 Orbital energies:

         1.1          2.1          3.1          4.1          5.1          6.1          7.1          8.1          9.1         10.1
    -15.572623   -11.290171   -11.274784   -11.250433   -11.249855    -1.212657    -1.107774    -0.960708    -0.876344    -0.704121

        11.1         12.1         13.1         14.1         15.1         16.1         17.1         18.1         19.1         20.1
     -0.642663    -0.596909    -0.572507    -0.563749    -0.530491    -0.523505    -0.520213    -0.447525    -0.447208     0.155231

        21.1
      0.190289


 **********************************************************************************************************************************
 DATASETS  * FILE   NREC   LENGTH (MB)   RECORD NAMES
              1      19      120.53       500      610      700      900      950      970     1000      129      960     1100   
                                          VAR    BASINP    GEOM    SYMINP    ZMAT    AOBASIS   BASIS     P2S    ABASIS      S 
                                         1400     1410     1200     1210     1080     1600     1650     1300     1700   
                                           T        V       H0       H01     AOSYM     SMH    MOLCAS    ERIS     OPER   

              2       3        0.68       700     1000     2100   
                                         GEOM     BASIS     RHF  

 PROGRAMS   *        TOTAL       RHF       INT
 CPU TIMES  *         4.01      2.47      1.50
 REAL TIME  *         4.74 SEC
 DISK USED  *       439.52 MB      
 GA USED    *         0.00 MB       (max)       0.00 MB       (current)
 **********************************************************************************************************************************


1PROGRAM * CCSD (Closed-shell coupled cluster)     Authors: C. Hampel, H.-J. Werner, 1991, M. Deegan, P.J. Knowles, 1992


 Convergence thresholds:  THRVAR = 1.00D-08  THRDEN = 1.00D-12

 CCSD(T)     terms to be evaluated (factor= 1.000)


 Number of core orbitals:           5 (   5 )
 Number of closed-shell orbitals:  14 (  14 )
 Number of external orbitals:      86 (  86 )

 Molecular orbitals read from record     2100.2  Type=RHF/CANONICAL (state 1.1)

 Number of N-1 electron functions:              14
 Number of N-2 electron functions:             105
 Number of singly external CSFs:              1204
 Number of doubly external CSFs:            725410
 Total number of CSFs:                      726615

 Length of J-op  integral file:               0.00 MB
 Length of K-op  integral file:               0.79 MB
 Length of 3-ext integral record:             0.00 MB

 Memory could be reduced to 12.72 Mwords without degradation in triples

 Integral transformation finished. Total CPU:   0.56 sec, npass=  1  Memory used:  10.92 MW

 Reference energy:                   -210.01243254

 MP2 singlet pair energy:              -0.45163474
 MP2 triplet pair energy:              -0.25975900
 MP2 correlation energy:               -0.71139374
 MP2 total energy:                   -210.72382627

 SCS-MP2 correlation energy:           -0.70358951   (PS=  1.200000  PT=  0.333333)
 SCS-MP2 total energy:               -210.71602205

 ITER.      SQ.NORM     CORR.ENERGY   TOTAL ENERGY   ENERGY CHANGE        DEN1      VAR(S)    VAR(P)  DIIS     TIME
   1      1.27015989    -0.75346913  -210.76590167    -0.04207539    -0.01887859  0.35D-02  0.56D-02  1  1     2.14
   2      1.29281952    -0.75712644  -210.76955897    -0.00365731    -0.02204453  0.58D-04  0.76D-03  2  2     3.73
   3      1.30020232    -0.75750314  -210.76993567    -0.00037670    -0.00407744  0.27D-04  0.55D-04  3  3     5.32
   4      1.30276730    -0.75759988  -210.77003242    -0.00009674    -0.00100780  0.13D-05  0.65D-05  4  4     6.90
   5      1.30333464    -0.75760845  -210.77004099    -0.00000857    -0.00016824  0.16D-06  0.78D-06  5  5     8.50
   6      1.30345735    -0.75760289  -210.77003542     0.00000557    -0.00003126  0.97D-08  0.53D-07  6  6    10.09
   7      1.30347547    -0.75760528  -210.77003782    -0.00000240    -0.00000404  0.15D-08  0.48D-08  6  2    11.69
   8      1.30347691    -0.75760521  -210.77003774     0.00000008    -0.00000004  0.14D-09  0.42D-09  6  1    13.28
   9      1.30347726    -0.75760519  -210.77003773     0.00000002     0.00000023  0.16D-10  0.36D-10  6  3    14.87
  10      1.30347753    -0.75760520  -210.77003774    -0.00000001    -0.00000006  0.17D-11  0.33D-11  6  4    16.47
  11      1.30347715    -0.75760523  -210.77003776    -0.00000002     0.00000022  0.35D-12  0.34D-12  6  6    18.06
  12      1.30347708    -0.75760523  -210.77003777    -0.00000001     0.00000004  0.44D-13  0.27D-13  6  5    19.65
  13      1.30347704    -0.75760524  -210.77003777    -0.00000000     0.00000002  0.51D-14  0.45D-14  6  2    21.25
  14      1.30347704    -0.75760524  -210.77003777     0.00000000     0.00000000  0.15D-14  0.65D-15  6  1    22.86
  15      1.30347704    -0.75760524  -210.77003777     0.00000000    -0.00000000  0.99D-16  0.10D-15  6  4    24.46
  16      1.30347704    -0.75760524  -210.77003777     0.00000000    -0.00000000  0.15D-16  0.70D-17  6  3    26.05
  17      1.30347704    -0.75760524  -210.77003777     0.00000000    -0.00000000  0.33D-17  0.15D-17  6  6    27.65
  18      1.30347704    -0.75760524  -210.77003777    -0.00000000    -0.00000000  0.53D-18  0.25D-18  6  5    29.25
  19      1.30347704    -0.75760524  -210.77003777     0.00000000     0.00000000  0.59D-19  0.41D-19  6  2    30.84
  20      1.30347704    -0.75760524  -210.77003777     0.00000000    -0.00000000  0.63D-20  0.39D-20  6  4    32.44

 Norm of t1 vector:      0.07770530      S-energy:    -0.00000000      T1 diagnostic:  0.01038381
                                                                       D1 diagnostic:  0.02936024


 Total CPU time for triples:     19.89 sec


 RESULTS
 =======

  Reference energy                   -210.012432536730
  CCSD singlet pair energy             -0.527325838681
  CCSD triplet pair energy             -0.230279397185
  CCSD correlation energy              -0.757605235867

  Triples (T) contribution             -0.026791021344
  Total correlation energy             -0.784396257210

  CCSD total energy                  -210.770037772597
  CCSD[T] energy                     -210.797838157597
  CCSD-T energy                      -210.796358936170
 !CCSD(T) total energy               -210.796828793940

 Timing summary (sec):

 STEP                 CPU(USER)    SYS     CPU(TOT)    WALL
 Transformation          0.59      0.08      0.67      0.67
 CCSD iterations        31.85      0.91     32.76     32.79
 Triples                19.89      0.44     20.33     20.34

 Program statistics:

 Available memory in ccsd:               999999116
 Min. memory needed in ccsd:               1995783
 Max. memory used in ccsd:                 2628247
 Max. memory used in cckext:               2458865 (20 integral passes)



 **********************************************************************************************************************************
 DATASETS  * FILE   NREC   LENGTH (MB)   RECORD NAMES
              1      20      170.67       500      610      700      900      950      970     1000      129      960     1100   
                                          VAR    BASINP    GEOM    SYMINP    ZMAT    AOBASIS   BASIS     P2S    ABASIS      S 
                                         1400     1410     1200     1210     1080     1600     1650     1300     1700     1380   
                                           T        V       H0       H01     AOSYM     SMH    MOLCAS    ERIS     OPER     JKOP   

              2       3        0.68       700     1000     2100   
                                         GEOM     BASIS     RHF  

 PROGRAMS   *        TOTAL   CCSD(T)       RHF       INT
 CPU TIMES  *        56.35     52.33      2.47      1.50
 REAL TIME  *        58.58 SEC
 DISK USED  *       439.52 MB      
 GA USED    *         0.00 MB       (max)       0.00 MB       (current)
 **********************************************************************************************************************************

        CCSD(T)         RHF-SCF 
   -210.79682879   -210.01243254
 **********************************************************************************************************************************
 Variable memory released
