
 Primary working directories    : /tmp/862637.114.gen4.q
 Secondary working directories  : /tmp/862637.114.gen4.q
 Wavefunction directory         : /home/vulcan/lo21740/wfu/
 Main file repository           : /tmp/862637.114.gen4.q/

 ARCHNAME  : Linux/x86_64
 FC        : /opt/intel/compilers_and_libraries_2016.1.150/linux/bin/intel64/ifort
 FCVERSION : 16.0.1
 BLASLIB   : -mkl
 id        : ccgc

 Nodes     nprocs
 n040         1
 ga_uses_ma=false, calling ma_init with nominal heap.
 GA-space will be limited to   8.0 MW (determined by -G option)

 Using customized tuning parameters: mindgm=10; mindgv=16; mindgc=4; mindgr=1; noblas=0; mincuda=1000; minvec=7
 default implementation of scratch files=df  

 ***,Optimization of formic acid
 memory,1000,m
 gthresh,energy=1.0d-12,orbital=1.0d-10,oneint=1.0d-16,twoint=1.0d-16,optgrad=1.0d-6,compress=1.0d-13
 geomtyp=xyz
 
 bohr
 geometry = {
  C   -3.5001962031   -0.8324414311    0.0017003165
  O   -3.0917246585    1.6206519663   -0.0006232388
  O   -1.8877811068   -2.4805234247   -0.0008315736
  H   -5.5199515598   -1.2731673959   -0.0004287972
  H   -1.2427142529    1.9568109051   -0.0000805951
  C    3.5010187370    0.8291016540   -0.0017039726
  O    3.0969600754   -1.6247091998    0.0006340646
  O    1.8829963174    2.4819238793    0.0008256234
  H    5.5197416684    1.2735889310    0.0004216878
  H    1.2416509830   -1.9512358842    0.0000864849
 }
 
 basis=AVDZ, H=VDZ
 {rhf;maxit,200}
 {ccsd(t);maxit,200}

 Variables initialized (661), CPU time= 0.00 sec
 Commands  initialized (458), CPU time= 0.01 sec, 486 directives.
 Default parameters read. Elapsed time= 0.06 sec

 Checking input...
 Passed
1


                                         ***  PROGRAM SYSTEM MOLPRO  ***
                         Copyright, University College Cardiff Consultants Limited, 2008

                                    Version 2010.1 linked May 16 2016 07:17:05


 **********************************************************************************************************************************
 LABEL *   Optimization of formic acid                                                   
 Linux-4.4.3/n040(x86_64) 64 bit mpp version                                             DATE: 27-Apr-23          TIME: 14:43:21  
 **********************************************************************************************************************************

 SHA1:             9e8077add272b0f3cad6f7df79ec5211205f459d
 **********************************************************************************************************************************

 THRESHOLDS:

 ZERO    =  1.00D-12  ONEINT  =  1.00D-16  TWOINT  =  1.00D-16  PREFAC  =  1.00D-14  LOCALI  =  1.00D-09  EORDER  =  1.00D-04
 ENERGY  =  1.00D-12  ETEST   =  0.00D+00  EDENS   =  0.00D+00  THRDEDEF=  1.00D-06  GRADIENT=  1.00D-02  STEP    =  1.00D-03
 ORBITAL =  1.00D-10  CIVEC   =  1.00D-05  COEFF   =  1.00D-04  PRINTCI =  5.00D-02  PUNCHCI =  9.90D+01  OPTGRAD =  1.00D-06
 OPTENERG=  1.00D-06  OPTSTEP =  3.00D-04  THRGRAD =  1.00D-10  COMPRESS=  1.00D-13  VARMIN  =  1.00D-07  VARMAX  =  1.00D-03
 THRDOUB =  0.00D+00  THRDIV  =  1.00D-05  THRRED  =  1.00D-07  THRPSP  =  1.00D+00  THRDC   =  1.00D-10  THRCS   =  1.00D-10
 THRNRM  =  1.00D-08  THREQ   =  0.00D+00  THRDE   =  1.00D+00  THRREF  =  1.00D-05  SPARFAC =  1.00D+00  THRDLP  =  1.00D-07
 THRDIA  =  1.00D-10  THRDLS  =  1.00D-07  THRGPS  =  0.00D+00  THRKEX  =  0.00D+00  THRDIS  =  2.00D-01  THRVAR  =  1.00D-10
 THRLOC  =  1.00D-06  THRGAP  =  1.00D-06  THRLOCT = -1.00D+00  THRGAPT = -1.00D+00  THRORB  =  1.00D-06  THRMLTP =  0.00D+00
 THRCPQCI=  1.00D-10  KEXTA   =  0.00D+00  THRCOARS=  0.00D+00  SYMTOL  =  1.00D-06  GRADTOL =  1.00D-06  THROVL  =  1.00D-08
 THRORTH =  1.00D-08  GRID    =  1.00D-06  GRIDMAX =  1.00D-03  DTMAX   =  0.00D+00

 SETTING GEOMTYP        =    XYZ
 ZUNIT=BOHR
 

 Variable memory set to 1000000000 words,  buffer space   230000 words

 SETTING BASIS          =    AVDZ,H=VDZ


 Recomputing integrals since basis changed


 Using spherical harmonics

 Library entry C      S aug-cc-pVDZ          selected for orbital group  1
 Library entry C      P aug-cc-pVDZ          selected for orbital group  1
 Library entry C      D aug-cc-pVDZ          selected for orbital group  1
 Library entry O      S aug-cc-pVDZ          selected for orbital group  2
 Library entry O      P aug-cc-pVDZ          selected for orbital group  2
 Library entry O      D aug-cc-pVDZ          selected for orbital group  2
 Library entry H      S cc-pVDZ              selected for orbital group  3
 Library entry H      P cc-pVDZ              selected for orbital group  3

1PROGRAM * SEWARD (Integral evaluation for generally contracted gaussian basis sets)     Author: Roland Lindh, 1990

 Geometry written to block  1 of record 700


 Point group  C1  



 ATOMIC COORDINATES

 NR  ATOM    CHARGE       X              Y              Z

   1  C       6.00   -3.500196203   -0.832441431    0.001700317
   2  O       8.00   -3.091724659    1.620651966   -0.000623239
   3  O       8.00   -1.887781107   -2.480523425   -0.000831574
   4  H       1.00   -5.519951560   -1.273167396   -0.000428797
   5  H       1.00   -1.242714253    1.956810905   -0.000080595
   6  C       6.00    3.501018737    0.829101654   -0.001703973
   7  O       8.00    3.096960075   -1.624709200    0.000634065
   8  O       8.00    1.882996317    2.481923879    0.000825623
   9  H       1.00    5.519741668    1.273588931    0.000421688
  10  H       1.00    1.241650983   -1.951235884    0.000086485

 Bond lengths in Bohr (Angstrom)

 1-2  2.486869843  1-3  2.305658932  1-4  2.067282180  2-5  1.879319719  6-7  2.486856766
     ( 1.315994843)     ( 1.220102159)     ( 1.093958614)     ( 0.994493164)     ( 1.315987923)

  6- 8  2.312968711   6- 9  2.067079034   7-10  1.883823719
       ( 1.223970327)       ( 1.093851114)       ( 0.996876578)

 Bond angles

  1-2-5  109.75782366   2-1-3  126.17287629   2-1-4  111.76309078   3-1-4  122.06371795

  6- 7-10  109.33231369   7- 6- 8  126.25871077   7- 6- 9  111.76804688   8- 6- 9  121.97292746

 NUCLEAR CHARGE:                   48
 NUMBER OF PRIMITIVE AOS:         250
 NUMBER OF SYMMETRY AOS:          238
 NUMBER OF CONTRACTIONS:          158   ( 158A   )
 NUMBER OF CORE ORBITALS:           6   (   6A   )
 NUMBER OF VALENCE ORBITALS:       28   (  28A   )


 NUCLEAR REPULSION ENERGY  235.53085003


 Eigenvalues of metric

         1 0.779E-03 0.127E-02 0.143E-02 0.198E-02 0.276E-02 0.420E-02 0.474E-02 0.695E-02


 Contracted 2-electron integrals neglected if value below      1.0D-16
 AO integral compression algorithm  1   Integral accuracy      1.0D-16

     595.329 MB (compressed) written to integral file ( 82.0%)

     Node minimum: 595.329 MB, node maximum: 595.329 MB


 NUMBER OF SORTED TWO-ELECTRON INTEGRALS:   78895641.     BUFFER LENGTH:  32768
 NUMBER OF SEGMENTS:   5  SEGMENT LENGTH:   15999503      RECORD LENGTH: 524288

 Memory used in sort:      16.56 MW

 SORT1 READ    90699450. AND WROTE    77885000. INTEGRALS IN    226 RECORDS. CPU TIME:     0.96 SEC, REAL TIME:     1.42 SEC
 SORT2 READ    77885000. AND WROTE    78895641. INTEGRALS IN   2271 RECORDS. CPU TIME:     0.71 SEC, REAL TIME:     1.06 SEC

 FILE SIZES:   FILE 1:   528.1 MBYTE,  FILE 4:   947.9 MBYTE,   TOTAL:   1476.1 MBYTE

 OPERATOR DM      FOR CENTER  0  COORDINATES:    0.000000    0.000000    0.000000


 **********************************************************************************************************************************
 DATASETS  * FILE   NREC   LENGTH (MB)   RECORD NAMES
              1      19      528.43       500      610      700      900      950      970     1000      129      960     1100   
                                          VAR    BASINP    GEOM    SYMINP    ZMAT    AOBASIS   BASIS     P2S    ABASIS      S 
                                         1400     1410     1200     1210     1080     1600     1650     1300     1700   
                                           T        V       H0       H01     AOSYM     SMH    MOLCAS    ERIS     OPER   

 PROGRAMS   *        TOTAL       INT
 CPU TIMES  *         5.76      5.70
 REAL TIME  *         7.07 SEC
 DISK USED  *         2.07 GB      
 GA USED    *         0.00 MB       (max)       0.00 MB       (current)
 **********************************************************************************************************************************

1PROGRAM * RHF-SCF (CLOSED SHELL)       Authors: W. Meyer, H.-J. Werner


 NUMBER OF ELECTRONS:      24+   24-    SPACE SYMMETRY=1    SPIN SYMMETRY: Singlet 
 CONVERGENCE THRESHOLDS:    1.00E-10 (Density)    1.00E-13 (Energy)
 MAX. NUMBER OF ITERATIONS:      200
 INTERPOLATION TYPE:            DIIS
 INTERPOLATION STEPS:              2 (START)      1 (STEP)
 LEVEL SHIFTS:                  0.00 (CLOSED)  0.00 (OPEN) 



 Orbital guess generated from atomic densities. Full valence occupancy:   34

 Molecular orbital dump at record        2100.2

 ITERATION    DDIFF          GRAD             ENERGY        2-EL.EN.            DIPOLE MOMENTS         DIIS
    1      0.000D+00      0.000D+00      -377.47438613    746.306328    0.00649   -0.01060   -0.00001    0
    2      0.000D+00      0.724D-02      -377.56261055    743.506893    0.00160   -0.00177    0.00001    1
    3      0.137D-01      0.456D-02      -377.60996035    745.781909    0.00508   -0.00661   -0.00000    2
    4      0.513D-02      0.651D-03      -377.61156960    745.384328    0.00390   -0.00495   -0.00000    3
    5      0.997D-03      0.276D-03      -377.61185250    745.421578    0.00450   -0.00573   -0.00000    4
    6      0.415D-03      0.775D-04      -377.61189627    745.473282    0.00434   -0.00544   -0.00000    5
    7      0.139D-03      0.345D-04      -377.61190677    745.455261    0.00442   -0.00555   -0.00000    6
    8      0.802D-04      0.109D-04      -377.61190801    745.460768    0.00438   -0.00548   -0.00000    7
    9      0.296D-04      0.359D-05      -377.61190813    745.459453    0.00443   -0.00556   -0.00000    8
   10      0.962D-05      0.102D-05      -377.61190814    745.459621    0.00439   -0.00549   -0.00000    8
   11      0.263D-05      0.395D-06      -377.61190814    745.459640    0.00442   -0.00554   -0.00000    8
   12      0.823D-06      0.191D-06      -377.61190814    745.459608    0.00441   -0.00552   -0.00000    9
   13      0.324D-06      0.356D-07      -377.61190814    745.459616    0.00441   -0.00552   -0.00000    8
   14      0.910D-07      0.109D-07      -377.61190814    745.459613    0.00441   -0.00552   -0.00000    8
   15      0.172D-07      0.516D-08      -377.61190814    745.459615    0.00441   -0.00552   -0.00000    8
   16      0.106D-07      0.138D-08      -377.61190814    745.459615    0.00441   -0.00552   -0.00000    8
   17      0.292D-08      0.534D-09      -377.61190814    745.459615    0.00441   -0.00552   -0.00000    8
   18      0.932D-09      0.119D-09      -377.61190814    745.459615    0.00441   -0.00552   -0.00000    8
   19      0.261D-09      0.575D-10      -377.61190814    745.459615    0.00441   -0.00552   -0.00000    7
   20      0.125D-09      0.151D-10      -377.61190814    745.459615    0.00441   -0.00552   -0.00000    8
   21      0.358D-10      0.545D-11      -377.61190814    745.459615    0.00441   -0.00552   -0.00000    8
   22      0.124D-10      0.228D-11      -377.61190814    745.459615    0.00441   -0.00552   -0.00000    8
   23      0.586D-11      0.817D-12      -377.61190814    745.459615    0.00441   -0.00552   -0.00000    8
   24      0.179D-11      0.331D-12      -377.61190814    745.459615    0.00441   -0.00552   -0.00000    8
   25      0.855D-12      0.149D-12      -377.61190814    745.459615    0.00441   -0.00552   -0.00000    0

 Final occupancy:  24

 !RHF STATE 1.1 Energy               -377.611908137814
 Nuclear energy                       235.53085003
 One-electron energy                 -985.87256547
 Two-electron energy                  372.72980730
 Virial quotient                       -1.00164097
 !RHF STATE 1.1 Dipole moment           0.00440630    -0.00551960    -0.00000144
 Dipole moment /Debye                   0.01119897    -0.01402850    -0.00000367

 Orbital energies:

         1.1          2.1          3.1          4.1          5.1          6.1          7.1          8.1          9.1         10.1
    -20.626904   -20.625601   -20.587613   -20.587596   -11.420288   -11.419510    -1.490298    -1.477611    -1.392165    -1.378159

        11.1         12.1         13.1         14.1         15.1         16.1         17.1         18.1         19.1         20.1
     -0.921867    -0.886173    -0.771404    -0.735454    -0.726767    -0.698120    -0.645614    -0.635277    -0.622429    -0.581947

        21.1         22.1         23.1         24.1         25.1         26.1
     -0.506859    -0.498047    -0.495128    -0.475645     0.069506     0.070577


 **********************************************************************************************************************************
 DATASETS  * FILE   NREC   LENGTH (MB)   RECORD NAMES
              1      19      528.43       500      610      700      900      950      970     1000      129      960     1100   
                                          VAR    BASINP    GEOM    SYMINP    ZMAT    AOBASIS   BASIS     P2S    ABASIS      S 
                                         1400     1410     1200     1210     1080     1600     1650     1300     1700   
                                           T        V       H0       H01     AOSYM     SMH    MOLCAS    ERIS     OPER   

              2       3        0.94       700     1000     2100   
                                         GEOM     BASIS     RHF  

 PROGRAMS   *        TOTAL       RHF       INT
 CPU TIMES  *        23.40     17.64      5.70
 REAL TIME  *        26.25 SEC
 DISK USED  *         2.07 GB      
 GA USED    *         0.00 MB       (max)       0.00 MB       (current)
 **********************************************************************************************************************************


1PROGRAM * CCSD (Closed-shell coupled cluster)     Authors: C. Hampel, H.-J. Werner, 1991, M. Deegan, P.J. Knowles, 1992


 Convergence thresholds:  THRVAR = 1.00D-08  THRDEN = 1.00D-12

 CCSD(T)     terms to be evaluated (factor= 1.000)


 Number of core orbitals:           6 (   6 )
 Number of closed-shell orbitals:  18 (  18 )
 Number of external orbitals:     134 ( 134 )

 Molecular orbitals read from record     2100.2  Type=RHF/CANONICAL (state 1.1)

 Number of N-1 electron functions:              18
 Number of N-2 electron functions:             171
 Number of singly external CSFs:              2412
 Number of doubly external CSFs:           2910078
 Total number of CSFs:                     2912491

 Length of J-op  integral file:               0.00 MB
 Length of K-op  integral file:               1.76 MB
 Length of 3-ext integral record:             0.00 MB

 Memory could be reduced to 56.95 Mwords without degradation in triples

 Integral transformation finished. Total CPU:   5.64 sec, npass=  1  Memory used:  45.23 MW

 Reference energy:                   -377.61190814

 MP2 singlet pair energy:              -0.63199475
 MP2 triplet pair energy:              -0.43056316
 MP2 correlation energy:               -1.06255791
 MP2 total energy:                   -378.67446605

 SCS-MP2 correlation energy:           -1.02629967   (PS=  1.200000  PT=  0.333333)
 SCS-MP2 total energy:               -378.63820780

 ITER.      SQ.NORM     CORR.ENERGY   TOTAL ENERGY   ENERGY CHANGE        DEN1      VAR(S)    VAR(P)  DIIS     TIME
   1      1.30279346    -1.07991074  -378.69181888    -0.01735283     0.01548956  0.11D-01  0.60D-02  1  1    24.09
   2      1.32739079    -1.08101368  -378.69292181    -0.00110294    -0.02621113  0.24D-03  0.10D-02  2  2    42.70
   3      1.34057050    -1.08186713  -378.69377527    -0.00085345    -0.00594284  0.21D-03  0.45D-04  3  3    61.35
   4      1.34589532    -1.08159891  -378.69350705     0.00026821    -0.00176587  0.18D-04  0.80D-05  4  4    79.97
   5      1.34798301    -1.08150985  -378.69341799     0.00008906    -0.00046819  0.17D-05  0.73D-06  5  5    98.60
   6      1.34836565    -1.08148956  -378.69339770     0.00002029    -0.00002188  0.14D-06  0.84D-07  6  6   117.24
   7      1.34844799    -1.08148010  -378.69338823     0.00000947    -0.00000599  0.12D-07  0.12D-07  6  2   135.88
   8      1.34845381    -1.08148092  -378.69338905    -0.00000082     0.00000232  0.19D-08  0.11D-08  6  1   154.52
   9      1.34845450    -1.08148074  -378.69338888     0.00000018     0.00000127  0.30D-09  0.17D-09  6  4   173.16
  10      1.34845625    -1.08148057  -378.69338871     0.00000017    -0.00000050  0.70D-10  0.22D-10  6  3   191.80
  11      1.34845576    -1.08148069  -378.69338882    -0.00000011     0.00000022  0.16D-10  0.40D-11  6  5   210.42
  12      1.34845550    -1.08148071  -378.69338885    -0.00000002     0.00000004  0.29D-11  0.10D-11  6  6   229.07
  13      1.34845522    -1.08148074  -378.69338888    -0.00000004     0.00000010  0.49D-12  0.20D-12  6  1   247.71
  14      1.34845512    -1.08148075  -378.69338889    -0.00000001     0.00000002  0.68D-13  0.31D-13  6  2   266.35
  15      1.34845509    -1.08148075  -378.69338889    -0.00000000     0.00000000  0.13D-13  0.51D-14  6  4   285.00
  16      1.34845509    -1.08148075  -378.69338889    -0.00000000    -0.00000000  0.26D-14  0.11D-14  6  3   303.68
  17      1.34845508    -1.08148075  -378.69338889     0.00000000    -0.00000000  0.35D-15  0.19D-15  6  6   322.30
  18      1.34845508    -1.08148075  -378.69338889    -0.00000000     0.00000000  0.65D-16  0.22D-16  6  5   340.95
  19      1.34845508    -1.08148075  -378.69338889    -0.00000000    -0.00000000  0.21D-16  0.56D-17  6  2   359.58
  20      1.34845508    -1.08148075  -378.69338889    -0.00000000     0.00000000  0.51D-17  0.13D-17  6  1   378.21
  21      1.34845508    -1.08148075  -378.69338889     0.00000000     0.00000000  0.14D-17  0.35D-18  6  4   396.85
  22      1.34845508    -1.08148075  -378.69338889     0.00000000    -0.00000000  0.37D-18  0.11D-18  6  3   415.47
  23      1.34845508    -1.08148075  -378.69338889     0.00000000    -0.00000000  0.68D-19  0.23D-19  6  6   434.13
  24      1.34845508    -1.08148075  -378.69338889     0.00000000    -0.00000000  0.11D-19  0.54D-20  6  5   452.76
  25      1.34845508    -1.08148075  -378.69338889     0.00000000    -0.00000000  0.27D-20  0.11D-20  6  2   471.40
  26      1.34845508    -1.08148075  -378.69338889    -0.00000000     0.00000000  0.35D-21  0.23D-21  6  1   490.03

 Norm of t1 vector:      0.15400798      S-energy:     0.00000000      T1 diagnostic:  0.01815001
                                                                       D1 diagnostic:  0.06241138

 Singles amplitudes (print threshold =  0.500E-01):

         I         SYM. A    A   T(IA)

        12         1        10     -0.05262303


 Total CPU time for triples:    314.27 sec


 RESULTS
 =======

  Reference energy                   -377.611908137814
  CCSD singlet pair energy             -0.702940802717
  CCSD triplet pair energy             -0.378539947645
  CCSD correlation energy              -1.081480750362

  Triples (T) contribution             -0.039460629384
  Total correlation energy             -1.120941379746

  CCSD total energy                  -378.693388888175
  CCSD[T] energy                     -378.736497410905
  CCSD-T energy                      -378.731594311790
 !CCSD(T) total energy               -378.732849517560

 Timing summary (sec):

 STEP                 CPU(USER)    SYS     CPU(TOT)    WALL
 Transformation          5.89      0.38      6.27      8.47
 CCSD iterations       484.15      5.86    490.01    490.53
 Triples               314.27      3.88    318.15    318.17

 Program statistics:

 Available memory in ccsd:               999998604
 Min. memory needed in ccsd:               7389510
 Max. memory used in ccsd:                10033116
 Max. memory used in cckext:               8930217 (26 integral passes)



 **********************************************************************************************************************************
 DATASETS  * FILE   NREC   LENGTH (MB)   RECORD NAMES
              1      20      754.92       500      610      700      900      950      970     1000      129      960     1100   
                                          VAR    BASINP    GEOM    SYMINP    ZMAT    AOBASIS   BASIS     P2S    ABASIS      S 
                                         1400     1410     1200     1210     1080     1600     1650     1300     1700     1380   
                                           T        V       H0       H01     AOSYM     SMH    MOLCAS    ERIS     OPER     JKOP   

              2       3        0.94       700     1000     2100   
                                         GEOM     BASIS     RHF  

 PROGRAMS   *        TOTAL   CCSD(T)       RHF       INT
 CPU TIMES  *       827.73    804.33     17.64      5.70
 REAL TIME  *       843.49 SEC
 DISK USED  *         2.07 GB      
 GA USED    *         0.00 MB       (max)       0.00 MB       (current)
 **********************************************************************************************************************************

        CCSD(T)         RHF-SCF 
   -378.73284952   -377.61190814
 **********************************************************************************************************************************
 Variable memory released
