
 Primary working directories    : /tmp/1187310.10.gen6.q
 Secondary working directories  : /tmp/1187310.10.gen6.q
 Wavefunction directory         : /home/vulcan/mel64643/wfu/
 Main file repository           : /tmp/1187310.10.gen6.q/

 ARCHNAME  : Linux/x86_64
 FC        : /opt/intel/compilers_and_libraries_2016.1.150/linux/bin/intel64/ifort
 FCVERSION : 16.0.1
 BLASLIB   : -mkl
 id        : ccgc

 Nodes     nprocs
 n087         1
 ga_uses_ma=false, calling ma_init with nominal heap.
 GA-space will be limited to   8.0 MW (determined by -G option)

 Using customized tuning parameters: mindgm=10; mindgv=16; mindgc=4; mindgr=1; noblas=0; mincuda=1000; minvec=7
 default implementation of scratch files=df  

 ***,Optimization of min3
 memory,1000,m
 gthresh,energy=1.0d-12,orbital=1.0d-10,oneint=1.0d-16,twoint=1.0d-16,optgrad=1.0d-6,compress=1.0d-13
 geomtyp=xyz
 
 
 
  bohr
  geometry = {
  X   -1.0000000000    0.0000000000    1.0209360871
  C    0.0070877538   -0.0071896869    1.0209400153
  X    0.0000000000   -1.0000000000    1.0209360871
  C   -0.0033096251    0.0033572228   -1.2755893486
  H   -0.0037781287    0.0038324641    3.0326725551
 }
 
 basis=cc-pvtz
 {rhf;maxit,200}
 {rmp2}

 Variables initialized (661), CPU time= 0.01 sec
 Commands  initialized (458), CPU time= 0.00 sec, 486 directives.
 Default parameters read. Elapsed time= 0.04 sec

 Checking input...
 Passed
1


                                         ***  PROGRAM SYSTEM MOLPRO  ***
                         Copyright, University College Cardiff Consultants Limited, 2008

                                    Version 2010.1 linked May 16 2016 07:17:05


 **********************************************************************************************************************************
 LABEL *   Optimization of min3                                                          
 Linux-4.4.3/n087(x86_64) 64 bit mpp version                                             DATE: 16-Jul-24          TIME: 09:41:29  
 **********************************************************************************************************************************

 SHA1:             9e8077add272b0f3cad6f7df79ec5211205f459d
 **********************************************************************************************************************************

 THRESHOLDS:

 ZERO    =  1.00D-12  ONEINT  =  1.00D-16  TWOINT  =  1.00D-16  PREFAC  =  1.00D-14  LOCALI  =  1.00D-09  EORDER  =  1.00D-04
 ENERGY  =  1.00D-12  ETEST   =  0.00D+00  EDENS   =  0.00D+00  THRDEDEF=  1.00D-06  GRADIENT=  1.00D-02  STEP    =  1.00D-03
 ORBITAL =  1.00D-10  CIVEC   =  1.00D-05  COEFF   =  1.00D-04  PRINTCI =  5.00D-02  PUNCHCI =  9.90D+01  OPTGRAD =  1.00D-06
 OPTENERG=  1.00D-06  OPTSTEP =  3.00D-04  THRGRAD =  1.00D-10  COMPRESS=  1.00D-13  VARMIN  =  1.00D-07  VARMAX  =  1.00D-03
 THRDOUB =  0.00D+00  THRDIV  =  1.00D-05  THRRED  =  1.00D-07  THRPSP  =  1.00D+00  THRDC   =  1.00D-10  THRCS   =  1.00D-10
 THRNRM  =  1.00D-08  THREQ   =  0.00D+00  THRDE   =  1.00D+00  THRREF  =  1.00D-05  SPARFAC =  1.00D+00  THRDLP  =  1.00D-07
 THRDIA  =  1.00D-10  THRDLS  =  1.00D-07  THRGPS  =  0.00D+00  THRKEX  =  0.00D+00  THRDIS  =  2.00D-01  THRVAR  =  1.00D-10
 THRLOC  =  1.00D-06  THRGAP  =  1.00D-06  THRLOCT = -1.00D+00  THRGAPT = -1.00D+00  THRORB  =  1.00D-06  THRMLTP =  0.00D+00
 THRCPQCI=  1.00D-10  KEXTA   =  0.00D+00  THRCOARS=  0.00D+00  SYMTOL  =  1.00D-06  GRADTOL =  1.00D-06  THROVL  =  1.00D-08
 THRORTH =  1.00D-08  GRID    =  1.00D-06  GRIDMAX =  1.00D-03  DTMAX   =  0.00D+00

 SETTING GEOMTYP        =    XYZ
 ZUNIT=BOHR
 

 Variable memory set to 1000000000 words,  buffer space   230000 words

 SETTING BASIS          =    CC-PVTZ


 Recomputing integrals since basis changed


 Using spherical harmonics

 Library entry C      S cc-pVTZ              selected for orbital group  1
 Library entry C      P cc-pVTZ              selected for orbital group  1
 Library entry C      D cc-pVTZ              selected for orbital group  1
 Library entry C      F cc-pVTZ              selected for orbital group  1
 Library entry H      S cc-pVTZ              selected for orbital group  2
 Library entry H      P cc-pVTZ              selected for orbital group  2
 Library entry H      D cc-pVTZ              selected for orbital group  2

1PROGRAM * SEWARD (Integral evaluation for generally contracted gaussian basis sets)     Author: Roland Lindh, 1990

 Geometry written to block  1 of record 700


 Point group  C1  



 ATOMIC COORDINATES

 NR  ATOM    CHARGE       X              Y              Z

   1  C       6.00    0.007087754   -0.007189687    1.020940015
   2  C       6.00   -0.003309625    0.003357223   -1.275589349
   3  H       1.00   -0.003778129    0.003832464    3.032672555

 Bond lengths in Bohr (Angstrom)

 1-2  2.296577119  1-3  2.011792078
     ( 1.215296270)     ( 1.064594517)

 Bond angles

  2-1-3  179.18970181

 NUCLEAR CHARGE:                   13
 NUMBER OF PRIMITIVE AOS:         111
 NUMBER OF SYMMETRY AOS:          100
 NUMBER OF CONTRACTIONS:           74   (  74A   )
 NUMBER OF CORE ORBITALS:           2   (   2A   )
 NUMBER OF VALENCE ORBITALS:        9   (   9A   )


 NUCLEAR REPULSION ENERGY   20.05059088


 Eigenvalues of metric

         1 0.492E-03 0.124E-02 0.150E-02 0.585E-02 0.980E-02 0.119E-01 0.119E-01 0.150E-01


 Contracted 2-electron integrals neglected if value below      1.0D-16
 AO integral compression algorithm  1   Integral accuracy      1.0D-16

     33.817 MB (compressed) written to integral file ( 86.1%)

     Node minimum: 33.817 MB, node maximum: 33.817 MB


 NUMBER OF SORTED TWO-ELECTRON INTEGRALS:    3851700.     BUFFER LENGTH:  32768
 NUMBER OF SEGMENTS:   1  SEGMENT LENGTH:    3851700      RECORD LENGTH: 524288

 Memory used in sort:       4.41 MW

 SORT1 READ     4878749. AND WROTE     3639038. INTEGRALS IN     11 RECORDS. CPU TIME:     0.04 SEC, REAL TIME:     0.06 SEC
 SORT2 READ     3639038. AND WROTE     3851700. INTEGRALS IN    129 RECORDS. CPU TIME:     0.06 SEC, REAL TIME:     0.07 SEC

 FILE SIZES:   FILE 1:    29.5 MBYTE,  FILE 4:    46.2 MBYTE,   TOTAL:     75.6 MBYTE

 OPERATOR DM      FOR CENTER  0  COORDINATES:    0.000000    0.000000    0.000000


 **********************************************************************************************************************************
 DATASETS  * FILE   NREC   LENGTH (MB)   RECORD NAMES
              1      19       29.53       500      610      700      900      950      970     1000      129      960     1100   
                                          VAR    BASINP    GEOM    SYMINP    ZMAT    AOBASIS   BASIS     P2S    ABASIS      S 
                                         1400     1410     1200     1210     1080     1600     1650     1300     1700   
                                           T        V       H0       H01     AOSYM     SMH    MOLCAS    ERIS     OPER   

 PROGRAMS   *        TOTAL       INT
 CPU TIMES  *         0.36      0.32
 REAL TIME  *         1.26 SEC
 DISK USED  *       110.04 MB      
 GA USED    *         0.00 MB       (max)       0.00 MB       (current)
 **********************************************************************************************************************************

1PROGRAM * RHF-SCF (OPEN SHELL)       Authors: W. Meyer, H.-J. Werner


 NUMBER OF ELECTRONS:       7+    6-    SPACE SYMMETRY=1    SPIN SYMMETRY: Doublet 
 CONVERGENCE THRESHOLDS:    1.00E-10 (Density)    1.00E-13 (Energy)
 MAX. NUMBER OF ITERATIONS:      200
 INTERPOLATION TYPE:            DIIS
 INTERPOLATION STEPS:              2 (START)      1 (STEP)
 LEVEL SHIFTS:                 -0.30 (CLOSED)  0.00 (OPEN) 



 Orbital guess generated from atomic densities. Full valence occupancy:   11

 Molecular orbital dump at record        2100.2

 ITERATION    DDIFF          GRAD             ENERGY        2-EL.EN.            DIPOLE MOMENTS         DIIS
    1      0.000D+00      0.000D+00       -76.13500405     90.817296   -0.00270    0.00273   -0.00412    0
    2      0.000D+00      0.498D-02       -76.15671858     90.345836    0.00019   -0.00019    0.41172    1
    3      0.827D-02      0.195D-02       -76.15975808     90.538344   -0.00121    0.00123    0.26044    2
    4      0.268D-02      0.550D-03       -76.16035173     90.541746   -0.00095    0.00096    0.29970    3
    5      0.124D-02      0.197D-03       -76.16042691     90.536833   -0.00098    0.00099    0.29721    4
    6      0.583D-03      0.414D-04       -76.16043024     90.535735   -0.00088    0.00089    0.30120    5
    7      0.138D-03      0.125D-04       -76.16043056     90.535230   -0.00081    0.00082    0.30175    6
    8      0.397D-04      0.326D-05       -76.16043059     90.535098   -0.00075    0.00076    0.30214    7
    9      0.854D-05      0.133D-05       -76.16043060     90.535129   -0.00070    0.00071    0.30224    7
   10      0.371D-05      0.822D-06       -76.16043060     90.535125   -0.00064    0.00065    0.30228    7
   11      0.351D-05      0.494D-06       -76.16043061     90.535133   -0.00057    0.00058    0.30228    7
   12      0.378D-05      0.132D-06       -76.16043061     90.535125   -0.00055    0.00056    0.30227    8
   13      0.101D-05      0.339D-07       -76.16043061     90.535127   -0.00055    0.00056    0.30227    8
   14      0.177D-06      0.106D-07       -76.16043061     90.535127   -0.00055    0.00056    0.30227    8
   15      0.500D-07      0.405D-08       -76.16043061     90.535127   -0.00055    0.00056    0.30227    8
   16      0.121D-07      0.212D-08       -76.16043061     90.535127   -0.00055    0.00056    0.30227    9
   17      0.567D-08      0.122D-08       -76.16043061     90.535127   -0.00055    0.00056    0.30227    9
   18      0.371D-08      0.602D-09       -76.16043061     90.535127   -0.00055    0.00056    0.30227    8
   19      0.234D-08      0.171D-09       -76.16043061     90.535127   -0.00055    0.00056    0.30227    8
   20      0.634D-09      0.526D-10       -76.16043061     90.535127   -0.00055    0.00056    0.30227    9
   21      0.223D-09      0.154D-10       -76.16043061     90.535127   -0.00055    0.00056    0.30227    9
   22      0.691D-10      0.738D-11       -76.16043061     90.535127   -0.00055    0.00056    0.30227    9
   23      0.277D-10      0.497D-11       -76.16043061     90.535127   -0.00055    0.00056    0.30227    9
   24      0.242D-10      0.295D-11       -76.16043061     90.535127   -0.00055    0.00056    0.30227    9
   25      0.199D-10      0.187D-11       -76.16043061     90.535127   -0.00055    0.00056    0.30227    0

 Final alpha occupancy:   7
 Final beta  occupancy:   6

 !RHF STATE 1.1 Energy                -76.160430607909
 Nuclear energy                        20.05059088
 One-electron energy                 -141.47858494
 Two-electron energy                   45.26756345
 Virial quotient                       -1.00273962
 !RHF STATE 1.1 Dipole moment          -0.00055053     0.00055845     0.30226735
 Dipole moment /Debye                  -0.00139921     0.00141933     0.76823666

 Orbital energies:

         1.1          2.1          3.1          4.1          5.1          6.1          7.1          8.1          9.1
    -11.293044   -11.260518    -1.030220    -0.737419    -0.422020    -0.422017    -0.612980     0.158259     0.158503


 **********************************************************************************************************************************
 DATASETS  * FILE   NREC   LENGTH (MB)   RECORD NAMES
              1      19       29.53       500      610      700      900      950      970     1000      129      960     1100   
                                          VAR    BASINP    GEOM    SYMINP    ZMAT    AOBASIS   BASIS     P2S    ABASIS      S 
                                         1400     1410     1200     1210     1080     1600     1650     1300     1700   
                                           T        V       H0       H01     AOSYM     SMH    MOLCAS    ERIS     OPER   

              2       3        0.49       700     1000     2100   
                                         GEOM     BASIS     RHF  

 PROGRAMS   *        TOTAL       RHF       INT
 CPU TIMES  *         1.05      0.69      0.32
 REAL TIME  *         2.59 SEC
 DISK USED  *       110.04 MB      
 GA USED    *         0.00 MB       (max)       0.00 MB       (current)
 **********************************************************************************************************************************


1PROGRAM * RMP2 (Restricted open-shell)     Authors: U. Schumann, H.-J. Werner, 2001


 Convergence thresholds:  THRVAR = 1.00D-08  THRDEN = 1.00D-12

 Number of core orbitals:           2 (   2 )
 Number of closed-shell orbitals:   4 (   4 )
 Number of active  orbitals:        1 (   1 )
 Number of external orbitals:      67 (  67 )

 Reading UHF information from record   2100.2

                               TOTAL       A-A         B-B         A-B
 Pair energies:            -0.27501983 -0.03821153 -0.02821683 -0.20859147
 Singles energies:         -0.00239237 -0.00123254 -0.00115983

 Reference energy                     -76.160430607908
 Correlation energy                    -0.277412197052
 !RMP2 STATE 1.1 Energy               -76.437842804960


 **********************************************************************************************************************************
 DATASETS  * FILE   NREC   LENGTH (MB)   RECORD NAMES
              1      19       29.53       500      610      700      900      950      970     1000      129      960     1100   
                                          VAR    BASINP    GEOM    SYMINP    ZMAT    AOBASIS   BASIS     P2S    ABASIS      S 
                                         1400     1410     1200     1210     1080     1600     1650     1300     1700   
                                           T        V       H0       H01     AOSYM     SMH    MOLCAS    ERIS     OPER   

              2       3        0.49       700     1000     2100   
                                         GEOM     BASIS     RHF  

 PROGRAMS   *        TOTAL      RMP2       RHF       INT
 CPU TIMES  *         1.10      0.05      0.69      0.32
 REAL TIME  *         2.78 SEC
 DISK USED  *       110.04 MB      
 GA USED    *         0.00 MB       (max)       0.00 MB       (current)
 **********************************************************************************************************************************

        RMP2            RHF-SCF 
    -76.43784280    -76.16043061
 **********************************************************************************************************************************
 Variable memory released
