
 Primary working directories    : /tmp/1047041.200.gen6.q
 Secondary working directories  : /tmp/1047041.200.gen6.q
 Wavefunction directory         : /home/vulcan/mel64643/wfu/
 Main file repository           : /tmp/1047041.200.gen6.q/

 ARCHNAME  : Linux/x86_64
 FC        : /opt/intel/compilers_and_libraries_2016.1.150/linux/bin/intel64/ifort
 FCVERSION : 16.0.1
 BLASLIB   : -mkl
 id        : ccgc

 Nodes     nprocs
 n080         1
 ga_uses_ma=false, calling ma_init with nominal heap.
 GA-space will be limited to   8.0 MW (determined by -G option)

 Using customized tuning parameters: mindgm=10; mindgv=16; mindgc=4; mindgr=1; noblas=0; mincuda=1000; minvec=7
 default implementation of scratch files=df  

 ***,Optimization of ben_hcn
 memory,1000,m
 gthresh,energy=1.0d-12,orbital=1.0d-10,oneint=1.0d-16,twoint=1.0d-16,optgrad=1.0d-6,compress=1.0d-13
 geomtyp=xyz
 
 
 
 bohr
 geometry = {
  C   -1.8827253498    1.3705777565    2.2906452316
  C   -1.8564630763    2.6942473657   -0.0041955403
  C   -1.8759322720    1.3659735082   -2.2930899725
  C   -1.9214271412   -1.2742069915   -2.2870766330
  C   -1.9475611230   -2.5919249974   -0.0023683002
  C   -1.9282840185   -1.2753985104    2.2864382697
  H   -1.8619271886    2.3932732805    4.0648608660
  H   -1.8155227825    4.7418204028   -0.0068490137
  H   -1.8496984087    2.3856527000   -4.0689633409
  H   -1.9300191665   -2.3004622003   -4.0593055247
  H   -1.9761869709   -4.6396586155   -0.0035736640
  H   -1.9422377385   -2.3020332987    4.0584182497
  N    6.6252829616   -0.1856301162    0.0304068107
  C    4.4349029362   -0.0777497984    0.0067272555
  H    2.4146005857    0.0220430627   -0.0149741800
 }
 
 basis=aug-cc-pvdz, H=cc-pvdz
 {rhf;maxit,200}
 {ccsd(t)}

 Variables initialized (661), CPU time= 0.00 sec
 Commands  initialized (458), CPU time= 0.01 sec, 486 directives.
 Default parameters read. Elapsed time= 0.04 sec

 Checking input...
 Passed
1


                                         ***  PROGRAM SYSTEM MOLPRO  ***
                         Copyright, University College Cardiff Consultants Limited, 2008

                                    Version 2010.1 linked May 16 2016 07:17:05


 **********************************************************************************************************************************
 LABEL *   Optimization of ben_hcn                                                       
 Linux-4.4.3/n080(x86_64) 64 bit mpp version                                             DATE: 06-Mar-24          TIME: 19:29:22  
 **********************************************************************************************************************************

 SHA1:             9e8077add272b0f3cad6f7df79ec5211205f459d
 **********************************************************************************************************************************

 THRESHOLDS:

 ZERO    =  1.00D-12  ONEINT  =  1.00D-16  TWOINT  =  1.00D-16  PREFAC  =  1.00D-14  LOCALI  =  1.00D-09  EORDER  =  1.00D-04
 ENERGY  =  1.00D-12  ETEST   =  0.00D+00  EDENS   =  0.00D+00  THRDEDEF=  1.00D-06  GRADIENT=  1.00D-02  STEP    =  1.00D-03
 ORBITAL =  1.00D-10  CIVEC   =  1.00D-05  COEFF   =  1.00D-04  PRINTCI =  5.00D-02  PUNCHCI =  9.90D+01  OPTGRAD =  1.00D-06
 OPTENERG=  1.00D-06  OPTSTEP =  3.00D-04  THRGRAD =  1.00D-10  COMPRESS=  1.00D-13  VARMIN  =  1.00D-07  VARMAX  =  1.00D-03
 THRDOUB =  0.00D+00  THRDIV  =  1.00D-05  THRRED  =  1.00D-07  THRPSP  =  1.00D+00  THRDC   =  1.00D-10  THRCS   =  1.00D-10
 THRNRM  =  1.00D-08  THREQ   =  0.00D+00  THRDE   =  1.00D+00  THRREF  =  1.00D-05  SPARFAC =  1.00D+00  THRDLP  =  1.00D-07
 THRDIA  =  1.00D-10  THRDLS  =  1.00D-07  THRGPS  =  0.00D+00  THRKEX  =  0.00D+00  THRDIS  =  2.00D-01  THRVAR  =  1.00D-10
 THRLOC  =  1.00D-06  THRGAP  =  1.00D-06  THRLOCT = -1.00D+00  THRGAPT = -1.00D+00  THRORB  =  1.00D-06  THRMLTP =  0.00D+00
 THRCPQCI=  1.00D-10  KEXTA   =  0.00D+00  THRCOARS=  0.00D+00  SYMTOL  =  1.00D-06  GRADTOL =  1.00D-06  THROVL  =  1.00D-08
 THRORTH =  1.00D-08  GRID    =  1.00D-06  GRIDMAX =  1.00D-03  DTMAX   =  0.00D+00

 SETTING GEOMTYP        =    XYZ
 ZUNIT=BOHR
 

 Variable memory set to 1000000000 words,  buffer space   230000 words

 SETTING BASIS          =    AUG-CC-PVDZ,H=CC-PVDZ


 Recomputing integrals since basis changed


 Using spherical harmonics

 Library entry C      S aug-cc-pVDZ          selected for orbital group  1
 Library entry C      P aug-cc-pVDZ          selected for orbital group  1
 Library entry C      D aug-cc-pVDZ          selected for orbital group  1
 Library entry H      S cc-pVDZ              selected for orbital group  2
 Library entry H      P cc-pVDZ              selected for orbital group  2
 Library entry N      S aug-cc-pVDZ          selected for orbital group  3
 Library entry N      P aug-cc-pVDZ          selected for orbital group  3
 Library entry N      D aug-cc-pVDZ          selected for orbital group  3

1PROGRAM * SEWARD (Integral evaluation for generally contracted gaussian basis sets)     Author: Roland Lindh, 1990

 Geometry written to block  1 of record 700


 Point group  C1  



 ATOMIC COORDINATES

 NR  ATOM    CHARGE       X              Y              Z

   1  C       6.00   -1.882725350    1.370577756    2.290645232
   2  C       6.00   -1.856463076    2.694247366   -0.004195540
   3  C       6.00   -1.875932272    1.365973508   -2.293089972
   4  C       6.00   -1.921427141   -1.274206992   -2.287076633
   5  C       6.00   -1.947561123   -2.591924997   -0.002368300
   6  C       6.00   -1.928284019   -1.275398510    2.286438270
   7  H       1.00   -1.861927189    2.393273280    4.064860866
   8  H       1.00   -1.815522782    4.741820403   -0.006849014
   9  H       1.00   -1.849698409    2.385652700   -4.068963341
  10  H       1.00   -1.930019166   -2.300462200   -4.059305525
  11  H       1.00   -1.976186971   -4.639658616   -0.003573664
  12  H       1.00   -1.942237739   -2.302033299    4.058418250
  13  N       7.00    6.625282962   -0.185630116    0.030406811
  14  C       6.00    4.434902936   -0.077749798    0.006727256
  15  H       1.00    2.414600586    0.022043063   -0.014974180

 Bond lengths in Bohr (Angstrom)

 1-2  2.649355603  1-6  2.646371798  1-7  2.047969681  2-3  2.646455783  2-8  2.047984006
     ( 1.401978603)     ( 1.400399642)     ( 1.083738880)     ( 1.400444085)     ( 1.083746461)

  3- 4  2.640579295   3- 9  2.047964866   4- 5  2.637604196   4-10  2.047942582   5- 6  2.640501678
       ( 1.397334382)       ( 1.083736332)       ( 1.395760027)       ( 1.083724540)       ( 1.397293308)

  5-11  2.047934047   6-12  2.047946958  13-14  2.193162908  14-15  2.022881893
       ( 1.083720023)       ( 1.083726856)       ( 1.160571826)       ( 1.070462995)

 Bond angles

  1- 2- 3  119.88909470   1- 2- 8  120.05556551   1- 6- 5  120.00123475   1- 6-12  119.99777593

  2-1-6  119.89013337   2-1-7  120.05348546   2-3-4  119.99920865   2-3-9  119.99924890

  3- 2- 8  120.05508898   3- 4- 5  120.10967626   3- 4-10  119.94319432   4- 3- 9  120.00125697

  4- 5- 6  120.11065224   4- 5-11  119.94502086   5- 4-10  119.94680449   5- 6-12  120.00067108

  6- 1- 7  120.05610906   6- 5-11  119.94397610  13-14-15  179.99091354

 NUCLEAR CHARGE:                   56
 NUMBER OF PRIMITIVE AOS:         345
 NUMBER OF SYMMETRY AOS:          329
 NUMBER OF CONTRACTIONS:          219   ( 219A   )
 NUMBER OF CORE ORBITALS:           8   (   8A   )
 NUMBER OF VALENCE ORBITALS:       39   (  39A   )


 NUCLEAR REPULSION ENERGY  303.38740370


 Eigenvalues of metric

         1 0.865E-05 0.186E-04 0.229E-04 0.534E-04 0.630E-04 0.631E-04 0.929E-04 0.929E-04


 Contracted 2-electron integrals neglected if value below      1.0D-16
 AO integral compression algorithm  1   Integral accuracy      1.0D-16

     2343.567 MB (compressed) written to integral file ( 91.4%)

     Node minimum: 2343.567 MB, node maximum: 2343.567 MB


 NUMBER OF SORTED TWO-ELECTRON INTEGRALS:  290176095.     BUFFER LENGTH:  32768
 NUMBER OF SEGMENTS:  19  SEGMENT LENGTH:   15999762      RECORD LENGTH: 524288

 Memory used in sort:      16.56 MW

 SORT1 READ   320642736. AND WROTE   287608652. INTEGRALS IN    832 RECORDS. CPU TIME:     2.94 SEC, REAL TIME:     5.11 SEC
 SORT2 READ   287608652. AND WROTE   290176095. INTEGRALS IN   8940 RECORDS. CPU TIME:     2.00 SEC, REAL TIME:     3.04 SEC

 FILE SIZES:   FILE 1:  2153.8 MBYTE,  FILE 4:  3489.7 MBYTE,   TOTAL:   5643.5 MBYTE

 OPERATOR DM      FOR CENTER  0  COORDINATES:    0.000000    0.000000    0.000000


 **********************************************************************************************************************************
 DATASETS  * FILE   NREC   LENGTH (MB)   RECORD NAMES
              1      19     2154.41       500      610      700      900      950      970     1000      129      960     1100   
                                          VAR    BASINP    GEOM    SYMINP    ZMAT    AOBASIS   BASIS     P2S    ABASIS      S 
                                         1400     1410     1200     1210     1080     1600     1650     1300     1700   
                                           T        V       H0       H01     AOSYM     SMH    MOLCAS    ERIS     OPER   

 PROGRAMS   *        TOTAL       INT
 CPU TIMES  *        15.75     15.71
 REAL TIME  *        20.41 SEC
 DISK USED  *         7.99 GB      
 GA USED    *         0.01 MB       (max)       0.00 MB       (current)
 **********************************************************************************************************************************

1PROGRAM * RHF-SCF (CLOSED SHELL)       Authors: W. Meyer, H.-J. Werner


 NUMBER OF ELECTRONS:      28+   28-    SPACE SYMMETRY=1    SPIN SYMMETRY: Singlet 
 CONVERGENCE THRESHOLDS:    1.00E-10 (Density)    1.00E-13 (Energy)
 MAX. NUMBER OF ITERATIONS:      200
 INTERPOLATION TYPE:            DIIS
 INTERPOLATION STEPS:              2 (START)      1 (STEP)
 LEVEL SHIFTS:                  0.00 (CLOSED)  0.00 (OPEN) 



 Orbital guess generated from atomic densities. Full valence occupancy:   47

 Molecular orbital dump at record        2100.2

 ITERATION    DDIFF          GRAD             ENERGY        2-EL.EN.            DIPOLE MOMENTS         DIIS
    1      0.000D+00      0.000D+00      -323.54135399    822.111625   -1.89916    0.09769   -0.01506    0
    2      0.000D+00      0.292D-02      -323.59779612    819.090762   -1.36910    0.03895   -0.01171    1
    3      0.782D-02      0.179D-02      -323.61439607    820.236188   -1.72997    0.07198   -0.01317    2
    4      0.260D-02      0.576D-03      -323.61673229    820.437830   -1.63922    0.06499   -0.01210    3
    5      0.963D-03      0.133D-03      -323.61686166    820.177870   -1.66318    0.06487   -0.01267    4
    6      0.223D-03      0.229D-04      -323.61686779    820.204707   -1.66453    0.06527   -0.01240    5
    7      0.845D-04      0.438D-05      -323.61686799    820.199888   -1.66488    0.06487   -0.01258    6
    8      0.108D-04      0.133D-05      -323.61686801    820.200756   -1.66518    0.06516   -0.01245    7
    9      0.354D-05      0.397D-06      -323.61686801    820.200904   -1.66517    0.06500   -0.01252    7
   10      0.923D-06      0.178D-06      -323.61686801    820.200856   -1.66516    0.06506   -0.01249    7
   11      0.356D-06      0.245D-07      -323.61686801    820.200854   -1.66516    0.06505   -0.01250    7
   12      0.111D-06      0.603D-08      -323.61686801    820.200856   -1.66516    0.06505   -0.01250    7
   13      0.186D-07      0.201D-08      -323.61686801    820.200856   -1.66516    0.06505   -0.01250    7
   14      0.639D-08      0.627D-09      -323.61686801    820.200855   -1.66516    0.06505   -0.01250    7
   15      0.205D-08      0.232D-09      -323.61686801    820.200855   -1.66516    0.06505   -0.01250    7
   16      0.523D-09      0.617D-10      -323.61686801    820.200855   -1.66516    0.06505   -0.01250    7
   17      0.237D-09      0.226D-10      -323.61686801    820.200855   -1.66516    0.06505   -0.01250    7
   18      0.109D-09      0.104D-10      -323.61686801    820.200855   -1.66516    0.06505   -0.01250    8
   19      0.197D-09      0.548D-11      -323.61686801    820.200855   -1.66516    0.06505   -0.01250    8
   20      0.132D-09      0.290D-11      -323.61686801    820.200855   -1.66516    0.06505   -0.01250    9
   21      0.191D-09      0.138D-11      -323.61686801    820.200855   -1.66516    0.06505   -0.01250    9
   22      0.177D-09      0.740D-12      -323.61686801    820.200855   -1.66516    0.06505   -0.01250    9
   23      0.785D-10      0.637D-12      -323.61686801    820.200855   -1.66516    0.06505   -0.01250    9
   24      0.657D-10      0.617D-12      -323.61686801    820.200855   -1.66516    0.06505   -0.01250    9
   25      0.491D-10      0.502D-12      -323.61686801    820.200855   -1.66516    0.06505   -0.01250    9
   26      0.288D-10      0.425D-12      -323.61686801    820.200855   -1.66516    0.06505   -0.01250    9
   27      0.248D-10      0.442D-12      -323.61686801    820.200855   -1.66516    0.06505   -0.01250    9
   28      0.206D-10      0.376D-12      -323.61686801    820.200855   -1.66516    0.06505   -0.01250    9
   29      0.208D-10      0.413D-12      -323.61686801    820.200855   -1.66516    0.06505   -0.01250    9
   30      0.126D-10      0.462D-12      -323.61686801    820.200855   -1.66516    0.06505   -0.01250    9
   31      0.901D-11      0.508D-12      -323.61686801    820.200855   -1.66516    0.06505   -0.01250    9
   32      0.892D-11      0.488D-12      -323.61686801    820.200855   -1.66516    0.06505   -0.01250    0

 Final occupancy:  28

 !RHF STATE 1.1 Energy               -323.616868006597
 Nuclear energy                       303.38740370
 One-electron energy                -1037.10469930
 Two-electron energy                  410.10042759
 Virial quotient                       -1.00170967
 !RHF STATE 1.1 Dipole moment          -1.66516020     0.06505159    -0.01249519
 Dipole moment /Debye                  -4.23213787     0.16533381    -0.03175753

 Orbital energies:

         1.1          2.1          3.1          4.1          5.1          6.1          7.1          8.1          9.1         10.1
    -15.591654   -11.283868   -11.266584   -11.265825   -11.265486   -11.264736   -11.264391   -11.263586    -1.218339    -1.173927

        11.1         12.1         13.1         14.1         15.1         16.1         17.1         18.1         19.1         20.1
     -1.037790    -1.037784    -0.845723    -0.845720    -0.789910    -0.729365    -0.664878    -0.639194    -0.608562    -0.608562

        21.1         22.1         23.1         24.1         25.1         26.1         27.1         28.1         29.1         30.1
     -0.565232    -0.520382    -0.514852    -0.514851    -0.475694    -0.475691    -0.359671    -0.359665     0.055869     0.060082


 **********************************************************************************************************************************
 DATASETS  * FILE   NREC   LENGTH (MB)   RECORD NAMES
              1      19     2154.41       500      610      700      900      950      970     1000      129      960     1100   
                                          VAR    BASINP    GEOM    SYMINP    ZMAT    AOBASIS   BASIS     P2S    ABASIS      S 
                                         1400     1410     1200     1210     1080     1600     1650     1300     1700   
                                           T        V       H0       H01     AOSYM     SMH    MOLCAS    ERIS     OPER   

              2       3        1.49       700     1000     2100   
                                         GEOM     BASIS     RHF  

 PROGRAMS   *        TOTAL       RHF       INT
 CPU TIMES  *        77.40     61.65     15.71
 REAL TIME  *        88.38 SEC
 DISK USED  *         7.99 GB      
 GA USED    *         0.01 MB       (max)       0.00 MB       (current)
 **********************************************************************************************************************************


1PROGRAM * CCSD (Closed-shell coupled cluster)     Authors: C. Hampel, H.-J. Werner, 1991, M. Deegan, P.J. Knowles, 1992


 Convergence thresholds:  THRVAR = 1.00D-08  THRDEN = 1.00D-12

 CCSD(T)     terms to be evaluated (factor= 1.000)


 Number of core orbitals:           8 (   8 )
 Number of closed-shell orbitals:  20 (  20 )
 Number of external orbitals:     191 ( 191 )

 Molecular orbitals read from record     2100.2  Type=RHF/CANONICAL (state 1.1)

 Number of N-1 electron functions:              20
 Number of N-2 electron functions:             210
 Number of singly external CSFs:              3820
 Number of doubly external CSFs:           7298110
 Total number of CSFs:                     7301931

 Length of J-op  integral file:               0.00 MB
 Length of K-op  integral file:               3.32 MB
 Length of 3-ext integral record:             0.00 MB

 Memory could be reduced to 174.82 Mwords without degradation in triples

 Integral transformation finished. Total CPU:  14.23 sec, npass=  1  Memory used: 128.13 MW

 Reference energy:                   -323.61686801

 MP2 singlet pair energy:              -0.67334274
 MP2 triplet pair energy:              -0.43519682
 MP2 correlation energy:               -1.10853957
 MP2 total energy:                   -324.72540757

 SCS-MP2 correlation energy:           -1.07880043   (PS=  1.200000  PT=  0.333333)
 SCS-MP2 total energy:               -324.69566843

 ITER.      SQ.NORM     CORR.ENERGY   TOTAL ENERGY   ENERGY CHANGE        DEN1      VAR(S)    VAR(P)  DIIS     TIME
   1      1.42873336    -1.14462207  -324.76149007    -0.03608250    -0.00289010  0.51D-02  0.99D-02  1  1    60.70
   2      1.46305587    -1.15049555  -324.76736356    -0.00587348    -0.03103148  0.83D-04  0.13D-02  2  2   107.43
   3      1.47634777    -1.15094327  -324.76781127    -0.00044772    -0.00655957  0.40D-04  0.12D-03  3  3   154.18
   4      1.48204007    -1.15119296  -324.76806097    -0.00024970    -0.00178587  0.22D-05  0.15D-04  4  4   200.96
   5      1.48356944    -1.15122866  -324.76809667    -0.00003570    -0.00036587  0.25D-06  0.14D-05  5  5   247.72
   6      1.48387562    -1.15122015  -324.76808815     0.00000852    -0.00005025  0.24D-07  0.91D-07  6  6   294.51
   7      1.48391040    -1.15122356  -324.76809156    -0.00000341    -0.00000225  0.34D-08  0.80D-08  6  2   341.31
   8      1.48391508    -1.15122391  -324.76809192    -0.00000036    -0.00000042  0.41D-09  0.83D-09  6  1   388.13
   9      1.48391530    -1.15122408  -324.76809209    -0.00000017     0.00000079  0.63D-10  0.78D-10  6  3   434.92
  10      1.48391568    -1.15122414  -324.76809214    -0.00000006     0.00000002  0.10D-10  0.99D-11  6  4   481.73
  11      1.48391540    -1.15122417  -324.76809218    -0.00000004     0.00000022  0.16D-11  0.14D-11  6  5   528.54
  12      1.48391524    -1.15122419  -324.76809219    -0.00000001     0.00000008  0.24D-12  0.27D-12  6  6   575.32
  13      1.48391510    -1.15122419  -324.76809220    -0.00000000     0.00000005  0.14D-13  0.52D-13  6  2   622.11
  14      1.48391504    -1.15122419  -324.76809220    -0.00000000     0.00000002  0.21D-14  0.93D-14  6  1   668.88
  15      1.48391501    -1.15122419  -324.76809220     0.00000000     0.00000001  0.45D-15  0.13D-14  6  3   715.69
  16      1.48391500    -1.15122419  -324.76809220    -0.00000000     0.00000000  0.97D-16  0.19D-15  6  4   762.48
  17      1.48391500    -1.15122419  -324.76809220    -0.00000000     0.00000000  0.19D-16  0.28D-16  6  5   809.31
  18      1.48391500    -1.15122419  -324.76809220    -0.00000000     0.00000000  0.36D-17  0.36D-17  6  6   856.09
  19      1.48391500    -1.15122419  -324.76809220    -0.00000000     0.00000000  0.82D-18  0.60D-18  6  2   902.92
  20      1.48391500    -1.15122419  -324.76809220    -0.00000000     0.00000000  0.19D-18  0.13D-18  6  1   949.73
  21      1.48391500    -1.15122419  -324.76809220    -0.00000000     0.00000000  0.63D-19  0.37D-19  6  3   996.47
  22      1.48391500    -1.15122419  -324.76809220     0.00000000     0.00000000  0.30D-19  0.17D-19  6  4  1043.24

 Norm of t1 vector:      0.09773727      S-energy:     0.00000000      T1 diagnostic:  0.01092736
                                                                       D1 diagnostic:  0.02771712

 Doubles amplitudes (print threshold =  0.500E-01):

         I         J         SYM. A    SYM. B    A         B      T(IJ, AB)

        19        19         1         1         7         7     -0.05054149
        20        20         1         1         8         8     -0.05054077


 Total CPU time for triples:   1004.84 sec


 RESULTS
 =======

  Reference energy                   -323.616868006598
  CCSD singlet pair energy             -0.770020064675
  CCSD triplet pair energy             -0.381204125979
  CCSD correlation energy              -1.151224190653

  Triples (T) contribution             -0.054015436347
  Total correlation energy             -1.205239627000

  CCSD total energy                  -324.768092197251
  CCSD[T] energy                     -324.823439964166
  CCSD-T energy                      -324.821502148783
 !CCSD(T) total energy               -324.822107633598

 Timing summary (sec):

 STEP                 CPU(USER)    SYS     CPU(TOT)    WALL
 Transformation         14.69      0.98     15.67     15.67
 CCSD iterations      1028.56     14.12   1042.68   1042.86
 Triples              1004.84     13.13   1017.97   1018.11

 Program statistics:

 Available memory in ccsd:               999998300
 Min. memory needed in ccsd:              17709720
 Max. memory used in ccsd:                24415330
 Max. memory used in cckext:              20754978 (22 integral passes)



 **********************************************************************************************************************************
 DATASETS  * FILE   NREC   LENGTH (MB)   RECORD NAMES
              1      20     2836.58       500      610      700      900      950      970     1000      129      960     1100   
                                          VAR    BASINP    GEOM    SYMINP    ZMAT    AOBASIS   BASIS     P2S    ABASIS      S 
                                         1400     1410     1200     1210     1080     1600     1650     1300     1700     1380   
                                           T        V       H0       H01     AOSYM     SMH    MOLCAS    ERIS     OPER     JKOP   

              2       3        1.49       700     1000     2100   
                                         GEOM     BASIS     RHF  

 PROGRAMS   *        TOTAL   CCSD(T)       RHF       INT
 CPU TIMES  *      2125.50   2048.10     61.65     15.71
 REAL TIME  *      2165.14 SEC
 DISK USED  *         7.99 GB      
 GA USED    *         0.01 MB       (max)       0.00 MB       (current)
 **********************************************************************************************************************************

        CCSD(T)         RHF-SCF 
   -324.82210763   -323.61686801
 **********************************************************************************************************************************
 Variable memory released
