
 Primary working directories    : /tmp/880701.845.gen4.q
 Secondary working directories  : /tmp/880701.845.gen4.q
 Wavefunction directory         : /home/vulcan/lo21740/wfu/
 Main file repository           : /tmp/880701.845.gen4.q/

 ARCHNAME  : Linux/x86_64
 FC        : /opt/intel/compilers_and_libraries_2016.1.150/linux/bin/intel64/ifort
 FCVERSION : 16.0.1
 BLASLIB   : -mkl
 id        : ccgc

 Nodes     nprocs
 n046         1
 ga_uses_ma=false, calling ma_init with nominal heap.
 GA-space will be limited to   8.0 MW (determined by -G option)

 Using customized tuning parameters: mindgm=10; mindgv=16; mindgc=4; mindgr=1; noblas=0; mincuda=1000; minvec=7
 default implementation of scratch files=df  

 ***,Optimization of formamide
 memory,1000,m
 gthresh,energy=1.0d-12,orbital=1.0d-10,oneint=1.0d-16,twoint=1.0d-16,optgrad=1.0d-6,compress=1.0d-13
 geomtyp=xyz
 
 bohr
 geometry = {
  C   -3.8246480213    0.0875240427   -0.0002744797
  O   -2.7315115461    2.1430002548    0.0035729147
  N   -2.6822777136   -2.1803648790    0.0011480626
  H   -3.7408073374   -3.7604525246   -0.0001630312
  H   -0.7522984662   -2.3039485171    0.0021672004
  H   -5.8978923301   -0.0194583596   -0.0064512721
  C    3.8269435948   -0.0851590684   -0.0002755192
  O    2.7289192441   -2.1349041967    0.0035763023
  N    2.6804436309    2.1785125242    0.0011473946
  H    3.7373581260    3.7516482009   -0.0001600410
  H    0.7490653879    2.3061970179    0.0021660827
  H    5.9067054309    0.0174055048   -0.0064536140
 }
 
 basis=AVDZ
 {rhf;maxit,200}
 {ccsd(t);maxit,200}

 Variables initialized (661), CPU time= 0.00 sec
 Commands  initialized (458), CPU time= 0.00 sec, 486 directives.
 Default parameters read. Elapsed time= 0.05 sec

 Checking input...
 Passed
1


                                         ***  PROGRAM SYSTEM MOLPRO  ***
                         Copyright, University College Cardiff Consultants Limited, 2008

                                    Version 2010.1 linked May 16 2016 07:17:05


 **********************************************************************************************************************************
 LABEL *   Optimization of formamide                                                     
 Linux-4.4.3/n046(x86_64) 64 bit mpp version                                             DATE: 25-May-23          TIME: 04:42:38  
 **********************************************************************************************************************************

 SHA1:             9e8077add272b0f3cad6f7df79ec5211205f459d
 **********************************************************************************************************************************

 THRESHOLDS:

 ZERO    =  1.00D-12  ONEINT  =  1.00D-16  TWOINT  =  1.00D-16  PREFAC  =  1.00D-14  LOCALI  =  1.00D-09  EORDER  =  1.00D-04
 ENERGY  =  1.00D-12  ETEST   =  0.00D+00  EDENS   =  0.00D+00  THRDEDEF=  1.00D-06  GRADIENT=  1.00D-02  STEP    =  1.00D-03
 ORBITAL =  1.00D-10  CIVEC   =  1.00D-05  COEFF   =  1.00D-04  PRINTCI =  5.00D-02  PUNCHCI =  9.90D+01  OPTGRAD =  1.00D-06
 OPTENERG=  1.00D-06  OPTSTEP =  3.00D-04  THRGRAD =  1.00D-10  COMPRESS=  1.00D-13  VARMIN  =  1.00D-07  VARMAX  =  1.00D-03
 THRDOUB =  0.00D+00  THRDIV  =  1.00D-05  THRRED  =  1.00D-07  THRPSP  =  1.00D+00  THRDC   =  1.00D-10  THRCS   =  1.00D-10
 THRNRM  =  1.00D-08  THREQ   =  0.00D+00  THRDE   =  1.00D+00  THRREF  =  1.00D-05  SPARFAC =  1.00D+00  THRDLP  =  1.00D-07
 THRDIA  =  1.00D-10  THRDLS  =  1.00D-07  THRGPS  =  0.00D+00  THRKEX  =  0.00D+00  THRDIS  =  2.00D-01  THRVAR  =  1.00D-10
 THRLOC  =  1.00D-06  THRGAP  =  1.00D-06  THRLOCT = -1.00D+00  THRGAPT = -1.00D+00  THRORB  =  1.00D-06  THRMLTP =  0.00D+00
 THRCPQCI=  1.00D-10  KEXTA   =  0.00D+00  THRCOARS=  0.00D+00  SYMTOL  =  1.00D-06  GRADTOL =  1.00D-06  THROVL  =  1.00D-08
 THRORTH =  1.00D-08  GRID    =  1.00D-06  GRIDMAX =  1.00D-03  DTMAX   =  0.00D+00

 SETTING GEOMTYP        =    XYZ
 ZUNIT=BOHR
 

 Variable memory set to 1000000000 words,  buffer space   230000 words

 SETTING BASIS          =    AVDZ


 Recomputing integrals since basis changed


 Using spherical harmonics

 Library entry C      S aug-cc-pVDZ          selected for orbital group  1
 Library entry C      P aug-cc-pVDZ          selected for orbital group  1
 Library entry C      D aug-cc-pVDZ          selected for orbital group  1
 Library entry O      S aug-cc-pVDZ          selected for orbital group  2
 Library entry O      P aug-cc-pVDZ          selected for orbital group  2
 Library entry O      D aug-cc-pVDZ          selected for orbital group  2
 Library entry N      S aug-cc-pVDZ          selected for orbital group  3
 Library entry N      P aug-cc-pVDZ          selected for orbital group  3
 Library entry N      D aug-cc-pVDZ          selected for orbital group  3
 Library entry H      S aug-cc-pVDZ          selected for orbital group  4
 Library entry H      P aug-cc-pVDZ          selected for orbital group  4

1PROGRAM * SEWARD (Integral evaluation for generally contracted gaussian basis sets)     Author: Roland Lindh, 1990

 Geometry written to block  1 of record 700


 Point group  C1  



 ATOMIC COORDINATES

 NR  ATOM    CHARGE       X              Y              Z

   1  C       6.00   -3.824648021    0.087524043   -0.000274480
   2  O       8.00   -2.731511546    2.143000255    0.003572915
   3  N       7.00   -2.682277714   -2.180364879    0.001148063
   4  H       1.00   -3.740807337   -3.760452525   -0.000163031
   5  H       1.00   -0.752298466   -2.303948517    0.002167200
   6  H       1.00   -5.897892330   -0.019458360   -0.006451272
   7  C       6.00    3.826943595   -0.085159068   -0.000275519
   8  O       8.00    2.728919244   -2.134904197    0.003576302
   9  N       7.00    2.680443631    2.178512524    0.001147395
  10  H       1.00    3.737358126    3.751648201   -0.000160041
  11  H       1.00    0.749065388    2.306197018    0.002166083
  12  H       1.00    5.906705431    0.017405505   -0.006453614

 Bond lengths in Bohr (Angstrom)

 1-2  2.328077450  1-3  2.539356632  1-6  2.076011886  3-4  1.901884237  3-5  1.933932225
     ( 1.231965527)     ( 1.343769655)     ( 1.098578176)     ( 1.006433792)     ( 1.023392857)

  7- 8  2.325323075   7- 9  2.537454092   7-12  2.082298479   9-10  1.895211285   9-11  1.935594556
       ( 1.230507975)       ( 1.342762875)       ( 1.101904897)       ( 1.002902619)       ( 1.024272525)

 Bond angles

  1-3-4  119.44601369   1-3-5  120.39896000   2-1-3  125.25999040   2-1-6  120.95884354

  3- 1- 6  113.78115754   4- 3- 5  120.15500935   7- 9-10  119.24348684   7- 9-11  120.64357445

  8- 7- 9  124.96123060   8- 7-12  121.00084500   9- 7-12  114.03791584  10- 9-11  120.11292179

 NUCLEAR CHARGE:                   48
 NUMBER OF PRIMITIVE AOS:         288
 NUMBER OF SYMMETRY AOS:          276
 NUMBER OF CONTRACTIONS:          192   ( 192A   )
 NUMBER OF CORE ORBITALS:           6   (   6A   )
 NUMBER OF VALENCE ORBITALS:       30   (  30A   )


 NUCLEAR REPULSION ENERGY  230.50416189


 Eigenvalues of metric

         1 0.232E-03 0.270E-03 0.524E-03 0.528E-03 0.565E-03 0.702E-03 0.713E-03 0.715E-03


 Contracted 2-electron integrals neglected if value below      1.0D-16
 AO integral compression algorithm  1   Integral accuracy      1.0D-16

     1270.350 MB (compressed) written to integral file ( 82.6%)

     Node minimum: 1270.350 MB, node maximum: 1270.350 MB


 NUMBER OF SORTED TWO-ELECTRON INTEGRALS:  171652656.     BUFFER LENGTH:  32768
 NUMBER OF SEGMENTS:  11  SEGMENT LENGTH:   15999503      RECORD LENGTH: 524288

 Memory used in sort:      16.56 MW

 SORT1 READ   192171061. AND WROTE   169308441. INTEGRALS IN    491 RECORDS. CPU TIME:     1.91 SEC, REAL TIME:     3.04 SEC
 SORT2 READ   169308441. AND WROTE   171652656. INTEGRALS IN   4846 RECORDS. CPU TIME:     1.30 SEC, REAL TIME:     1.91 SEC

 FILE SIZES:   FILE 1:  1156.3 MBYTE,  FILE 4:  2059.4 MBYTE,   TOTAL:   3215.7 MBYTE

 OPERATOR DM      FOR CENTER  0  COORDINATES:    0.000000    0.000000    0.000000


 **********************************************************************************************************************************
 DATASETS  * FILE   NREC   LENGTH (MB)   RECORD NAMES
              1      19     1156.74       500      610      700      900      950      970     1000      129      960     1100   
                                          VAR    BASINP    GEOM    SYMINP    ZMAT    AOBASIS   BASIS     P2S    ABASIS      S 
                                         1400     1410     1200     1210     1080     1600     1650     1300     1700   
                                           T        V       H0       H01     AOSYM     SMH    MOLCAS    ERIS     OPER   

 PROGRAMS   *        TOTAL       INT
 CPU TIMES  *        10.30     10.26
 REAL TIME  *        12.90 SEC
 DISK USED  *         4.49 GB      
 GA USED    *         0.00 MB       (max)       0.00 MB       (current)
 **********************************************************************************************************************************

1PROGRAM * RHF-SCF (CLOSED SHELL)       Authors: W. Meyer, H.-J. Werner


 NUMBER OF ELECTRONS:      24+   24-    SPACE SYMMETRY=1    SPIN SYMMETRY: Singlet 
 CONVERGENCE THRESHOLDS:    1.00E-10 (Density)    1.00E-13 (Energy)
 MAX. NUMBER OF ITERATIONS:      200
 INTERPOLATION TYPE:            DIIS
 INTERPOLATION STEPS:              2 (START)      1 (STEP)
 LEVEL SHIFTS:                  0.00 (CLOSED)  0.00 (OPEN) 



 Orbital guess generated from atomic densities. Full valence occupancy:   36

 Molecular orbital dump at record        2100.2

 ITERATION    DDIFF          GRAD             ENERGY        2-EL.EN.            DIPOLE MOMENTS         DIIS
    1      0.000D+00      0.000D+00      -337.80605279    704.692249    0.00171   -0.01244   -0.00679    0
    2      0.000D+00      0.563D-02      -337.88348124    699.080367   -0.00233   -0.00528   -0.00312    1
    3      0.107D-01      0.410D-02      -337.94122379    701.818545   -0.00064   -0.00764   -0.00477    2
    4      0.434D-02      0.542D-03      -337.94343471    701.723073   -0.00033   -0.00656   -0.00479    3
    5      0.103D-02      0.187D-03      -337.94370276    701.656245   -0.00046   -0.00688   -0.00477    4
    6      0.353D-03      0.613D-04      -337.94376399    701.681775   -0.00035   -0.00657   -0.00478    5
    7      0.156D-03      0.271D-04      -337.94377499    701.672938   -0.00039   -0.00675   -0.00478    6
    8      0.741D-04      0.808D-05      -337.94377594    701.678409   -0.00033   -0.00654   -0.00477    7
    9      0.233D-04      0.254D-05      -337.94377601    701.676124   -0.00038   -0.00674   -0.00477    8
   10      0.608D-05      0.981D-06      -337.94377603    701.676369   -0.00035   -0.00660   -0.00477    7
   11      0.265D-05      0.405D-06      -337.94377603    701.676516   -0.00037   -0.00667   -0.00477    8
   12      0.651D-06      0.126D-06      -337.94377603    701.676462   -0.00036   -0.00666   -0.00477    9
   13      0.312D-06      0.184D-07      -337.94377603    701.676461   -0.00036   -0.00666   -0.00477    8
   14      0.489D-07      0.679D-08      -337.94377603    701.676465   -0.00036   -0.00666   -0.00477    7
   15      0.191D-07      0.256D-08      -337.94377603    701.676464   -0.00036   -0.00666   -0.00477    8
   16      0.573D-08      0.437D-09      -337.94377603    701.676464   -0.00036   -0.00666   -0.00477    8
   17      0.910D-09      0.167D-09      -337.94377603    701.676464   -0.00036   -0.00666   -0.00477    7
   18      0.304D-09      0.426D-10      -337.94377603    701.676464   -0.00036   -0.00666   -0.00477    7
   19      0.956D-10      0.151D-10      -337.94377603    701.676464   -0.00036   -0.00666   -0.00477    7
   20      0.244D-10      0.656D-11      -337.94377603    701.676464   -0.00036   -0.00666   -0.00477    8
   21      0.110D-10      0.250D-11      -337.94377603    701.676464   -0.00036   -0.00666   -0.00477    8
   22      0.569D-11      0.120D-11      -337.94377603    701.676464   -0.00036   -0.00666   -0.00477    8
   23      0.460D-11      0.345D-12      -337.94377603    701.676464   -0.00036   -0.00666   -0.00477    8
   24      0.351D-11      0.179D-12      -337.94377603    701.676464   -0.00036   -0.00666   -0.00477    9
   25      0.344D-11      0.103D-12      -337.94377603    701.676464   -0.00036   -0.00666   -0.00477    9
   26      0.189D-11      0.105D-12      -337.94377603    701.676464   -0.00036   -0.00666   -0.00477    9
   27      0.122D-11      0.964D-13      -337.94377603    701.676464   -0.00036   -0.00666   -0.00477    9
   28      0.102D-11      0.949D-13      -337.94377603    701.676464   -0.00036   -0.00666   -0.00477    9
   29      0.658D-12      0.782D-13      -337.94377603    701.676464   -0.00036   -0.00666   -0.00477    9
   30      0.568D-12      0.774D-13      -337.94377603    701.676464   -0.00036   -0.00666   -0.00477    9
   31      0.545D-12      0.895D-13      -337.94377603    701.676464   -0.00036   -0.00666   -0.00477    9
   32      0.469D-12      0.954D-13      -337.94377603    701.676464   -0.00036   -0.00666   -0.00477    0

 Final occupancy:  24

 !RHF STATE 1.1 Energy               -337.943776026374
 Nuclear energy                       230.50416189
 One-electron energy                 -919.28616987
 Two-electron energy                  350.83823196
 Virial quotient                       -1.00173025
 !RHF STATE 1.1 Dipole moment          -0.00036375    -0.00665855    -0.00477455
 Dipole moment /Debye                  -0.00092451    -0.01692323    -0.01213489

 Orbital energies:

         1.1          2.1          3.1          4.1          5.1          6.1          7.1          8.1          9.1         10.1
    -20.541342   -20.540946   -15.589295   -15.588598   -11.367795   -11.367634    -1.389371    -1.384562    -1.218529    -1.212327

        11.1         12.1         13.1         14.1         15.1         16.1         17.1         18.1         19.1         20.1
     -0.860905    -0.835710    -0.749942    -0.740925    -0.705916    -0.645099    -0.619298    -0.593722    -0.573725    -0.565654

        21.1         22.1         23.1         24.1         25.1         26.1
     -0.454437    -0.429029    -0.420340    -0.409753     0.033383     0.036358


 **********************************************************************************************************************************
 DATASETS  * FILE   NREC   LENGTH (MB)   RECORD NAMES
              1      19     1156.74       500      610      700      900      950      970     1000      129      960     1100   
                                          VAR    BASINP    GEOM    SYMINP    ZMAT    AOBASIS   BASIS     P2S    ABASIS      S 
                                         1400     1410     1200     1210     1080     1600     1650     1300     1700   
                                           T        V       H0       H01     AOSYM     SMH    MOLCAS    ERIS     OPER   

              2       3        1.21       700     1000     2100   
                                         GEOM     BASIS     RHF  

 PROGRAMS   *        TOTAL       RHF       INT
 CPU TIMES  *        58.86     48.55     10.26
 REAL TIME  *        65.37 SEC
 DISK USED  *         4.49 GB      
 GA USED    *         0.00 MB       (max)       0.00 MB       (current)
 **********************************************************************************************************************************


1PROGRAM * CCSD (Closed-shell coupled cluster)     Authors: C. Hampel, H.-J. Werner, 1991, M. Deegan, P.J. Knowles, 1992


 Convergence thresholds:  THRVAR = 1.00D-08  THRDEN = 1.00D-12

 CCSD(T)     terms to be evaluated (factor= 1.000)


 Number of core orbitals:           6 (   6 )
 Number of closed-shell orbitals:  18 (  18 )
 Number of external orbitals:     168 ( 168 )

 Molecular orbitals read from record     2100.2  Type=RHF/CANONICAL (state 1.1)

 Number of N-1 electron functions:              18
 Number of N-2 electron functions:             171
 Number of singly external CSFs:              3024
 Number of doubly external CSFs:           4573800
 Total number of CSFs:                     4576825

 Length of J-op  integral file:               0.00 MB
 Length of K-op  integral file:               2.58 MB
 Length of 3-ext integral record:             0.00 MB

 Memory could be reduced to 108.88 Mwords without degradation in triples

 Integral transformation finished. Total CPU:   9.95 sec, npass=  1  Memory used:  78.69 MW

 Reference energy:                   -337.94377603

 MP2 singlet pair energy:              -0.62275627
 MP2 triplet pair energy:              -0.40616866
 MP2 correlation energy:               -1.02892493
 MP2 total energy:                   -338.97270096

 SCS-MP2 correlation energy:           -1.00003469   (PS=  1.200000  PT=  0.333333)
 SCS-MP2 total energy:               -338.94381071

 ITER.      SQ.NORM     CORR.ENERGY   TOTAL ENERGY   ENERGY CHANGE        DEN1      VAR(S)    VAR(P)  DIIS     TIME
   1      1.31936142    -1.05744657  -339.00122259    -0.02852164     0.00279231  0.10D-01  0.60D-02  1  1    35.61
   2      1.34487590    -1.05932998  -339.00310600    -0.00188341    -0.02595805  0.22D-03  0.11D-02  2  2    61.59
   3      1.35751923    -1.06022305  -339.00399908    -0.00089307    -0.00556693  0.22D-03  0.52D-04  3  3    87.59
   4      1.36273356    -1.05995867  -339.00373470     0.00026438    -0.00169519  0.22D-04  0.96D-05  4  4   113.59
   5      1.36488338    -1.05990125  -339.00367728     0.00005742    -0.00044971  0.27D-05  0.12D-05  5  5   139.61
   6      1.36540504    -1.05987260  -339.00364862     0.00002865    -0.00004975  0.27D-06  0.19D-06  6  6   165.66
   7      1.36553244    -1.05986028  -339.00363631     0.00001231    -0.00000196  0.35D-07  0.23D-07  6  1   191.69
   8      1.36556970    -1.05985909  -339.00363512     0.00000119    -0.00000699  0.75D-08  0.33D-08  6  2   217.75
   9      1.36557121    -1.05985926  -339.00363529    -0.00000017     0.00000266  0.13D-08  0.49D-09  6  3   243.80
  10      1.36557597    -1.05985872  -339.00363474     0.00000054    -0.00000110  0.32D-09  0.68D-10  6  4   269.86
  11      1.36557573    -1.05985897  -339.00363500    -0.00000025     0.00000046  0.58D-10  0.13D-10  6  5   295.93
  12      1.36557573    -1.05985894  -339.00363497     0.00000003     0.00000002  0.44D-11  0.35D-11  6  6   321.98
  13      1.36557545    -1.05985899  -339.00363501    -0.00000004     0.00000012  0.11D-11  0.38D-12  6  1   348.05
  14      1.36557536    -1.05985900  -339.00363502    -0.00000001     0.00000004  0.86D-13  0.73D-13  6  2   374.11
  15      1.36557533    -1.05985900  -339.00363502     0.00000000     0.00000001  0.21D-13  0.11D-13  6  3   400.18
  16      1.36557533    -1.05985900  -339.00363502    -0.00000000     0.00000000  0.45D-14  0.20D-14  6  4   426.24
  17      1.36557533    -1.05985900  -339.00363502     0.00000000    -0.00000000  0.74D-15  0.40D-15  6  5   452.28
  18      1.36557533    -1.05985900  -339.00363502     0.00000000    -0.00000000  0.23D-15  0.71D-16  6  6   478.33
  19      1.36557534    -1.05985900  -339.00363502    -0.00000000    -0.00000000  0.41D-16  0.17D-16  6  1   504.38
  20      1.36557534    -1.05985900  -339.00363502     0.00000000    -0.00000000  0.11D-16  0.44D-17  6  2   530.42
  21      1.36557534    -1.05985900  -339.00363502    -0.00000000     0.00000000  0.28D-17  0.94D-18  6  3   556.43
  22      1.36557534    -1.05985900  -339.00363502    -0.00000000     0.00000000  0.49D-18  0.24D-18  6  4   582.50
  23      1.36557534    -1.05985900  -339.00363502     0.00000000     0.00000000  0.18D-18  0.53D-19  6  1   608.54
  24      1.36557534    -1.05985900  -339.00363502    -0.00000000     0.00000000  0.39D-19  0.89D-20  6  5   634.58
  25      1.36557534    -1.05985900  -339.00363502    -0.00000000    -0.00000000  0.11D-19  0.30D-20  6  6   660.64
  26      1.36557534    -1.05985900  -339.00363502     0.00000000    -0.00000000  0.26D-20  0.97D-21  6  3   686.69

 Norm of t1 vector:      0.14831542      S-energy:     0.00000000      T1 diagnostic:  0.01747914
                                                                       D1 diagnostic:  0.05908608


 Total CPU time for triples:    492.87 sec


 RESULTS
 =======

  Reference energy                   -337.943776026373
  CCSD singlet pair energy             -0.699685165546
  CCSD triplet pair energy             -0.360173829909
  CCSD correlation energy              -1.059858995455

  Triples (T) contribution             -0.039945295142
  Total correlation energy             -1.099804290596

  CCSD total energy                  -339.003635021828
  CCSD[T] energy                     -339.046804058965
  CCSD-T energy                      -339.042456897645
 !CCSD(T) total energy               -339.043580316969

 Timing summary (sec):

 STEP                 CPU(USER)    SYS     CPU(TOT)    WALL
 Transformation         10.24      0.61     10.85     10.85
 CCSD iterations       676.46      9.64    686.10    686.22
 Triples               492.87      7.81    500.68    500.71

 Program statistics:

 Available memory in ccsd:               999998604
 Min. memory needed in ccsd:              11370604
 Max. memory used in ccsd:                15561652
 Max. memory used in cckext:              13129806 (26 integral passes)



 **********************************************************************************************************************************
 DATASETS  * FILE   NREC   LENGTH (MB)   RECORD NAMES
              1      20     1576.80       500      610      700      900      950      970     1000      129      960     1100   
                                          VAR    BASINP    GEOM    SYMINP    ZMAT    AOBASIS   BASIS     P2S    ABASIS      S 
                                         1400     1410     1200     1210     1080     1600     1650     1300     1700     1380   
                                           T        V       H0       H01     AOSYM     SMH    MOLCAS    ERIS     OPER     JKOP   

              2       3        1.21       700     1000     2100   
                                         GEOM     BASIS     RHF  

 PROGRAMS   *        TOTAL   CCSD(T)       RHF       INT
 CPU TIMES  *      1238.44   1179.58     48.55     10.26
 REAL TIME  *      1263.26 SEC
 DISK USED  *         4.49 GB      
 GA USED    *         0.00 MB       (max)       0.00 MB       (current)
 **********************************************************************************************************************************

        CCSD(T)         RHF-SCF 
   -339.04358032   -337.94377603
 **********************************************************************************************************************************
 Variable memory released
