
 Primary working directories    : /tmp/943419.546.gen6.q
 Secondary working directories  : /tmp/943419.546.gen6.q
 Wavefunction directory         : /home/vulcan/mel64643/wfu/
 Main file repository           : /tmp/943419.546.gen6.q/

 ARCHNAME  : Linux/x86_64
 FC        : /opt/intel/compilers_and_libraries_2016.1.150/linux/bin/intel64/ifort
 FCVERSION : 16.0.1
 BLASLIB   : -mkl
 id        : ccgc

 Nodes     nprocs
 n088         1
 ga_uses_ma=false, calling ma_init with nominal heap.
 GA-space will be limited to   8.0 MW (determined by -G option)

 Using customized tuning parameters: mindgm=10; mindgv=16; mindgc=4; mindgr=1; noblas=0; mincuda=1000; minvec=7
 default implementation of scratch files=df  

 ***,Optimization of nh3_nitrosmethane
 memory,1000,m
 gthresh,energy=1.0d-12,orbital=1.0d-10,oneint=1.0d-16,twoint=1.0d-16,optgrad=1.0d-6,compress=1.0d-13
 geomtyp=xyz
 
 bohr
 geometry = {
  N   -5.2300379497   -0.1859657838    0.0000000000
  H   -6.3008300481    0.2381950561   -1.5342842099
  H   -3.7552759366    1.0447390606   -0.0000000000
  H   -6.3008300481    0.2381950561    1.5342842099
  H   -0.9227901707   -2.4021640486   -0.0000000000
  H    1.8854784407   -3.4332795618   -1.6666900882
  H    1.8854784407   -3.4332795618    1.6666900882
  C    1.1378085191   -2.4699330916   -0.0000000000
  N    2.2653737707    0.0991642094   -0.0000000000
  O    0.6997434719    1.7813856745   -0.0000000000
 }
 
 basis=aug-cc-pvtz
 {rhf;maxit,200}
 {mp2}

 Variables initialized (661), CPU time= 0.00 sec
 Commands  initialized (458), CPU time= 0.01 sec, 486 directives.
 Default parameters read. Elapsed time= 0.04 sec

 Checking input...
 Passed
1


                                         ***  PROGRAM SYSTEM MOLPRO  ***
                         Copyright, University College Cardiff Consultants Limited, 2008

                                    Version 2010.1 linked May 16 2016 07:17:05


 **********************************************************************************************************************************
 LABEL *   Optimization of nh3_nitrosmethane                                             
 Linux-4.4.3/n088(x86_64) 64 bit mpp version                                             DATE: 26-Oct-23          TIME: 04:19:49  
 **********************************************************************************************************************************

 SHA1:             9e8077add272b0f3cad6f7df79ec5211205f459d
 **********************************************************************************************************************************

 THRESHOLDS:

 ZERO    =  1.00D-12  ONEINT  =  1.00D-16  TWOINT  =  1.00D-16  PREFAC  =  1.00D-14  LOCALI  =  1.00D-09  EORDER  =  1.00D-04
 ENERGY  =  1.00D-12  ETEST   =  0.00D+00  EDENS   =  0.00D+00  THRDEDEF=  1.00D-06  GRADIENT=  1.00D-02  STEP    =  1.00D-03
 ORBITAL =  1.00D-10  CIVEC   =  1.00D-05  COEFF   =  1.00D-04  PRINTCI =  5.00D-02  PUNCHCI =  9.90D+01  OPTGRAD =  1.00D-06
 OPTENERG=  1.00D-06  OPTSTEP =  3.00D-04  THRGRAD =  1.00D-10  COMPRESS=  1.00D-13  VARMIN  =  1.00D-07  VARMAX  =  1.00D-03
 THRDOUB =  0.00D+00  THRDIV  =  1.00D-05  THRRED  =  1.00D-07  THRPSP  =  1.00D+00  THRDC   =  1.00D-10  THRCS   =  1.00D-10
 THRNRM  =  1.00D-08  THREQ   =  0.00D+00  THRDE   =  1.00D+00  THRREF  =  1.00D-05  SPARFAC =  1.00D+00  THRDLP  =  1.00D-07
 THRDIA  =  1.00D-10  THRDLS  =  1.00D-07  THRGPS  =  0.00D+00  THRKEX  =  0.00D+00  THRDIS  =  2.00D-01  THRVAR  =  1.00D-10
 THRLOC  =  1.00D-06  THRGAP  =  1.00D-06  THRLOCT = -1.00D+00  THRGAPT = -1.00D+00  THRORB  =  1.00D-06  THRMLTP =  0.00D+00
 THRCPQCI=  1.00D-10  KEXTA   =  0.00D+00  THRCOARS=  0.00D+00  SYMTOL  =  1.00D-06  GRADTOL =  1.00D-06  THROVL  =  1.00D-08
 THRORTH =  1.00D-08  GRID    =  1.00D-06  GRIDMAX =  1.00D-03  DTMAX   =  0.00D+00

 SETTING GEOMTYP        =    XYZ
 ZUNIT=BOHR
 

 Variable memory set to 1000000000 words,  buffer space   230000 words

 SETTING BASIS          =    AUG-CC-PVTZ


 Recomputing integrals since basis changed


 Using spherical harmonics

 Library entry N      S aug-cc-pVTZ          selected for orbital group  1
 Library entry N      P aug-cc-pVTZ          selected for orbital group  1
 Library entry N      D aug-cc-pVTZ          selected for orbital group  1
 Library entry N      F aug-cc-pVTZ          selected for orbital group  1
 Library entry H      S aug-cc-pVTZ          selected for orbital group  2
 Library entry H      P aug-cc-pVTZ          selected for orbital group  2
 Library entry H      D aug-cc-pVTZ          selected for orbital group  2
 Library entry C      S aug-cc-pVTZ          selected for orbital group  3
 Library entry C      P aug-cc-pVTZ          selected for orbital group  3
 Library entry C      D aug-cc-pVTZ          selected for orbital group  3
 Library entry C      F aug-cc-pVTZ          selected for orbital group  3
 Library entry O      S aug-cc-pVTZ          selected for orbital group  5
 Library entry O      P aug-cc-pVTZ          selected for orbital group  5
 Library entry O      D aug-cc-pVTZ          selected for orbital group  5
 Library entry O      F aug-cc-pVTZ          selected for orbital group  5

1PROGRAM * SEWARD (Integral evaluation for generally contracted gaussian basis sets)     Author: Roland Lindh, 1990

 Geometry written to block  1 of record 700


 Point group  Cs  



 ATOMIC COORDINATES

 NR  ATOM    CHARGE       X              Y              Z

   1  N       7.00   -5.230037950   -0.185965784    0.000000000
   2  H       1.00   -6.300830048    0.238195056   -1.534284210
   3  H       1.00   -6.300830048    0.238195056    1.534284210
   4  H       1.00   -3.755275937    1.044739061    0.000000000
   5  H       1.00   -0.922790171   -2.402164049    0.000000000
   6  H       1.00    1.885478441   -3.433279562   -1.666690088
   7  H       1.00    1.885478441   -3.433279562    1.666690088
   8  C       6.00    1.137808519   -2.469933092    0.000000000
   9  N       7.00    2.265373771    0.099164209    0.000000000
  10  O       8.00    0.699743472    1.781385675    0.000000000

 Bond lengths in Bohr (Angstrom)

 1-2  1.918472354  1-3  1.918472354  1-4  1.920822066  5-8  2.061712784  6-8  2.065164057
     ( 1.015211846)     ( 1.015211846)     ( 1.016455260)     ( 1.091011417)     ( 1.092837752)

  7- 8  2.065164057   8- 9  2.805648648   9-10  2.298057286
       ( 1.092837752)       ( 1.484685321)       ( 1.216079541)

 Bond angles

  2-1-3  106.21107306   2-1-4  106.67095419   3-1-4  106.67095419   5-8-6  112.15889793

  5-8-7  112.15889793   5-8-9  111.81278760   6-8-7  107.61735037   6-8-9  106.35838667

  7- 8- 9  106.35838667   8- 9-10  113.35946296

 NUCLEAR CHARGE:                   34
 NUMBER OF PRIMITIVE AOS:         430
 NUMBER OF SYMMETRY AOS:          382
 NUMBER OF CONTRACTIONS:          322   ( 198A'  + 124A"  )
 NUMBER OF CORE ORBITALS:           4   (   4A'  +   0A"  )
 NUMBER OF VALENCE ORBITALS:       22   (  16A'  +   6A"  )


 NUCLEAR REPULSION ENERGY  117.37190840


 Eigenvalues of metric

         1 0.333E-04 0.530E-04 0.105E-03 0.118E-03 0.169E-03 0.233E-03 0.376E-03 0.566E-03
         2 0.821E-04 0.238E-03 0.687E-03 0.122E-02 0.166E-02 0.193E-02 0.238E-02 0.342E-02


 Contracted 2-electron integrals neglected if value below      1.0D-16
 AO integral compression algorithm  1   Integral accuracy      1.0D-16

     5128.323 MB (compressed) written to integral file ( 83.3%)

     Node minimum: 5128.323 MB, node maximum: 5128.323 MB


 NUMBER OF SORTED TWO-ELECTRON INTEGRALS:  682157926.     BUFFER LENGTH:  32768
 NUMBER OF SEGMENTS:  22  SEGMENT LENGTH:   31998651      RECORD LENGTH: 524288

 Memory used in sort:      32.56 MW

 SORT1 READ   769999854. AND WROTE   652020218. INTEGRALS IN   1875 RECORDS. CPU TIME:     8.06 SEC, REAL TIME:    11.58 SEC
 SORT2 READ   652020218. AND WROTE   682157926. INTEGRALS IN  19563 RECORDS. CPU TIME:     6.15 SEC, REAL TIME:     8.68 SEC

 FILE SIZES:   FILE 1:  4780.3 MBYTE,  FILE 4:  7864.4 MBYTE,   TOTAL:  12644.6 MBYTE

 OPERATOR DM      FOR CENTER  0  COORDINATES:    0.000000    0.000000    0.000000


 **********************************************************************************************************************************
 DATASETS  * FILE   NREC   LENGTH (MB)   RECORD NAMES
              1      19     4780.92       500      610      700      900      950      970     1000      129      960     1100   
                                          VAR    BASINP    GEOM    SYMINP    ZMAT    AOBASIS   BASIS     P2S    ABASIS      S 
                                         1400     1410     1200     1210     1080     1600     1650     1300     1700   
                                           T        V       H0       H01     AOSYM     SMH    MOLCAS    ERIS     OPER   

 PROGRAMS   *        TOTAL       INT
 CPU TIMES  *        36.07     36.03
 REAL TIME  *        45.30 SEC
 DISK USED  *        17.77 GB      
 GA USED    *         0.00 MB       (max)       0.00 MB       (current)
 **********************************************************************************************************************************

1PROGRAM * RHF-SCF (CLOSED SHELL)       Authors: W. Meyer, H.-J. Werner


 NUMBER OF ELECTRONS:      17+   17-
 CONVERGENCE THRESHOLDS:    1.00E-10 (Density)    1.00E-13 (Energy)
 MAX. NUMBER OF ITERATIONS:      200
 INTERPOLATION TYPE:            DIIS
 INTERPOLATION STEPS:              2 (START)      1 (STEP)
 LEVEL SHIFTS:                  0.00 (CLOSED)  0.00 (OPEN) 



 Orbital guess generated from atomic densities. Full valence occupancy:   20   6

 Molecular orbital dump at record        2100.2

 Initial alpha occupancy:  14   3
 Initial beta  occupancy:  14   3
 Wave function symmetry:    1

 ITERATION    DDIFF          GRAD             ENERGY        2-EL.EN.            DIPOLE MOMENTS         DIIS
    1      0.000D+00      0.000D+00      -225.01765493    393.450661    0.08274   -0.60495    0.00000    0
    2      0.000D+00      0.384D-02      -225.07808092    392.881334   -0.56892   -0.38086    0.00000    1
    3      0.672D-02      0.277D-02      -225.11361336    393.485859   -0.22398   -0.55975    0.00000    2
    4      0.282D-02      0.536D-03      -225.11587335    393.342853   -0.30001   -0.46196    0.00000    3
    5      0.765D-03      0.218D-03      -225.11631388    393.352032   -0.29689   -0.49035    0.00000    4
    6      0.322D-03      0.535D-04      -225.11636172    393.377352   -0.30278   -0.48663    0.00000    5
    7      0.115D-03      0.204D-04      -225.11636864    393.361636   -0.30463   -0.48662    0.00000    6
    8      0.470D-04      0.832D-05      -225.11636976    393.368346   -0.30569   -0.48649    0.00000    7
    9      0.183D-04      0.368D-05      -225.11637002    393.366868   -0.30602   -0.48617    0.00000    8
   10      0.101D-04      0.113D-05      -225.11637005    393.366570   -0.30613   -0.48596    0.00000    8
   11      0.331D-05      0.371D-06      -225.11637005    393.366690   -0.30615   -0.48586    0.00000    8
   12      0.103D-05      0.120D-06      -225.11637005    393.366641   -0.30615   -0.48583    0.00000    8
   13      0.404D-06      0.410D-07      -225.11637005    393.366635   -0.30615   -0.48583    0.00000    8
   14      0.101D-06      0.197D-07      -225.11637005    393.366637   -0.30615   -0.48583    0.00000    9
   15      0.435D-07      0.202D-08      -225.11637005    393.366637   -0.30615   -0.48583    0.00000    8
   16      0.519D-08      0.528D-09      -225.11637005    393.366637   -0.30615   -0.48583    0.00000    7
   17      0.130D-08      0.190D-09      -225.11637005    393.366637   -0.30615   -0.48583    0.00000    7
   18      0.430D-09      0.502D-10      -225.11637005    393.366637   -0.30615   -0.48583    0.00000    7
   19      0.111D-09      0.106D-10      -225.11637005    393.366637   -0.30615   -0.48583    0.00000    7
   20      0.323D-10      0.351D-11      -225.11637005    393.366637   -0.30615   -0.48583    0.00000    6
   21      0.230D-10      0.132D-11      -225.11637005    393.366637   -0.30615   -0.48583    0.00000    7
   22      0.189D-10      0.682D-12      -225.11637005    393.366637   -0.30615   -0.48583    0.00000    8
   23      0.142D-10      0.286D-12      -225.11637005    393.366637   -0.30615   -0.48583    0.00000    8
   24      0.132D-10      0.192D-12      -225.11637005    393.366637   -0.30615   -0.48583    0.00000    9
   25      0.658D-11      0.259D-12      -225.11637005    393.366637   -0.30615   -0.48583    0.00000    0

 Final occupancy:  14   3

 !RHF STATE 1.1 Energy               -225.116370051442
 Nuclear energy                       117.37190840
 One-electron energy                 -539.17159713
 Two-electron energy                  196.68331867
 Virial quotient                       -1.00202984
 !RHF STATE 1.1 Dipole moment          -0.30615167    -0.48582629     0.00000000
 Dipole moment /Debye                  -0.77810895    -1.23476638     0.00000000

 Orbital energies:

         1.1          2.1          3.1          4.1          5.1          6.1          7.1          8.1          9.1         10.1
    -20.631190   -15.706324   -15.538850   -11.264241    -1.509701    -1.138739    -1.074062    -0.861043    -0.691514    -0.675233

        11.1         12.1         13.1         14.1         15.1         16.1
     -0.623805    -0.556563    -0.429144    -0.406899     0.028806     0.038547

         1.2          2.2          3.2          4.2          5.2
     -0.636164    -0.624248    -0.534760     0.041935     0.056400


 **********************************************************************************************************************************
 DATASETS  * FILE   NREC   LENGTH (MB)   RECORD NAMES
              1      19     4780.92       500      610      700      900      950      970     1000      129      960     1100   
                                          VAR    BASINP    GEOM    SYMINP    ZMAT    AOBASIS   BASIS     P2S    ABASIS      S 
                                         1400     1410     1200     1210     1080     1600     1650     1300     1700   
                                           T        V       H0       H01     AOSYM     SMH    MOLCAS    ERIS     OPER   

              2       3        1.56       700     1000     2100   
                                         GEOM     BASIS     RHF  

 PROGRAMS   *        TOTAL       RHF       INT
 CPU TIMES  *       120.64     84.57     36.03
 REAL TIME  *       140.66 SEC
 DISK USED  *        17.77 GB      
 GA USED    *         0.00 MB       (max)       0.00 MB       (current)
 **********************************************************************************************************************************


1PROGRAM * MP2 (Closed-shell)     Authors: C. Hampel, H.-J. Werner, 1991, M. Deegan, P.J. Knowles, 1992


 Convergence thresholds:  THRVAR = 1.00D-08  THRDEN = 1.00D-12

 Number of core orbitals:           4 (   4   0 )
 Number of closed-shell orbitals:  13 (  10   3 )
 Number of external orbitals:     305 ( 184 121 )

 Molecular orbitals read from record     2100.2  Type=RHF/CANONICAL (state 1.1)

 Number of N-1 electron functions:              13
 Number of N-2 electron functions:              91
 Number of singly external CSFs:              2203
 Number of doubly external CSFs:           3980909
 Total number of CSFs:                     3983113

 Length of J-op  integral file:               0.00 MB
 Length of K-op  integral file:               3.80 MB

 Integral transformation finished. Total CPU:   6.15 sec, npass=  1  Memory used:   5.54 MW

 Memory needed for MP2:                      0.27 MW

 SCS-MP2 correlation energy:           -0.859101742080   (PS=  1.200000  PT=  0.333333)
 SCS-MP2 total energy:               -225.975471793524


  Reference energy                   -225.116370051443
  MP2 singlet pair energy              -0.557131314977
  MP2 triplet pair energy              -0.306231692316
  MP2 correlation energy               -0.863363007293

 !MP2 total energy                   -225.979733058736


 **********************************************************************************************************************************
 DATASETS  * FILE   NREC   LENGTH (MB)   RECORD NAMES
              1      20     4839.83       500      610      700      900      950      970     1000      129      960     1100   
                                          VAR    BASINP    GEOM    SYMINP    ZMAT    AOBASIS   BASIS     P2S    ABASIS      S 
                                         1400     1410     1200     1210     1080     1600     1650     1300     1700     1380   
                                           T        V       H0       H01     AOSYM     SMH    MOLCAS    ERIS     OPER     JKOP   

              2       3        1.56       700     1000     2100   
                                         GEOM     BASIS     RHF  

 PROGRAMS   *        TOTAL       MP2       RHF       INT
 CPU TIMES  *       126.97      6.33     84.57     36.03
 REAL TIME  *       147.55 SEC
 DISK USED  *        17.77 GB      
 GA USED    *         0.00 MB       (max)       0.00 MB       (current)
 **********************************************************************************************************************************

        MP2             RHF-SCF 
   -225.97973306   -225.11637005
 **********************************************************************************************************************************
 Variable memory released
