
 Primary working directories    : /tmp/1047041.473.gen4.q
 Secondary working directories  : /tmp/1047041.473.gen4.q
 Wavefunction directory         : /home/vulcan/mel64643/wfu/
 Main file repository           : /tmp/1047041.473.gen4.q/

 ARCHNAME  : Linux/x86_64
 FC        : /opt/intel/compilers_and_libraries_2016.1.150/linux/bin/intel64/ifort
 FCVERSION : 16.0.1
 BLASLIB   : -mkl
 id        : ccgc

 Nodes     nprocs
 n062         1
 ga_uses_ma=false, calling ma_init with nominal heap.
 GA-space will be limited to   8.0 MW (determined by -G option)

 Using customized tuning parameters: mindgm=10; mindgv=16; mindgc=4; mindgr=1; noblas=0; mincuda=1000; minvec=7
 default implementation of scratch files=df  

 ***,Optimization of ben_hcn
 memory,1000,m
 gthresh,energy=1.0d-12,orbital=1.0d-10,oneint=1.0d-16,twoint=1.0d-16,optgrad=1.0d-6,compress=1.0d-13
 geomtyp=xyz
 
 
 
 bohr
 geometry = {
  C   -1.8845620632    1.3694717219    2.2860978141
  C   -1.8574701226    2.6901907942   -0.0037697896
  C   -1.8748876308    1.3676079044   -2.2926403487
  C   -1.9193598087   -1.2754837917   -2.2915597000
  C   -1.9464380109   -2.5960201604   -0.0018226054
  C   -1.9290134456   -1.2736394396    2.2869560907
  H   -1.8651539584    2.3990848049    4.0515991890
  H   -1.8174466646    4.7336975618   -0.0003563635
  H   -1.8479090109    2.3921671631   -4.0609745006
  H   -1.9265252844   -2.3052976797   -4.0570047201
  H   -1.9741772820   -4.6396806635   -0.0052136228
  H   -1.9436266344   -2.2984390741    4.0552756765
  N    6.6241511782   -0.1990532881    0.0073710241
  C    4.4344474418   -0.0759553700    0.0101975308
  H    2.4147725435    0.0378730648    0.0129448394
 }
 
 basis=aug-cc-pvdz, H=cc-pvdz
 {rhf;maxit,200}
 {ccsd(t)}

 Variables initialized (661), CPU time= 0.01 sec
 Commands  initialized (458), CPU time= 0.00 sec, 486 directives.
 Default parameters read. Elapsed time= 0.04 sec

 Checking input...
 Passed
1


                                         ***  PROGRAM SYSTEM MOLPRO  ***
                         Copyright, University College Cardiff Consultants Limited, 2008

                                    Version 2010.1 linked May 16 2016 07:17:05


 **********************************************************************************************************************************
 LABEL *   Optimization of ben_hcn                                                       
 Linux-4.4.3/n062(x86_64) 64 bit mpp version                                             DATE: 07-Mar-24          TIME: 13:09:07  
 **********************************************************************************************************************************

 SHA1:             9e8077add272b0f3cad6f7df79ec5211205f459d
 **********************************************************************************************************************************

 THRESHOLDS:

 ZERO    =  1.00D-12  ONEINT  =  1.00D-16  TWOINT  =  1.00D-16  PREFAC  =  1.00D-14  LOCALI  =  1.00D-09  EORDER  =  1.00D-04
 ENERGY  =  1.00D-12  ETEST   =  0.00D+00  EDENS   =  0.00D+00  THRDEDEF=  1.00D-06  GRADIENT=  1.00D-02  STEP    =  1.00D-03
 ORBITAL =  1.00D-10  CIVEC   =  1.00D-05  COEFF   =  1.00D-04  PRINTCI =  5.00D-02  PUNCHCI =  9.90D+01  OPTGRAD =  1.00D-06
 OPTENERG=  1.00D-06  OPTSTEP =  3.00D-04  THRGRAD =  1.00D-10  COMPRESS=  1.00D-13  VARMIN  =  1.00D-07  VARMAX  =  1.00D-03
 THRDOUB =  0.00D+00  THRDIV  =  1.00D-05  THRRED  =  1.00D-07  THRPSP  =  1.00D+00  THRDC   =  1.00D-10  THRCS   =  1.00D-10
 THRNRM  =  1.00D-08  THREQ   =  0.00D+00  THRDE   =  1.00D+00  THRREF  =  1.00D-05  SPARFAC =  1.00D+00  THRDLP  =  1.00D-07
 THRDIA  =  1.00D-10  THRDLS  =  1.00D-07  THRGPS  =  0.00D+00  THRKEX  =  0.00D+00  THRDIS  =  2.00D-01  THRVAR  =  1.00D-10
 THRLOC  =  1.00D-06  THRGAP  =  1.00D-06  THRLOCT = -1.00D+00  THRGAPT = -1.00D+00  THRORB  =  1.00D-06  THRMLTP =  0.00D+00
 THRCPQCI=  1.00D-10  KEXTA   =  0.00D+00  THRCOARS=  0.00D+00  SYMTOL  =  1.00D-06  GRADTOL =  1.00D-06  THROVL  =  1.00D-08
 THRORTH =  1.00D-08  GRID    =  1.00D-06  GRIDMAX =  1.00D-03  DTMAX   =  0.00D+00

 SETTING GEOMTYP        =    XYZ
 ZUNIT=BOHR
 

 Variable memory set to 1000000000 words,  buffer space   230000 words

 SETTING BASIS          =    AUG-CC-PVDZ,H=CC-PVDZ


 Recomputing integrals since basis changed


 Using spherical harmonics

 Library entry C      S aug-cc-pVDZ          selected for orbital group  1
 Library entry C      P aug-cc-pVDZ          selected for orbital group  1
 Library entry C      D aug-cc-pVDZ          selected for orbital group  1
 Library entry H      S cc-pVDZ              selected for orbital group  2
 Library entry H      P cc-pVDZ              selected for orbital group  2
 Library entry N      S aug-cc-pVDZ          selected for orbital group  3
 Library entry N      P aug-cc-pVDZ          selected for orbital group  3
 Library entry N      D aug-cc-pVDZ          selected for orbital group  3

1PROGRAM * SEWARD (Integral evaluation for generally contracted gaussian basis sets)     Author: Roland Lindh, 1990

 Geometry written to block  1 of record 700


 Point group  C1  



 ATOMIC COORDINATES

 NR  ATOM    CHARGE       X              Y              Z

   1  C       6.00   -1.884562063    1.369471722    2.286097814
   2  C       6.00   -1.857470123    2.690190794   -0.003769790
   3  C       6.00   -1.874887631    1.367607904   -2.292640349
   4  C       6.00   -1.919359809   -1.275483792   -2.291559700
   5  C       6.00   -1.946438011   -2.596020160   -0.001822605
   6  C       6.00   -1.929013446   -1.273639440    2.286956091
   7  H       1.00   -1.865153958    2.399084805    4.051599189
   8  H       1.00   -1.817446665    4.733697562   -0.000356364
   9  H       1.00   -1.847909011    2.392167163   -4.060974501
  10  H       1.00   -1.926525284   -2.305297680   -4.057004720
  11  H       1.00   -1.974177282   -4.639680664   -0.005213623
  12  H       1.00   -1.943626634   -2.298439074    4.055275676
  13  N       7.00    6.624151178   -0.199053288    0.007371024
  14  C       6.00    4.434447442   -0.075955370    0.010197531
  15  H       1.00    2.414772543    0.037873065    0.012944839

 Bond lengths in Bohr (Angstrom)

 1-2  2.643582131  1-6  2.643485062  1-7  2.043887198  2-3  2.643569047  2-8  2.043901524
     ( 1.398923414)     ( 1.398872047)     ( 1.081578523)     ( 1.398916490)     ( 1.081586104)

  3- 4  2.643466031   3- 9  2.043882382   4- 5  2.643377667   4-10  2.043860100   5- 6  2.643388414
       ( 1.398861976)       ( 1.081575975)       ( 1.398815216)       ( 1.081564183)       ( 1.398820903)

  5-11  2.043851565   6-12  2.043864475  13-14  2.193162908  14-15  2.022881894
       ( 1.081559667)       ( 1.081566499)       ( 1.160571826)       ( 1.070462995)

 Bond angles

  1- 2- 3  119.99746549   1- 2- 8  119.88442586   1- 6- 5  120.00123549   1- 6-12  120.11473008

  2-1-6  119.99850417   2-1-7  119.76539130   2-3-4  119.99920943   2-3-9  119.88229398

  3- 2- 8  120.11785838   3- 4- 5  120.00130473   3- 4-10  120.23128876   4- 3- 9  120.11821110

  4- 5- 6  120.00228067   4- 5-11  119.88225174   5- 4-10  119.76708085   5- 6-12  119.88371619

  6- 1- 7  120.23583300   6- 5-11  120.11511602  13-14-15  179.99091354

 NUCLEAR CHARGE:                   56
 NUMBER OF PRIMITIVE AOS:         345
 NUMBER OF SYMMETRY AOS:          329
 NUMBER OF CONTRACTIONS:          219   ( 219A   )
 NUMBER OF CORE ORBITALS:           8   (   8A   )
 NUMBER OF VALENCE ORBITALS:       39   (  39A   )


 NUCLEAR REPULSION ENERGY  303.45729088


 Eigenvalues of metric

         1 0.864E-05 0.186E-04 0.229E-04 0.535E-04 0.627E-04 0.632E-04 0.928E-04 0.930E-04


 Contracted 2-electron integrals neglected if value below      1.0D-16
 AO integral compression algorithm  1   Integral accuracy      1.0D-16

     2340.422 MB (compressed) written to integral file ( 91.2%)

     Node minimum: 2340.422 MB, node maximum: 2340.422 MB


 NUMBER OF SORTED TWO-ELECTRON INTEGRALS:  290176095.     BUFFER LENGTH:  32768
 NUMBER OF SEGMENTS:  19  SEGMENT LENGTH:   15999762      RECORD LENGTH: 524288

 Memory used in sort:      16.56 MW

 SORT1 READ   320642736. AND WROTE   287612436. INTEGRALS IN    832 RECORDS. CPU TIME:     3.25 SEC, REAL TIME:     5.29 SEC
 SORT2 READ   287612436. AND WROTE   290176095. INTEGRALS IN   8928 RECORDS. CPU TIME:     1.92 SEC, REAL TIME:     3.04 SEC

 FILE SIZES:   FILE 1:  2151.4 MBYTE,  FILE 4:  3489.7 MBYTE,   TOTAL:   5641.1 MBYTE

 OPERATOR DM      FOR CENTER  0  COORDINATES:    0.000000    0.000000    0.000000


 **********************************************************************************************************************************
 DATASETS  * FILE   NREC   LENGTH (MB)   RECORD NAMES
              1      19     2152.00       500      610      700      900      950      970     1000      129      960     1100   
                                          VAR    BASINP    GEOM    SYMINP    ZMAT    AOBASIS   BASIS     P2S    ABASIS      S 
                                         1400     1410     1200     1210     1080     1600     1650     1300     1700   
                                           T        V       H0       H01     AOSYM     SMH    MOLCAS    ERIS     OPER   

 PROGRAMS   *        TOTAL       INT
 CPU TIMES  *        18.31     18.26
 REAL TIME  *        25.19 SEC
 DISK USED  *         7.98 GB      
 GA USED    *         0.01 MB       (max)       0.00 MB       (current)
 **********************************************************************************************************************************

1PROGRAM * RHF-SCF (CLOSED SHELL)       Authors: W. Meyer, H.-J. Werner


 NUMBER OF ELECTRONS:      28+   28-    SPACE SYMMETRY=1    SPIN SYMMETRY: Singlet 
 CONVERGENCE THRESHOLDS:    1.00E-10 (Density)    1.00E-13 (Energy)
 MAX. NUMBER OF ITERATIONS:      200
 INTERPOLATION TYPE:            DIIS
 INTERPOLATION STEPS:              2 (START)      1 (STEP)
 LEVEL SHIFTS:                  0.00 (CLOSED)  0.00 (OPEN) 



 Orbital guess generated from atomic densities. Full valence occupancy:   47

 Molecular orbital dump at record        2100.2

 ITERATION    DDIFF          GRAD             ENERGY        2-EL.EN.            DIPOLE MOMENTS         DIIS
    1      0.000D+00      0.000D+00      -323.54138749    822.238784   -1.89868    0.10257    0.00209    0
    2      0.000D+00      0.292D-02      -323.59785603    819.227473   -1.36851    0.04984   -0.00069    1
    3      0.783D-02      0.179D-02      -323.61444711    820.367755   -1.72968    0.07899    0.00059    2
    4      0.260D-02      0.577D-03      -323.61678727    820.569210   -1.63894    0.07176    0.00028    3
    5      0.964D-03      0.133D-03      -323.61691631    820.309882   -1.66286    0.07247    0.00025    4
    6      0.223D-03      0.229D-04      -323.61692244    820.336633   -1.66422    0.07243    0.00024    5
    7      0.847D-04      0.434D-05      -323.61692264    820.331765   -1.66458    0.07236    0.00023    6
    8      0.108D-04      0.123D-05      -323.61692266    820.332756   -1.66489    0.07242    0.00024    7
    9      0.344D-05      0.267D-06      -323.61692266    820.332788   -1.66485    0.07237    0.00023    6
   10      0.814D-06      0.714D-07      -323.61692266    820.332767   -1.66486    0.07240    0.00024    6
   11      0.185D-06      0.362D-07      -323.61692266    820.332783   -1.66486    0.07239    0.00023    7
   12      0.836D-07      0.704D-08      -323.61692266    820.332777   -1.66486    0.07239    0.00024    7
   13      0.236D-07      0.261D-08      -323.61692266    820.332780   -1.66486    0.07239    0.00024    7
   14      0.647D-08      0.759D-09      -323.61692266    820.332779   -1.66486    0.07239    0.00024    7
   15      0.208D-08      0.283D-09      -323.61692266    820.332779   -1.66486    0.07239    0.00024    8
   16      0.806D-09      0.860D-10      -323.61692266    820.332779   -1.66486    0.07239    0.00024    8
   17      0.229D-09      0.291D-10      -323.61692266    820.332779   -1.66486    0.07239    0.00024    8
   18      0.136D-09      0.108D-10      -323.61692266    820.332779   -1.66486    0.07239    0.00024    7
   19      0.216D-09      0.522D-11      -323.61692266    820.332779   -1.66486    0.07239    0.00024    8
   20      0.179D-09      0.268D-11      -323.61692266    820.332779   -1.66486    0.07239    0.00024    8
   21      0.117D-09      0.138D-11      -323.61692266    820.332779   -1.66486    0.07239    0.00024    9
   22      0.110D-09      0.895D-12      -323.61692266    820.332779   -1.66486    0.07239    0.00024    9
   23      0.109D-09      0.564D-12      -323.61692266    820.332779   -1.66486    0.07239    0.00024    9
   24      0.657D-10      0.535D-12      -323.61692266    820.332779   -1.66486    0.07239    0.00024    9
   25      0.411D-10      0.477D-12      -323.61692266    820.332779   -1.66486    0.07239    0.00024    9
   26      0.341D-10      0.460D-12      -323.61692266    820.332779   -1.66486    0.07239    0.00024    9
   27      0.301D-10      0.433D-12      -323.61692266    820.332779   -1.66486    0.07239    0.00024    9
   28      0.214D-10      0.471D-12      -323.61692266    820.332779   -1.66486    0.07239    0.00024    9
   29      0.973D-11      0.476D-12      -323.61692266    820.332779   -1.66486    0.07239    0.00024    9
   30      0.116D-10      0.508D-12      -323.61692266    820.332779   -1.66486    0.07239    0.00024    9
   31      0.752D-11      0.438D-12      -323.61692266    820.332779   -1.66486    0.07239    0.00024    9
   32      0.144D-10      0.375D-12      -323.61692266    820.332779   -1.66486    0.07239    0.00024    9
   33      0.137D-10      0.452D-12      -323.61692266    820.332779   -1.66486    0.07239    0.00024    9
   34      0.974D-11      0.476D-12      -323.61692266    820.332779   -1.66486    0.07239    0.00024    9
   35      0.108D-10      0.518D-12      -323.61692266    820.332779   -1.66486    0.07239    0.00024    9
   36      0.136D-10      0.415D-12      -323.61692266    820.332779   -1.66486    0.07239    0.00024    9
   37      0.195D-10      0.400D-12      -323.61692266    820.332779   -1.66486    0.07239    0.00024    9
   38      0.106D-10      0.494D-12      -323.61692266    820.332779   -1.66486    0.07239    0.00024    9
   39      0.986D-11      0.586D-12      -323.61692266    820.332779   -1.66486    0.07239    0.00024    9
   40      0.742D-11      0.474D-12      -323.61692266    820.332779   -1.66486    0.07239    0.00024    9
   41      0.156D-10      0.465D-12      -323.61692266    820.332779   -1.66486    0.07239    0.00024    9
   42      0.288D-10      0.517D-12      -323.61692266    820.332779   -1.66486    0.07239    0.00024    9
   43      0.201D-10      0.479D-12      -323.61692266    820.332779   -1.66486    0.07239    0.00024    9
   44      0.279D-10      0.478D-12      -323.61692266    820.332779   -1.66486    0.07239    0.00024    9
   45      0.250D-10      0.526D-12      -323.61692266    820.332779   -1.66486    0.07239    0.00024    9
   46      0.215D-10      0.509D-12      -323.61692266    820.332779   -1.66486    0.07239    0.00024    9
   47      0.215D-10      0.420D-12      -323.61692266    820.332779   -1.66486    0.07239    0.00024    9
   48      0.154D-10      0.434D-12      -323.61692266    820.332779   -1.66486    0.07239    0.00024    0

 Final occupancy:  28

 !RHF STATE 1.1 Energy               -323.616922657089
 Nuclear energy                       303.45729088
 One-electron energy                -1037.24060306
 Two-electron energy                  410.16638951
 Virial quotient                       -1.00164976
 !RHF STATE 1.1 Dipole moment          -1.66485518     0.07238885     0.00023503
 Dipole moment /Debye                  -4.23136264     0.18398205     0.00059734

 Orbital energies:

         1.1          2.1          3.1          4.1          5.1          6.1          7.1          8.1          9.1         10.1
    -15.591649   -11.283862   -11.265951   -11.265432   -11.265358   -11.264240   -11.264185   -11.263617    -1.218336    -1.173925

        11.1         12.1         13.1         14.1         15.1         16.1         17.1         18.1         19.1         20.1
     -1.038051    -1.037868    -0.846375    -0.845833    -0.789909    -0.729959    -0.665766    -0.639130    -0.609009    -0.608996

        21.1         22.1         23.1         24.1         25.1         26.1         27.1         28.1         29.1         30.1
     -0.565226    -0.520300    -0.515516    -0.514831    -0.475691    -0.475687    -0.359607    -0.359605     0.055875     0.060049


 **********************************************************************************************************************************
 DATASETS  * FILE   NREC   LENGTH (MB)   RECORD NAMES
              1      19     2152.00       500      610      700      900      950      970     1000      129      960     1100   
                                          VAR    BASINP    GEOM    SYMINP    ZMAT    AOBASIS   BASIS     P2S    ABASIS      S 
                                         1400     1410     1200     1210     1080     1600     1650     1300     1700   
                                           T        V       H0       H01     AOSYM     SMH    MOLCAS    ERIS     OPER   

              2       3        1.49       700     1000     2100   
                                         GEOM     BASIS     RHF  

 PROGRAMS   *        TOTAL       RHF       INT
 CPU TIMES  *       126.53    108.23     18.26
 REAL TIME  *       144.22 SEC
 DISK USED  *         7.98 GB      
 GA USED    *         0.01 MB       (max)       0.00 MB       (current)
 **********************************************************************************************************************************


1PROGRAM * CCSD (Closed-shell coupled cluster)     Authors: C. Hampel, H.-J. Werner, 1991, M. Deegan, P.J. Knowles, 1992


 Convergence thresholds:  THRVAR = 1.00D-08  THRDEN = 1.00D-12

 CCSD(T)     terms to be evaluated (factor= 1.000)


 Number of core orbitals:           8 (   8 )
 Number of closed-shell orbitals:  20 (  20 )
 Number of external orbitals:     191 ( 191 )

 Molecular orbitals read from record     2100.2  Type=RHF/CANONICAL (state 1.1)

 Number of N-1 electron functions:              20
 Number of N-2 electron functions:             210
 Number of singly external CSFs:              3820
 Number of doubly external CSFs:           7298110
 Total number of CSFs:                     7301931

 Length of J-op  integral file:               0.00 MB
 Length of K-op  integral file:               3.32 MB
 Length of 3-ext integral record:             0.00 MB

 Memory could be reduced to 174.82 Mwords without degradation in triples

 Integral transformation finished. Total CPU:  19.21 sec, npass=  1  Memory used: 128.13 MW

 Reference energy:                   -323.61692266

 MP2 singlet pair energy:              -0.67315572
 MP2 triplet pair energy:              -0.43513664
 MP2 correlation energy:               -1.10829236
 MP2 total energy:                   -324.72521501

 SCS-MP2 correlation energy:           -1.07853855   (PS=  1.200000  PT=  0.333333)
 SCS-MP2 total energy:               -324.69546120

 ITER.      SQ.NORM     CORR.ENERGY   TOTAL ENERGY   ENERGY CHANGE        DEN1      VAR(S)    VAR(P)  DIIS     TIME
   1      1.42846416    -1.14438062  -324.76130328    -0.03608826    -0.00292818  0.51D-02  0.99D-02  1  1    71.35
   2      1.46273879    -1.15024417  -324.76716683    -0.00586355    -0.03100252  0.83D-04  0.13D-02  2  2   123.96
   3      1.47600404    -1.15069052  -324.76761318    -0.00044635    -0.00654639  0.40D-04  0.12D-03  3  3   176.57
   4      1.48169339    -1.15093979  -324.76786245    -0.00024927    -0.00178427  0.22D-05  0.15D-04  4  4   229.24
   5      1.48322219    -1.15097538  -324.76789803    -0.00003558    -0.00036563  0.25D-06  0.14D-05  5  5   281.94
   6      1.48352770    -1.15096688  -324.76788954     0.00000850    -0.00005010  0.24D-07  0.90D-07  6  6   334.67
   7      1.48356242    -1.15097029  -324.76789295    -0.00000341    -0.00000225  0.34D-08  0.80D-08  6  2   387.41
   8      1.48356707    -1.15097065  -324.76789330    -0.00000036    -0.00000041  0.41D-09  0.83D-09  6  1   440.06
   9      1.48356729    -1.15097081  -324.76789347    -0.00000017     0.00000079  0.63D-10  0.78D-10  6  3   492.66
  10      1.48356767    -1.15097087  -324.76789353    -0.00000006     0.00000002  0.10D-10  0.98D-11  6  4   545.26
  11      1.48356739    -1.15097091  -324.76789357    -0.00000004     0.00000022  0.16D-11  0.14D-11  6  5   597.85
  12      1.48356723    -1.15097092  -324.76789358    -0.00000001     0.00000008  0.25D-12  0.27D-12  6  6   650.41
  13      1.48356709    -1.15097092  -324.76789358    -0.00000000     0.00000005  0.14D-13  0.51D-13  6  2   702.99
  14      1.48356703    -1.15097093  -324.76789358    -0.00000000     0.00000002  0.22D-14  0.93D-14  6  1   755.58
  15      1.48356700    -1.15097093  -324.76789358     0.00000000     0.00000001  0.46D-15  0.13D-14  6  3   808.16
  16      1.48356699    -1.15097093  -324.76789358    -0.00000000     0.00000000  0.98D-16  0.19D-15  6  4   860.76
  17      1.48356699    -1.15097093  -324.76789358    -0.00000000     0.00000000  0.19D-16  0.28D-16  6  5   913.35
  18      1.48356699    -1.15097093  -324.76789358    -0.00000000     0.00000000  0.36D-17  0.35D-17  6  6   965.98
  19      1.48356699    -1.15097093  -324.76789358    -0.00000000     0.00000000  0.82D-18  0.60D-18  6  2  1018.58
  20      1.48356699    -1.15097093  -324.76789358    -0.00000000     0.00000000  0.18D-18  0.13D-18  6  1  1071.17
  21      1.48356699    -1.15097093  -324.76789358    -0.00000000     0.00000000  0.64D-19  0.39D-19  6  3  1123.77
  22      1.48356699    -1.15097093  -324.76789358     0.00000000     0.00000000  0.29D-19  0.17D-19  6  4  1176.37

 Norm of t1 vector:      0.09773525      S-energy:     0.00000000      T1 diagnostic:  0.01092713
                                                                       D1 diagnostic:  0.02771857

 Doubles amplitudes (print threshold =  0.500E-01):

         I         J         SYM. A    SYM. B    A         B      T(IJ, AB)

        19        19         1         1         8         8     -0.05071012
        20        20         1         1         7         7     -0.05074580


 Total CPU time for triples:   1085.36 sec


 RESULTS
 =======

  Reference energy                   -323.616922657090
  CCSD singlet pair energy             -0.769765505602
  CCSD triplet pair energy             -0.381205419830
  CCSD correlation energy              -1.150970925432

  Triples (T) contribution             -0.053979204487
  Total correlation energy             -1.204950129919

  CCSD total energy                  -324.767893582522
  CCSD[T] energy                     -324.823204025727
  CCSD-T energy                      -324.821267830351
 !CCSD(T) total energy               -324.821872787009

 Timing summary (sec):

 STEP                 CPU(USER)    SYS     CPU(TOT)    WALL
 Transformation         19.76      1.08     20.84     20.85
 CCSD iterations      1156.64     14.51   1171.15   1171.36
 Triples              1085.36     15.17   1100.53   1100.67

 Program statistics:

 Available memory in ccsd:               999998300
 Min. memory needed in ccsd:              17709720
 Max. memory used in ccsd:                24415330
 Max. memory used in cckext:              20754978 (22 integral passes)



 **********************************************************************************************************************************
 DATASETS  * FILE   NREC   LENGTH (MB)   RECORD NAMES
              1      20     2834.17       500      610      700      900      950      970     1000      129      960     1100   
                                          VAR    BASINP    GEOM    SYMINP    ZMAT    AOBASIS   BASIS     P2S    ABASIS      S 
                                         1400     1410     1200     1210     1080     1600     1650     1300     1700     1380   
                                           T        V       H0       H01     AOSYM     SMH    MOLCAS    ERIS     OPER     JKOP   

              2       3        1.49       700     1000     2100   
                                         GEOM     BASIS     RHF  

 PROGRAMS   *        TOTAL   CCSD(T)       RHF       INT
 CPU TIMES  *      2388.31   2261.78    108.23     18.26
 REAL TIME  *      2437.23 SEC
 DISK USED  *         7.98 GB      
 GA USED    *         0.01 MB       (max)       0.00 MB       (current)
 **********************************************************************************************************************************

        CCSD(T)         RHF-SCF 
   -324.82187279   -323.61692266
 **********************************************************************************************************************************
 Variable memory released
