
 Primary working directories    : /tmp/879303.190.gen4.q
 Secondary working directories  : /tmp/879303.190.gen4.q
 Wavefunction directory         : /home/vulcan/lo21740/wfu/
 Main file repository           : /tmp/879303.190.gen4.q/

 ARCHNAME  : Linux/x86_64
 FC        : /opt/intel/compilers_and_libraries_2016.1.150/linux/bin/intel64/ifort
 FCVERSION : 16.0.1
 BLASLIB   : -mkl
 id        : ccgc

 Nodes     nprocs
 n033         1
 ga_uses_ma=false, calling ma_init with nominal heap.
 GA-space will be limited to   8.0 MW (determined by -G option)

 Using customized tuning parameters: mindgm=10; mindgv=16; mindgc=4; mindgr=1; noblas=0; mincuda=1000; minvec=7
 default implementation of scratch files=df  

 ***,Optimization of formamide
 memory,1000,m
 gthresh,energy=1.0d-12,orbital=1.0d-10,oneint=1.0d-16,twoint=1.0d-16,optgrad=1.0d-6,compress=1.0d-13
 geomtyp=xyz
 
 bohr
 geometry = {
  C   -3.8241594187    0.0861888215   -0.0016238717
  O   -2.7323118969    2.1388383168    0.0001571718
  N   -2.6802015395   -2.1791972750    0.0006958242
  H   -3.7393810912   -3.7562814540   -0.0003787916
  H   -0.7530503215   -2.3049182849    0.0006384167
  H   -5.9030160924   -0.0182163941    0.0005112507
  C    3.8241594187   -0.0861888215   -0.0016238717
  O    2.7323118969   -2.1388383168    0.0001571718
  N    2.6802015395    2.1791972750    0.0006958242
  H    3.7393810912    3.7562814540   -0.0003787916
  H    0.7530503215    2.3049182849    0.0006384167
  H    5.9030160924    0.0182163941    0.0005112507
 }
 
 basis=AVDZ, H=VDZ
 {rhf;maxit,200}
 {ccsd(t);maxit,200}

 Variables initialized (661), CPU time= 0.00 sec
 Commands  initialized (458), CPU time= 0.00 sec, 486 directives.
 Default parameters read. Elapsed time= 0.06 sec

 Checking input...
 Passed
1


                                         ***  PROGRAM SYSTEM MOLPRO  ***
                         Copyright, University College Cardiff Consultants Limited, 2008

                                    Version 2010.1 linked May 16 2016 07:17:05


 **********************************************************************************************************************************
 LABEL *   Optimization of formamide                                                     
 Linux-4.4.3/n033(x86_64) 64 bit mpp version                                             DATE: 23-May-23          TIME: 14:03:38  
 **********************************************************************************************************************************

 SHA1:             9e8077add272b0f3cad6f7df79ec5211205f459d
 **********************************************************************************************************************************

 THRESHOLDS:

 ZERO    =  1.00D-12  ONEINT  =  1.00D-16  TWOINT  =  1.00D-16  PREFAC  =  1.00D-14  LOCALI  =  1.00D-09  EORDER  =  1.00D-04
 ENERGY  =  1.00D-12  ETEST   =  0.00D+00  EDENS   =  0.00D+00  THRDEDEF=  1.00D-06  GRADIENT=  1.00D-02  STEP    =  1.00D-03
 ORBITAL =  1.00D-10  CIVEC   =  1.00D-05  COEFF   =  1.00D-04  PRINTCI =  5.00D-02  PUNCHCI =  9.90D+01  OPTGRAD =  1.00D-06
 OPTENERG=  1.00D-06  OPTSTEP =  3.00D-04  THRGRAD =  1.00D-10  COMPRESS=  1.00D-13  VARMIN  =  1.00D-07  VARMAX  =  1.00D-03
 THRDOUB =  0.00D+00  THRDIV  =  1.00D-05  THRRED  =  1.00D-07  THRPSP  =  1.00D+00  THRDC   =  1.00D-10  THRCS   =  1.00D-10
 THRNRM  =  1.00D-08  THREQ   =  0.00D+00  THRDE   =  1.00D+00  THRREF  =  1.00D-05  SPARFAC =  1.00D+00  THRDLP  =  1.00D-07
 THRDIA  =  1.00D-10  THRDLS  =  1.00D-07  THRGPS  =  0.00D+00  THRKEX  =  0.00D+00  THRDIS  =  2.00D-01  THRVAR  =  1.00D-10
 THRLOC  =  1.00D-06  THRGAP  =  1.00D-06  THRLOCT = -1.00D+00  THRGAPT = -1.00D+00  THRORB  =  1.00D-06  THRMLTP =  0.00D+00
 THRCPQCI=  1.00D-10  KEXTA   =  0.00D+00  THRCOARS=  0.00D+00  SYMTOL  =  1.00D-06  GRADTOL =  1.00D-06  THROVL  =  1.00D-08
 THRORTH =  1.00D-08  GRID    =  1.00D-06  GRIDMAX =  1.00D-03  DTMAX   =  0.00D+00

 SETTING GEOMTYP        =    XYZ
 ZUNIT=BOHR
 

 Variable memory set to 1000000000 words,  buffer space   230000 words

 SETTING BASIS          =    AVDZ,H=VDZ


 Recomputing integrals since basis changed


 Using spherical harmonics

 Library entry C      S aug-cc-pVDZ          selected for orbital group  1
 Library entry C      P aug-cc-pVDZ          selected for orbital group  1
 Library entry C      D aug-cc-pVDZ          selected for orbital group  1
 Library entry O      S aug-cc-pVDZ          selected for orbital group  2
 Library entry O      P aug-cc-pVDZ          selected for orbital group  2
 Library entry O      D aug-cc-pVDZ          selected for orbital group  2
 Library entry N      S aug-cc-pVDZ          selected for orbital group  3
 Library entry N      P aug-cc-pVDZ          selected for orbital group  3
 Library entry N      D aug-cc-pVDZ          selected for orbital group  3
 Library entry H      S cc-pVDZ              selected for orbital group  4
 Library entry H      P cc-pVDZ              selected for orbital group  4

1PROGRAM * SEWARD (Integral evaluation for generally contracted gaussian basis sets)     Author: Roland Lindh, 1990

 Geometry written to block  1 of record 700


 Point group  C2  



 ATOMIC COORDINATES

 NR  ATOM    CHARGE       X              Y              Z

   1  C       6.00   -3.824159419    0.086188821   -0.001623872
   2  C       6.00    3.824159419   -0.086188821   -0.001623872
   3  O       8.00   -2.732311897    2.138838317    0.000157172
   4  O       8.00    2.732311897   -2.138838317    0.000157172
   5  N       7.00   -2.680201540   -2.179197275    0.000695824
   6  N       7.00    2.680201540    2.179197275    0.000695824
   7  H       1.00   -3.739381091   -3.756281454   -0.000378792
   8  H       1.00    3.739381091    3.756281454   -0.000378792
   9  H       1.00   -0.753050321   -2.304918285    0.000638417
  10  H       1.00    0.753050321    2.304918285    0.000638417
  11  H       1.00   -5.903016092   -0.018216394    0.000511251
  12  H       1.00    5.903016092    0.018216394    0.000511251

 Bond lengths in Bohr (Angstrom)

  1- 3  2.324974007   1- 5  2.537837500   1-11  2.081477859   2- 4  2.324974007   2- 6  2.537837500
       ( 1.230323256)       ( 1.342965765)       ( 1.101470644)       ( 1.230323256)       ( 1.342965765)

  2-12  2.081477859   5- 7  1.899751822   5- 9  1.931247678   6- 8  1.899751822   6-10  1.931247678
       ( 1.101470644)       ( 1.005305367)       ( 1.021972256)       ( 1.005305367)       ( 1.021972256)

 Bond angles

  1- 5- 7  119.32186814   1- 5- 9  120.52500755   2- 6- 8  119.32186814   2- 6-10  120.52500755

  3- 1- 5  125.19794533   3- 1-11  120.88448923   4- 2- 6  125.19794533   4- 2-12  120.88448923

  5- 1-11  113.91732430   6- 2-12  113.91732430   7- 5- 9  120.15304935   8- 6-10  120.15304935

 NUCLEAR CHARGE:                   48
 NUMBER OF PRIMITIVE AOS:         264
 NUMBER OF SYMMETRY AOS:          252
 NUMBER OF CONTRACTIONS:          168   (  84A   +  84B   )
 NUMBER OF CORE ORBITALS:           6   (   3A   +   3B   )
 NUMBER OF VALENCE ORBITALS:       30   (  15A   +  15B   )


 NUCLEAR REPULSION ENERGY  230.54239039


 Eigenvalues of metric

         1 0.625E-03 0.114E-02 0.161E-02 0.365E-02 0.514E-02 0.794E-02 0.800E-02 0.901E-02
         2 0.416E-03 0.134E-02 0.168E-02 0.436E-02 0.527E-02 0.719E-02 0.813E-02 0.107E-01


 Contracted 2-electron integrals neglected if value below      1.0D-16
 AO integral compression algorithm  1   Integral accuracy      1.0D-16

     474.743 MB (compressed) written to integral file ( 91.6%)

     Node minimum: 474.743 MB, node maximum: 474.743 MB


 NUMBER OF SORTED TWO-ELECTRON INTEGRALS:   50983170.     BUFFER LENGTH:  32768
 NUMBER OF SEGMENTS:   4  SEGMENT LENGTH:   15993600      RECORD LENGTH: 524288

 Memory used in sort:      16.55 MW

 SORT1 READ    64801056. AND WROTE    50540669. INTEGRALS IN    147 RECORDS. CPU TIME:     0.73 SEC, REAL TIME:     1.11 SEC
 SORT2 READ    50540669. AND WROTE    50983170. INTEGRALS IN   1811 RECORDS. CPU TIME:     0.56 SEC, REAL TIME:     0.79 SEC

 FILE SIZES:   FILE 1:   387.8 MBYTE,  FILE 4:   616.6 MBYTE,   TOTAL:   1004.4 MBYTE

 OPERATOR DM      FOR CENTER  0  COORDINATES:    0.000000    0.000000    0.000000


 **********************************************************************************************************************************
 DATASETS  * FILE   NREC   LENGTH (MB)   RECORD NAMES
              1      19      387.97       500      610      700      900      950      970     1000      129      960     1100   
                                          VAR    BASINP    GEOM    SYMINP    ZMAT    AOBASIS   BASIS     P2S    ABASIS      S 
                                         1400     1410     1200     1210     1080     1600     1650     1300     1700   
                                           T        V       H0       H01     AOSYM     SMH    MOLCAS    ERIS     OPER   

 PROGRAMS   *        TOTAL       INT
 CPU TIMES  *         5.00      4.94
 REAL TIME  *         6.01 SEC
 DISK USED  *         1.48 GB      
 GA USED    *         0.00 MB       (max)       0.00 MB       (current)
 **********************************************************************************************************************************

1PROGRAM * RHF-SCF (CLOSED SHELL)       Authors: W. Meyer, H.-J. Werner


 NUMBER OF ELECTRONS:      24+   24-
 CONVERGENCE THRESHOLDS:    1.00E-10 (Density)    1.00E-13 (Energy)
 MAX. NUMBER OF ITERATIONS:      200
 INTERPOLATION TYPE:            DIIS
 INTERPOLATION STEPS:              2 (START)      1 (STEP)
 LEVEL SHIFTS:                  0.00 (CLOSED)  0.00 (OPEN) 



 Orbital guess generated from atomic densities. Full valence occupancy:   18  18

 Molecular orbital dump at record        2100.2

 Initial alpha occupancy:  12  12
 Initial beta  occupancy:  12  12
 Wave function symmetry:    1

 ITERATION    DDIFF          GRAD             ENERGY        2-EL.EN.            DIPOLE MOMENTS         DIIS
    1      0.000D+00      0.000D+00      -337.80417340    704.737649    0.00000    0.00000   -0.00398    0
    2      0.000D+00      0.907D-02      -337.88170441    699.137069    0.00000    0.00000   -0.00040    1
    3      0.173D-01      0.660D-02      -337.93934629    701.872636    0.00000    0.00000   -0.00177    2
    4      0.685D-02      0.872D-03      -337.94155210    701.776419    0.00000    0.00000   -0.00188    3
    5      0.151D-02      0.300D-03      -337.94181821    701.710555    0.00000    0.00000   -0.00181    4
    6      0.541D-03      0.983D-04      -337.94187889    701.736151    0.00000    0.00000   -0.00183    5
    7      0.233D-03      0.435D-04      -337.94188975    701.727358    0.00000    0.00000   -0.00184    6
    8      0.116D-03      0.129D-04      -337.94189067    701.732870    0.00000    0.00000   -0.00184    7
    9      0.357D-04      0.388D-05      -337.94189074    701.730410    0.00000    0.00000   -0.00184    8
   10      0.951D-05      0.135D-05      -337.94189075    701.730951    0.00000    0.00000   -0.00184    7
   11      0.395D-05      0.323D-06      -337.94189075    701.730879    0.00000    0.00000   -0.00184    8
   12      0.912D-06      0.481D-07      -337.94189075    701.730886    0.00000    0.00000   -0.00184    7
   13      0.140D-06      0.113D-07      -337.94189075    701.730887    0.00000    0.00000   -0.00184    7
   14      0.351D-07      0.205D-08      -337.94189075    701.730887    0.00000    0.00000   -0.00184    6
   15      0.498D-08      0.813D-09      -337.94189075    701.730887    0.00000    0.00000   -0.00184    6
   16      0.169D-08      0.311D-09      -337.94189075    701.730887    0.00000    0.00000   -0.00184    7
   17      0.568D-09      0.761D-10      -337.94189075    701.730887    0.00000    0.00000   -0.00184    7
   18      0.176D-09      0.232D-10      -337.94189075    701.730887    0.00000    0.00000   -0.00184    7
   19      0.613D-10      0.768D-11      -337.94189075    701.730887    0.00000    0.00000   -0.00184    7
   20      0.193D-10      0.287D-11      -337.94189075    701.730887    0.00000    0.00000   -0.00184    7
   21      0.777D-11      0.707D-12      -337.94189075    701.730887    0.00000    0.00000   -0.00184    8
   22      0.220D-11      0.261D-12      -337.94189075    701.730887    0.00000    0.00000   -0.00184    8
   23      0.150D-11      0.132D-12      -337.94189075    701.730887    0.00000    0.00000   -0.00184    8
   24      0.784D-12      0.766D-13      -337.94189075    701.730887    0.00000    0.00000   -0.00184    8
   25      0.651D-12      0.610D-13      -337.94189075    701.730887    0.00000    0.00000   -0.00184    9
   26      0.688D-12      0.559D-13      -337.94189075    701.730887    0.00000    0.00000   -0.00184    9
   27      0.448D-12      0.551D-13      -337.94189075    701.730887    0.00000    0.00000   -0.00184    9
   28      0.289D-12      0.452D-13      -337.94189075    701.730887    0.00000    0.00000   -0.00184    9
   29      0.229D-12      0.356D-13      -337.94189075    701.730887    0.00000    0.00000   -0.00184    9
   30      0.217D-12      0.486D-13      -337.94189075    701.730887    0.00000    0.00000   -0.00184    9
   31      0.165D-12      0.527D-13      -337.94189075    701.730887    0.00000    0.00000   -0.00184    9
   32      0.141D-12      0.463D-13      -337.94189075    701.730887    0.00000    0.00000   -0.00184    9
   33      0.100D-12      0.438D-13      -337.94189075    701.730887    0.00000    0.00000   -0.00184    0

 Final occupancy:  12  12

 !RHF STATE 1.1 Energy               -337.941890751544
 Nuclear energy                       230.54239039
 One-electron energy                 -919.34972464
 Two-electron energy                  350.86544350
 Virial quotient                       -1.00174148
 !RHF STATE 1.1 Dipole moment           0.00000000     0.00000000    -0.00183899
 Dipole moment /Debye                   0.00000000     0.00000000    -0.00467394

 Orbital energies:

         1.1          2.1          3.1          4.1          5.1          6.1          7.1          8.1          9.1         10.1
    -20.540835   -15.589400   -11.368300    -1.389919    -1.212685    -0.860755    -0.749852    -0.645554    -0.619167    -0.574076

        11.1         12.1         13.1         14.1
     -0.454253    -0.410004     0.068837     0.093378

         1.2          2.2          3.2          4.2          5.2          6.2          7.2          8.2          9.2         10.2
    -20.540835   -15.589400   -11.368301    -1.385211    -1.218832    -0.835576    -0.740873    -0.706044    -0.593985    -0.566035

        11.2         12.2         13.2         14.2
     -0.428973    -0.420553     0.068034     0.083196


 **********************************************************************************************************************************
 DATASETS  * FILE   NREC   LENGTH (MB)   RECORD NAMES
              1      19      387.97       500      610      700      900      950      970     1000      129      960     1100   
                                          VAR    BASINP    GEOM    SYMINP    ZMAT    AOBASIS   BASIS     P2S    ABASIS      S 
                                         1400     1410     1200     1210     1080     1600     1650     1300     1700   
                                           T        V       H0       H01     AOSYM     SMH    MOLCAS    ERIS     OPER   

              2       3        0.76       700     1000     2100   
                                         GEOM     BASIS     RHF  

 PROGRAMS   *        TOTAL       RHF       INT
 CPU TIMES  *        14.45      9.45      4.94
 REAL TIME  *        17.03 SEC
 DISK USED  *         1.48 GB      
 GA USED    *         0.00 MB       (max)       0.00 MB       (current)
 **********************************************************************************************************************************


1PROGRAM * CCSD (Closed-shell coupled cluster)     Authors: C. Hampel, H.-J. Werner, 1991, M. Deegan, P.J. Knowles, 1992


 Convergence thresholds:  THRVAR = 1.00D-08  THRDEN = 1.00D-12

 CCSD(T)     terms to be evaluated (factor= 1.000)


 Number of core orbitals:           6 (   3   3 )
 Number of closed-shell orbitals:  18 (   9   9 )
 Number of external orbitals:     144 (  72  72 )

 Molecular orbitals read from record     2100.2  Type=RHF/CANONICAL (state 1.1)

 Number of N-1 electron functions:              18
 Number of N-2 electron functions:             171
 Number of singly external CSFs:              1296
 Number of doubly external CSFs:           1680912
 Total number of CSFs:                     1682209

 Length of J-op  integral file:               0.00 MB
 Length of K-op  integral file:               1.01 MB
 Length of 3-ext integral record:             0.00 MB

 Memory could be reduced to 35.12 Mwords without degradation in triples

 Integral transformation finished. Total CPU:   2.72 sec, npass=  1  Memory used:  19.69 MW

 Reference energy:                   -337.94189075

 MP2 singlet pair energy:              -0.61944135
 MP2 triplet pair energy:              -0.40469606
 MP2 correlation energy:               -1.02413741
 MP2 total energy:                   -338.96602816

 SCS-MP2 correlation energy:           -0.99514050   (PS=  1.200000  PT=  0.333333)
 SCS-MP2 total energy:               -338.93703126

 ITER.      SQ.NORM     CORR.ENERGY   TOTAL ENERGY   ENERGY CHANGE        DEN1      VAR(S)    VAR(P)  DIIS     TIME
   1      1.31854435    -1.05289520  -338.99478595    -0.02875779     0.00230574  0.10D-01  0.60D-02  1  1     7.79
   2      1.34395666    -1.05484887  -338.99673962    -0.00195367    -0.02583871  0.22D-03  0.11D-02  2  2    13.05
   3      1.35649756    -1.05573973  -338.99763049    -0.00089087    -0.00553656  0.22D-03  0.51D-04  3  3    18.32
   4      1.36167083    -1.05547708  -338.99736783     0.00026266    -0.00168023  0.21D-04  0.92D-05  4  4    23.59
   5      1.36377823    -1.05542116  -338.99731191     0.00005592    -0.00043952  0.26D-05  0.11D-05  5  5    28.87
   6      1.36428314    -1.05539195  -338.99728270     0.00002921    -0.00004722  0.24D-06  0.17D-06  6  6    34.16
   7      1.36440990    -1.05538011  -338.99727086     0.00001184    -0.00000764  0.31D-07  0.22D-07  6  2    39.44
   8      1.36443394    -1.05537997  -338.99727072     0.00000014    -0.00000003  0.57D-08  0.26D-08  6  1    44.71
   9      1.36443631    -1.05537969  -338.99727044     0.00000029     0.00000183  0.93D-09  0.46D-09  6  4    49.98
  10      1.36444041    -1.05537963  -338.99727038     0.00000006    -0.00000045  0.26D-09  0.47D-10  6  3    55.28
  11      1.36444065    -1.05537971  -338.99727046    -0.00000008     0.00000016  0.38D-10  0.11D-10  6  5    60.55
  12      1.36444046    -1.05537973  -338.99727048    -0.00000002     0.00000008  0.53D-11  0.26D-11  6  6    65.83
  13      1.36444016    -1.05537977  -338.99727052    -0.00000004     0.00000013  0.80D-12  0.35D-12  6  2    71.12
  14      1.36444000    -1.05537977  -338.99727053    -0.00000001     0.00000004  0.12D-12  0.70D-13  6  1    76.40
  15      1.36443994    -1.05537978  -338.99727053    -0.00000000     0.00000001  0.24D-13  0.14D-13  6  4    81.69
  16      1.36443990    -1.05537978  -338.99727053    -0.00000000     0.00000000  0.46D-14  0.24D-14  6  3    86.99
  17      1.36443989    -1.05537978  -338.99727053    -0.00000000    -0.00000000  0.12D-14  0.39D-15  6  5    92.26
  18      1.36443989    -1.05537978  -338.99727053    -0.00000000     0.00000000  0.20D-15  0.11D-15  6  6    97.56
  19      1.36443989    -1.05537978  -338.99727053    -0.00000000     0.00000000  0.54D-16  0.20D-16  6  2   102.85
  20      1.36443989    -1.05537978  -338.99727053    -0.00000000     0.00000000  0.11D-16  0.36D-17  6  1   108.14
  21      1.36443989    -1.05537978  -338.99727053    -0.00000000     0.00000000  0.27D-17  0.11D-17  6  4   113.41
  22      1.36443989    -1.05537978  -338.99727053     0.00000000    -0.00000000  0.74D-18  0.31D-18  6  3   118.71
  23      1.36443989    -1.05537978  -338.99727053     0.00000000    -0.00000000  0.21D-18  0.57D-19  6  5   124.00
  24      1.36443989    -1.05537978  -338.99727053     0.00000000    -0.00000000  0.57D-19  0.20D-19  6  1   129.28
  25      1.36443989    -1.05537978  -338.99727053     0.00000000    -0.00000000  0.10D-19  0.26D-20  6  6   134.56
  26      1.36443989    -1.05537978  -338.99727053    -0.00000000     0.00000000  0.20D-20  0.76D-21  6  2   139.85
  27      1.36443989    -1.05537978  -338.99727053    -0.00000000     0.00000000  0.42D-21  0.15D-21  6  3   145.14

 Norm of t1 vector:      0.14769965      S-energy:    -0.00000000      T1 diagnostic:  0.01740657
                                                                       D1 diagnostic:  0.05887331


 Total CPU time for triples:    132.09 sec


 RESULTS
 =======

  Reference energy                   -337.941890751543
  CCSD singlet pair energy             -0.696570717138
  CCSD triplet pair energy             -0.358809065083
  CCSD correlation energy              -1.055379782221

  Triples (T) contribution             -0.039228316808
  Total correlation energy             -1.094608099029

  CCSD total energy                  -338.997270533764
  CCSD[T] energy                     -339.039683662773
  CCSD-T energy                      -339.035404716193
 !CCSD(T) total energy               -339.036498850572

 Timing summary (sec):

 STEP                 CPU(USER)    SYS     CPU(TOT)    WALL
 Transformation          2.79      0.25      3.04      3.04
 CCSD iterations       142.36      3.71    146.07    146.46
 Triples               132.09      2.56    134.65    134.66

 Program statistics:

 Available memory in ccsd:               999998604
 Min. memory needed in ccsd:               4264540
 Max. memory used in ccsd:                 5806348
 Max. memory used in cckext:               5610853 (27 integral passes)



 **********************************************************************************************************************************
 DATASETS  * FILE   NREC   LENGTH (MB)   RECORD NAMES
              1      20      526.50       500      610      700      900      950      970     1000      129      960     1100   
                                          VAR    BASINP    GEOM    SYMINP    ZMAT    AOBASIS   BASIS     P2S    ABASIS      S 
                                         1400     1410     1200     1210     1080     1600     1650     1300     1700     1380   
                                           T        V       H0       H01     AOSYM     SMH    MOLCAS    ERIS     OPER     JKOP   

              2       3        0.76       700     1000     2100   
                                         GEOM     BASIS     RHF  

 PROGRAMS   *        TOTAL   CCSD(T)       RHF       INT
 CPU TIMES  *       291.71    277.25      9.45      4.94
 REAL TIME  *       301.25 SEC
 DISK USED  *         1.48 GB      
 GA USED    *         0.00 MB       (max)       0.00 MB       (current)
 **********************************************************************************************************************************

        CCSD(T)         RHF-SCF 
   -339.03649885   -337.94189075
 **********************************************************************************************************************************
 Variable memory released
