
 Primary working directories    : /tmp/942884.203.gen5.q
 Secondary working directories  : /tmp/942884.203.gen5.q
 Wavefunction directory         : /home/vulcan/mel64643/wfu/
 Main file repository           : /tmp/942884.203.gen5.q/

 ARCHNAME  : Linux/x86_64
 FC        : /opt/intel/compilers_and_libraries_2016.1.150/linux/bin/intel64/ifort
 FCVERSION : 16.0.1
 BLASLIB   : -mkl
 id        : ccgc

 Nodes     nprocs
 n073         1
 ga_uses_ma=false, calling ma_init with nominal heap.
 GA-space will be limited to   8.0 MW (determined by -G option)

 Using customized tuning parameters: mindgm=10; mindgv=16; mindgc=4; mindgr=1; noblas=0; mincuda=1000; minvec=7
 default implementation of scratch files=df  

 ***,Optimization of nh3_2
 memory,1000,m
 gthresh,energy=1.0d-12,orbital=1.0d-10,oneint=1.0d-16,twoint=1.0d-16,optgrad=1.0d-6,compress=1.0d-13
 geomtyp=xyz
 
 bohr
 geometry = {
  N   -0.0982593647    3.3667299046   -0.0037963026
  H    0.7305328664    4.1765915532   -1.5322355458
  H    0.7112843371    4.1783782200    1.5339829336
  H    0.4284242564    1.5159937510    0.0005884250
  N   -0.1328550786   -2.7651666245   -0.0004404631
  H    0.1789124893   -3.8679282583   -1.5385700372
  H   -2.0081281563   -2.3565214658    0.0066741993
  H    0.1900886500   -3.8701318826    1.5337967908
 }
 
 basis=aug-cc-pvdz
 {rhf;maxit,200}
 {ccsd(t);maxit,200}

 Variables initialized (661), CPU time= 0.00 sec
 Commands  initialized (458), CPU time= 0.00 sec, 486 directives.
 Default parameters read. Elapsed time= 0.04 sec

 Checking input...
 Passed
1


                                         ***  PROGRAM SYSTEM MOLPRO  ***
                         Copyright, University College Cardiff Consultants Limited, 2008

                                    Version 2010.1 linked May 16 2016 07:17:05


 **********************************************************************************************************************************
 LABEL *   Optimization of nh3_2                                                         
 Linux-4.4.3/n073(x86_64) 64 bit mpp version                                             DATE: 23-Oct-23          TIME: 10:00:04  
 **********************************************************************************************************************************

 SHA1:             9e8077add272b0f3cad6f7df79ec5211205f459d
 **********************************************************************************************************************************

 THRESHOLDS:

 ZERO    =  1.00D-12  ONEINT  =  1.00D-16  TWOINT  =  1.00D-16  PREFAC  =  1.00D-14  LOCALI  =  1.00D-09  EORDER  =  1.00D-04
 ENERGY  =  1.00D-12  ETEST   =  0.00D+00  EDENS   =  0.00D+00  THRDEDEF=  1.00D-06  GRADIENT=  1.00D-02  STEP    =  1.00D-03
 ORBITAL =  1.00D-10  CIVEC   =  1.00D-05  COEFF   =  1.00D-04  PRINTCI =  5.00D-02  PUNCHCI =  9.90D+01  OPTGRAD =  1.00D-06
 OPTENERG=  1.00D-06  OPTSTEP =  3.00D-04  THRGRAD =  1.00D-10  COMPRESS=  1.00D-13  VARMIN  =  1.00D-07  VARMAX  =  1.00D-03
 THRDOUB =  0.00D+00  THRDIV  =  1.00D-05  THRRED  =  1.00D-07  THRPSP  =  1.00D+00  THRDC   =  1.00D-10  THRCS   =  1.00D-10
 THRNRM  =  1.00D-08  THREQ   =  0.00D+00  THRDE   =  1.00D+00  THRREF  =  1.00D-05  SPARFAC =  1.00D+00  THRDLP  =  1.00D-07
 THRDIA  =  1.00D-10  THRDLS  =  1.00D-07  THRGPS  =  0.00D+00  THRKEX  =  0.00D+00  THRDIS  =  2.00D-01  THRVAR  =  1.00D-10
 THRLOC  =  1.00D-06  THRGAP  =  1.00D-06  THRLOCT = -1.00D+00  THRGAPT = -1.00D+00  THRORB  =  1.00D-06  THRMLTP =  0.00D+00
 THRCPQCI=  1.00D-10  KEXTA   =  0.00D+00  THRCOARS=  0.00D+00  SYMTOL  =  1.00D-06  GRADTOL =  1.00D-06  THROVL  =  1.00D-08
 THRORTH =  1.00D-08  GRID    =  1.00D-06  GRIDMAX =  1.00D-03  DTMAX   =  0.00D+00

 SETTING GEOMTYP        =    XYZ
 ZUNIT=BOHR
 

 Variable memory set to 1000000000 words,  buffer space   230000 words

 SETTING BASIS          =    AUG-CC-PVDZ


 Recomputing integrals since basis changed


 Using spherical harmonics

 Library entry N      S aug-cc-pVDZ          selected for orbital group  1
 Library entry N      P aug-cc-pVDZ          selected for orbital group  1
 Library entry N      D aug-cc-pVDZ          selected for orbital group  1
 Library entry H      S aug-cc-pVDZ          selected for orbital group  2
 Library entry H      P aug-cc-pVDZ          selected for orbital group  2

1PROGRAM * SEWARD (Integral evaluation for generally contracted gaussian basis sets)     Author: Roland Lindh, 1990

 Geometry written to block  1 of record 700


 Point group  C1  



 ATOMIC COORDINATES

 NR  ATOM    CHARGE       X              Y              Z

   1  N       7.00   -0.098259365    3.366729905   -0.003796303
   2  H       1.00    0.730532866    4.176591553   -1.532235546
   3  H       1.00    0.711284337    4.178378220    1.533982934
   4  H       1.00    0.428424256    1.515993751    0.000588425
   5  N       7.00   -0.132855079   -2.765166624   -0.000440463
   6  H       1.00    0.178912489   -3.867928258   -1.538570037
   7  H       1.00   -2.008128156   -2.356521466    0.006674199
   8  H       1.00    0.190088650   -3.870131883    1.533796791

 Bond lengths in Bohr (Angstrom)

 1-2  1.918045613  1-3  1.918045613  1-4  1.924224304  5-6  1.918104487  5-7  1.919294297
     ( 1.014986024)     ( 1.014986024)     ( 1.018255647)     ( 1.015017179)     ( 1.015646800)

 5-8  1.918104487
     ( 1.015017179)

 Bond angles

  2-1-3  106.13117683   2-1-4  106.83708423   3-1-4  106.83708425   6-5-7  106.51062775

  6-5-8  106.43067691   7-5-8  106.51062776

 NUCLEAR CHARGE:                   20
 NUMBER OF PRIMITIVE AOS:         140
 NUMBER OF SYMMETRY AOS:          136
 NUMBER OF CONTRACTIONS:          100   ( 100A   )
 NUMBER OF CORE ORBITALS:           2   (   2A   )
 NUMBER OF VALENCE ORBITALS:       14   (  14A   )


 NUCLEAR REPULSION ENERGY   39.78299460


 Eigenvalues of metric

         1 0.120E-02 0.176E-02 0.182E-02 0.195E-02 0.214E-02 0.245E-02 0.362E-02 0.662E-02


 Contracted 2-electron integrals neglected if value below      1.0D-16
 AO integral compression algorithm  1   Integral accuracy      1.0D-16

     115.081 MB (compressed) written to integral file ( 94.2%)

     Node minimum: 115.081 MB, node maximum: 115.081 MB


 NUMBER OF SORTED TWO-ELECTRON INTEGRALS:   12753775.     BUFFER LENGTH:  32768
 NUMBER OF SEGMENTS:   1  SEGMENT LENGTH:   12753775      RECORD LENGTH: 524288

 Memory used in sort:      13.31 MW

 SORT1 READ    15257586. AND WROTE    12666982. INTEGRALS IN     37 RECORDS. CPU TIME:     0.13 SEC, REAL TIME:     0.22 SEC
 SORT2 READ    12666982. AND WROTE    12753775. INTEGRALS IN    439 RECORDS. CPU TIME:     0.14 SEC, REAL TIME:     0.20 SEC

 FILE SIZES:   FILE 1:   100.8 MBYTE,  FILE 4:   155.2 MBYTE,   TOTAL:    256.0 MBYTE

 OPERATOR DM      FOR CENTER  0  COORDINATES:    0.000000    0.000000    0.000000


 **********************************************************************************************************************************
 DATASETS  * FILE   NREC   LENGTH (MB)   RECORD NAMES
              1      19      100.91       500      610      700      900      950      970     1000      129      960     1100   
                                          VAR    BASINP    GEOM    SYMINP    ZMAT    AOBASIS   BASIS     P2S    ABASIS      S 
                                         1400     1410     1200     1210     1080     1600     1650     1300     1700   
                                           T        V       H0       H01     AOSYM     SMH    MOLCAS    ERIS     OPER   

 PROGRAMS   *        TOTAL       INT
 CPU TIMES  *         0.93      0.89
 REAL TIME  *         1.38 SEC
 DISK USED  *       371.80 MB      
 GA USED    *         0.00 MB       (max)       0.00 MB       (current)
 **********************************************************************************************************************************

1PROGRAM * RHF-SCF (CLOSED SHELL)       Authors: W. Meyer, H.-J. Werner


 NUMBER OF ELECTRONS:      10+   10-    SPACE SYMMETRY=1    SPIN SYMMETRY: Singlet 
 CONVERGENCE THRESHOLDS:    1.00E-10 (Density)    1.00E-13 (Energy)
 MAX. NUMBER OF ITERATIONS:      200
 INTERPOLATION TYPE:            DIIS
 INTERPOLATION STEPS:              2 (START)      1 (STEP)
 LEVEL SHIFTS:                  0.00 (CLOSED)  0.00 (OPEN) 



 Orbital guess generated from atomic densities. Full valence occupancy:   16

 Molecular orbital dump at record        2100.2

 ITERATION    DDIFF          GRAD             ENERGY        2-EL.EN.            DIPOLE MOMENTS         DIIS
    1      0.000D+00      0.000D+00      -112.36611435    160.234503    0.37416   -0.95109    0.00696    0
    2      0.000D+00      0.599D-02      -112.40457834    156.046024    0.21103   -0.71990    0.00404    1
    3      0.116D-01      0.282D-02      -112.41297260    157.805886    0.26422   -0.76321    0.00481    2
    4      0.386D-02      0.477D-03      -112.41342215    157.601908    0.26715   -0.75932    0.00482    3
    5      0.903D-03      0.975D-04      -112.41344481    157.621612    0.26922   -0.75961    0.00483    4
    6      0.164D-03      0.175D-04      -112.41344587    157.622990    0.27001   -0.76027    0.00484    5
    7      0.349D-04      0.384D-05      -112.41344591    157.622733    0.27024   -0.76038    0.00484    6
    8      0.748D-05      0.157D-05      -112.41344591    157.622779    0.27026   -0.76047    0.00484    7
    9      0.345D-05      0.398D-06      -112.41344591    157.622784    0.27028   -0.76049    0.00484    6
   10      0.933D-06      0.974D-07      -112.41344591    157.622772    0.27028   -0.76049    0.00484    6
   11      0.261D-06      0.227D-07      -112.41344591    157.622782    0.27028   -0.76049    0.00484    7
   12      0.663D-07      0.776D-08      -112.41344591    157.622778    0.27028   -0.76049    0.00484    7
   13      0.179D-07      0.231D-08      -112.41344591    157.622779    0.27028   -0.76049    0.00484    7
   14      0.479D-08      0.540D-09      -112.41344591    157.622779    0.27028   -0.76049    0.00484    7
   15      0.117D-08      0.131D-09      -112.41344591    157.622779    0.27028   -0.76049    0.00484    7
   16      0.305D-09      0.380D-10      -112.41344591    157.622779    0.27028   -0.76049    0.00484    7
   17      0.624D-10      0.136D-10      -112.41344591    157.622779    0.27028   -0.76049    0.00484    7
   18      0.307D-10      0.342D-11      -112.41344591    157.622779    0.27028   -0.76049    0.00484    7
   19      0.814D-11      0.973D-12      -112.41344591    157.622779    0.27028   -0.76049    0.00484    7
   20      0.248D-11      0.239D-12      -112.41344591    157.622779    0.27028   -0.76049    0.00484    7
   21      0.770D-12      0.103D-12      -112.41344591    157.622779    0.27028   -0.76049    0.00484    7
   22      0.391D-12      0.365D-13      -112.41344591    157.622779    0.27028   -0.76049    0.00484    8
   23      0.300D-12      0.281D-13      -112.41344591    157.622779    0.27028   -0.76049    0.00484    8
   24      0.214D-12      0.304D-13      -112.41344591    157.622779    0.27028   -0.76049    0.00484    0

 Final occupancy:  10

 !RHF STATE 1.1 Energy               -112.413445913472
 Nuclear energy                        39.78299460
 One-electron energy                 -231.00783011
 Two-electron energy                   78.81138960
 Virial quotient                       -1.00226498
 !RHF STATE 1.1 Dipole moment           0.27028040    -0.76048988     0.00484336
 Dipole moment /Debye                   0.68693925    -1.93284587     0.01230978

 Orbital energies:

         1.1          2.1          3.1          4.1          5.1          6.1          7.1          8.1          9.1         10.1
    -15.560393   -15.528614    -1.152543    -1.119905    -0.638167    -0.635827    -0.605459    -0.604346    -0.440010    -0.407260

        11.1         12.1
      0.032483     0.052548


 **********************************************************************************************************************************
 DATASETS  * FILE   NREC   LENGTH (MB)   RECORD NAMES
              1      19      100.91       500      610      700      900      950      970     1000      129      960     1100   
                                          VAR    BASINP    GEOM    SYMINP    ZMAT    AOBASIS   BASIS     P2S    ABASIS      S 
                                         1400     1410     1200     1210     1080     1600     1650     1300     1700   
                                           T        V       H0       H01     AOSYM     SMH    MOLCAS    ERIS     OPER   

              2       3        0.59       700     1000     2100   
                                         GEOM     BASIS     RHF  

 PROGRAMS   *        TOTAL       RHF       INT
 CPU TIMES  *         3.19      2.26      0.89
 REAL TIME  *         4.01 SEC
 DISK USED  *       371.80 MB      
 GA USED    *         0.00 MB       (max)       0.00 MB       (current)
 **********************************************************************************************************************************


1PROGRAM * CCSD (Closed-shell coupled cluster)     Authors: C. Hampel, H.-J. Werner, 1991, M. Deegan, P.J. Knowles, 1992


 Convergence thresholds:  THRVAR = 1.00D-08  THRDEN = 1.00D-12

 CCSD(T)     terms to be evaluated (factor= 1.000)


 Number of core orbitals:           2 (   2 )
 Number of closed-shell orbitals:   8 (   8 )
 Number of external orbitals:      90 (  90 )

 Molecular orbitals read from record     2100.2  Type=RHF/CANONICAL (state 1.1)

 Number of N-1 electron functions:               8
 Number of N-2 electron functions:              36
 Number of singly external CSFs:               720
 Number of doubly external CSFs:            259560
 Total number of CSFs:                      260281

 Length of J-op  integral file:               0.00 MB
 Length of K-op  integral file:               0.72 MB
 Length of 3-ext integral record:             0.00 MB

 Memory could be reduced to 8.71 Mwords without degradation in triples

 Integral transformation finished. Total CPU:   0.37 sec, npass=  1  Memory used:   5.38 MW

 Reference energy:                   -112.41344591

 MP2 singlet pair energy:              -0.26149075
 MP2 triplet pair energy:              -0.14047385
 MP2 correlation energy:               -0.40196460
 MP2 total energy:                   -112.81541051

 SCS-MP2 correlation energy:           -0.40119485   (PS=  1.200000  PT=  0.333333)
 SCS-MP2 total energy:               -112.81464076

 ITER.      SQ.NORM     CORR.ENERGY   TOTAL ENERGY   ENERGY CHANGE        DEN1      VAR(S)    VAR(P)  DIIS     TIME
   1      1.13780343    -0.42917820  -112.84262412    -0.02721361    -0.01760255  0.13D-02  0.19D-02  1  1     0.87
   2      1.14811150    -0.43139324  -112.84483916    -0.00221504    -0.01012777  0.18D-04  0.20D-03  2  2     1.39
   3      1.15079321    -0.43156226  -112.84500817    -0.00016901    -0.00149906  0.18D-04  0.10D-04  3  3     1.92
   4      1.15159178    -0.43156665  -112.84501257    -0.00000439    -0.00029557  0.14D-05  0.93D-06  4  4     2.46
   5      1.15179898    -0.43156023  -112.84500614     0.00000642    -0.00005757  0.27D-06  0.84D-07  5  5     2.99
   6      1.15185522    -0.43155712  -112.84500303     0.00000311    -0.00000787  0.34D-07  0.74D-08  6  6     3.52
   7      1.15187179    -0.43155644  -112.84500235     0.00000068    -0.00000153  0.43D-08  0.17D-08  6  1     4.05
   8      1.15187714    -0.43155626  -112.84500217     0.00000018    -0.00000001  0.86D-09  0.20D-09  6  2     4.58
   9      1.15187859    -0.43155618  -112.84500209     0.00000008     0.00000032  0.15D-09  0.43D-10  6  4     5.11
  10      1.15187915    -0.43155617  -112.84500208     0.00000001    -0.00000002  0.31D-10  0.65D-11  6  3     5.64
  11      1.15187915    -0.43155618  -112.84500209    -0.00000001     0.00000001  0.56D-11  0.15D-11  6  5     6.18
  12      1.15187909    -0.43155618  -112.84500209    -0.00000000    -0.00000000  0.54D-12  0.24D-12  6  6     6.72
  13      1.15187899    -0.43155619  -112.84500210    -0.00000000     0.00000002  0.31D-13  0.40D-13  6  2     7.25
  14      1.15187896    -0.43155619  -112.84500210    -0.00000000     0.00000001  0.46D-14  0.28D-14  6  1     7.79
  15      1.15187896    -0.43155619  -112.84500210    -0.00000000     0.00000000  0.10D-14  0.31D-15  6  4     8.33
  16      1.15187895    -0.43155619  -112.84500210    -0.00000000     0.00000000  0.19D-15  0.65D-16  6  3     8.85
  17      1.15187895    -0.43155619  -112.84500210    -0.00000000     0.00000000  0.30D-16  0.82D-17  6  5     9.39
  18      1.15187895    -0.43155619  -112.84500210    -0.00000000    -0.00000000  0.58D-17  0.16D-17  6  6     9.93
  19      1.15187895    -0.43155619  -112.84500210     0.00000000    -0.00000000  0.14D-17  0.34D-18  6  2    10.46
  20      1.15187895    -0.43155619  -112.84500210     0.00000000    -0.00000000  0.42D-18  0.89D-19  6  1    10.99
  21      1.15187895    -0.43155619  -112.84500210     0.00000000     0.00000000  0.90D-19  0.22D-19  6  4    11.53
  22      1.15187895    -0.43155619  -112.84500210     0.00000000    -0.00000000  0.13D-19  0.43D-20  6  5    12.06

 Norm of t1 vector:      0.05623244      S-energy:    -0.00000000      T1 diagnostic:  0.00994058
                                                                       D1 diagnostic:  0.02457101


 Total CPU time for triples:      5.42 sec


 RESULTS
 =======

  Reference energy                   -112.413445913472
  CCSD singlet pair energy             -0.303494523559
  CCSD triplet pair energy             -0.128061663180
  CCSD correlation energy              -0.431556186739

  Triples (T) contribution             -0.011409744423
  Total correlation energy             -0.442965931162

  CCSD total energy                  -112.845002100211
  CCSD[T] energy                     -112.856805996933
  CCSD-T energy                      -112.856201532972
 !CCSD(T) total energy               -112.856411844634

 Timing summary (sec):

 STEP                 CPU(USER)    SYS     CPU(TOT)    WALL
 Transformation          0.38      0.06      0.44      0.44
 CCSD iterations        11.68      0.58     12.26     12.31
 Triples                 5.42      0.11      5.53      5.53

 Program statistics:

 Available memory in ccsd:               999999644
 Min. memory needed in ccsd:                815289
 Max. memory used in ccsd:                 1030049
 Max. memory used in cckext:                821402 (22 integral passes)



 **********************************************************************************************************************************
 DATASETS  * FILE   NREC   LENGTH (MB)   RECORD NAMES
              1      20      129.02       500      610      700      900      950      970     1000      129      960     1100   
                                          VAR    BASINP    GEOM    SYMINP    ZMAT    AOBASIS   BASIS     P2S    ABASIS      S 
                                         1400     1410     1200     1210     1080     1600     1650     1300     1700     1380   
                                           T        V       H0       H01     AOSYM     SMH    MOLCAS    ERIS     OPER     JKOP   

              2       3        0.59       700     1000     2100   
                                         GEOM     BASIS     RHF  

 PROGRAMS   *        TOTAL   CCSD(T)       RHF       INT
 CPU TIMES  *        20.68     17.49      2.26      0.89
 REAL TIME  *        22.32 SEC
 DISK USED  *       371.80 MB      
 GA USED    *         0.00 MB       (max)       0.00 MB       (current)
 **********************************************************************************************************************************

        CCSD(T)         RHF-SCF 
   -112.85641184   -112.41344591
 **********************************************************************************************************************************
 Variable memory released
