
    -----------------------------------------------------------------------
          Psi4: An Open-Source Ab Initio Electronic Structure Package
                               Psi4 1.4a2.dev629 

                         Git: Rev {master} 2938fc2 dirty


    D. G. A. Smith, L. A. Burns, A. C. Simmonett, R. M. Parrish,
    M. C. Schieber, R. Galvelis, P. Kraus, H. Kruse, R. Di Remigio,
    A. Alenaizan, A. M. James, S. Lehtola, J. P. Misiewicz, M. Scheurer,
    R. A. Shaw, J. B. Schriber, Y. Xie, Z. L. Glick, D. A. Sirianni,
    J. S. O'Brien, J. M. Waldrop, A. Kumar, E. G. Hohenstein,
    B. P. Pritchard, B. R. Brooks, H. F. Schaefer III, A. Yu. Sokolov,
    K. Patkowski, A. E. DePrince III, U. Bozkaya, R. A. King,
    F. A. Evangelista, J. M. Turney, T. D. Crawford, C. D. Sherrill,
    J. Chem. Phys. 152(18) 184108 (2020). https://doi.org/10.1063/5.0006002

                            Additional Code Authors
    E. T. Seidl, C. L. Janssen, E. F. Valeev, M. L. Leininger,
    J. F. Gonthier, R. M. Richard, H. R. McAlexander, M. Saitow, X. Wang,
    P. Verma, and M. H. Lechner

             Previous Authors, Complete List of Code Contributors,
                       and Citations for Specific Modules
    https://github.com/psi4/psi4/blob/master/codemeta.json
    https://github.com/psi4/psi4/graphs/contributors
    http://psicode.org/psi4manual/master/introduction.html#citing-psifour

    -----------------------------------------------------------------------


    Psi4 started on: Monday, 15 November 2021 12:17PM

    Process ID: 5625
    Host:       n090
    PSIDATADIR: /opt/psi/4/master/share/psi4
    Memory:     500.0 MiB
    Threads:    4
    
  ==> Input File <==

--------------------------------------------------------------------------
import os
memory 14 GB 
 
molecule {
 X    1.0000000000    1.1451609600    0.0000000000
 C    0.0022612548    1.1451639026   -0.0020604629
 X   -0.0000000000    1.1451609600    1.0000000000
 X    1.0000000000   -1.1451609600   -0.0000000000
 C   -0.0003865390   -1.1451512606    0.0028323784
 X    0.0000000000   -1.1451609600    1.0000000000
 C   -0.0019841326    3.9183124300   -0.0036971533
 C    0.0031776941   -3.9182998419    0.0000576246
 H   -1.6662317079    4.6556738145   -0.9647616066
 H   -0.0019597381    4.6396309788    1.9304221994
 H    1.6685639084    4.6539309164   -0.9683960069
 H    1.6717552631   -4.6435648385   -0.9621703026
 H   -1.6726886664   -4.6456292162   -0.9598390008
 H   -0.0025073264   -4.6600668851    1.9276123207
units bohr
}

basis {

assign 6-31g_2dfp_

[ 6-31g_2dfp_ ]

spherical

!----------------------------------------------------------------------
! Basis Set Exchange
! Version v0.8.13
! https://www.basissetexchange.org
!----------------------------------------------------------------------
!   Basis set: 6-31G(2df,p)
! Description: 6-31G(2df,p)
!        Role: orbital
!     Version: 0  (Data from the original Basis Set Exchange)
!----------------------------------------------------------------------


****
H     0
S    3   1.00
     18.7311370              0.03349460
      2.8253937              0.23472695
      0.6401217              0.81375733
S    1   1.00
      0.1612778              1.00000000
P    1   1.00
      1.5000000              1.0000000
P    1   1.00
      0.3750000              1.0000000
****
B     0
S    6   1.00
   2068.8823000              0.0018663
    310.6495700              0.0142515
     70.6830330              0.0695516
     19.8610800              0.2325729
      6.2993048              0.4670787
      2.1270270              0.3634314
SP   3   1.00
      4.7279710             -0.1303938              0.0745976
      1.1903377             -0.1307889              0.3078467
      0.3594117              1.1309444              0.7434568
SP   1   1.00
      0.1267512              1.0000000              1.0000000
D    1   1.00
      0.8020000              1.0000000
D    1   1.00
      0.2005000              1.0000000
F    1   1.00
      0.5000000              1.0000000
****
C     0
S    6   1.00
   3047.5249000              0.0018347
    457.3695100              0.0140373
    103.9486900              0.0688426
     29.2101550              0.2321844
      9.2866630              0.4679413
      3.1639270              0.3623120
SP   3   1.00
      7.8682724             -0.1193324              0.0689991
      1.8812885             -0.1608542              0.3164240
      0.5442493              1.1434564              0.7443083
SP   1   1.00
      0.1687144              1.0000000              1.0000000
D    1   1.00
      1.2520000              1.0000000
D    1   1.00
      0.3130000              1.0000000
F    1   1.00
      0.8000000              1.0000000
****
N     0
S    6   1.00
   4173.5110000              0.0018348
    627.4579000              0.0139950
    142.9021000              0.0685870
     40.2343300              0.2322410
     12.8202100              0.4690700
      4.3904370              0.3604550
SP   3   1.00
     11.6263580             -0.1149610              0.0675800
      2.7162800             -0.1691180              0.3239070
      0.7722180              1.1458520              0.7408950
SP   1   1.00
      0.2120313              1.0000000              1.0000000
D    1   1.00
      1.8260000              1.0000000
D    1   1.00
      0.4565000              1.0000000
F    1   1.00
      1.0000000              1.0000000
****
O     0
S    6   1.00
   5484.6717000              0.0018311
    825.2349500              0.0139501
    188.0469600              0.0684451
     52.9645000              0.2327143
     16.8975700              0.4701930
      5.7996353              0.3585209
SP   3   1.00
     15.5396160             -0.1107775              0.0708743
      3.5999336             -0.1480263              0.3397528
      1.0137618              1.1307670              0.7271586
SP   1   1.00
      0.2700058              1.0000000              1.0000000
D    1   1.00
      2.5840000              1.0000000
D    1   1.00
      0.6460000              1.0000000
F    1   1.00
      1.4000000              1.0000000
****
F     0
S    6   1.00
   7001.7130900              0.0018196169
   1051.3660900              0.0139160796
    239.2856900              0.0684053245
     67.3974453              0.233185760
     21.5199573              0.471267439
      7.40310130             0.356618546
SP   3   1.00
     20.8479528             -0.108506975            0.0716287243
      4.80830834            -0.146451658            0.3459121030
      1.34406986             1.128688580            0.7224699570
SP   1   1.00
      0.358151393            1.0000000              1.0000000
D    1   1.00
      3.5000000              1.0000000
D    1   1.00
      0.8750000              1.0000000
F    1   1.00
      1.8500000              1.0000000
****
Al     0
S    6   1.00
  13983.1000000              0.00194267
   2098.7500000              0.0148599
    477.7050000              0.0728494
    134.3600000              0.2468300
     42.8709000              0.4872580
     14.5189000              0.3234960
SP   6   1.00
    239.6680000             -0.00292619             0.00460285
     57.4419000             -0.0374080              0.0331990
     18.2859000             -0.1144870              0.1362820
      6.5991400              0.1156350              0.3304760
      2.4904900              0.6125950              0.4491460
      0.9445400              0.3937990              0.2657040
SP   3   1.00
      1.2779000             -0.2276060             -0.0175130
      0.3975900              0.00144583             0.2445330
      0.1600950              1.0927900              0.8049340
SP   1   1.00
      0.0556577              1.0000000              1.0000000
D    1   1.00
      0.6500000              1.0000000
D    1   1.00
      0.1625000              1.0000000
F    1   1.00
      0.2500000              1.0000000
****
Si     0
S    6   1.00
  16115.9000000              0.00195948
   2425.5800000              0.01492880
    553.8670000              0.07284780
    156.3400000              0.24613000
     50.0683000              0.48591400
     17.0178000              0.32500200
SP   6   1.00
    292.7180000             -0.00278094             0.00443826
     69.8731000             -0.03571460             0.03266790
     22.3363000             -0.11498500             0.13472100
      8.1503900              0.09356340             0.32867800
      3.1345800              0.60301700             0.44964000
      1.2254300              0.41895900             0.26137200
SP   3   1.00
      1.7273800             -0.24463000            -0.01779510
      0.5729220              0.00431572             0.25353900
      0.2221920              1.09818000             0.80066900
SP   1   1.00
      0.0778369              1.00000000             1.00000000
D    1   1.00
      0.9000000              1.0000000
D    1   1.00
      0.2250000              1.0000000
F    1   1.00
      0.3200000              1.0000000
****
P     0
S    6   1.00
  19413.3000000              0.0018516
   2909.4200000              0.0142062
    661.3640000              0.0699995
    185.7590000              0.2400790
     59.1943000              0.4847620
     20.0310000              0.3352000
SP   6   1.00
    339.4780000             -0.00278217             0.00456462
     81.0101000             -0.0360499              0.03369360
     25.8780000             -0.1166310              0.13975500
      9.4522100              0.0968328              0.33936200
      3.6656600              0.6144180              0.45092100
      1.4674600              0.4037980              0.23858600
SP   3   1.00
      2.1562300             -0.2529230             -0.01776530
      0.7489970              0.0328517              0.27405800
      0.2831450              1.0812500              0.78542100
SP   1   1.00
      0.0998317              1.0000000              1.00000000
D    1   1.00
      1.1000000              1.0000000
D    1   1.00
      0.2750000              1.0000000
F    1   1.00
      0.4500000              1.0000000
****
S     0
S    6   1.00
  21917.1000000              0.0018690
   3301.4900000              0.0142300
    754.1460000              0.0696960
    212.7110000              0.2384870
     67.9896000              0.4833070
     23.0515000              0.3380740
SP   6   1.00
    423.7350000             -0.0023767              0.0040610
    100.7100000             -0.0316930              0.0306810
     32.1599000             -0.1133170              0.1304520
     11.8079000              0.0560900              0.3272050
      4.6311000              0.5922550              0.4528510
      1.8702500              0.4550060              0.2560420
SP   3   1.00
      2.6158400             -0.2503740             -0.0145110
      0.9221670              0.0669570              0.3102630
      0.3412870              1.0545100              0.7544830
SP   1   1.00
      0.1171670              1.0000000              1.0000000
D    1   1.00
      1.3000000              1.0000000
D    1   1.00
      0.3250000              1.0000000
F    1   1.00
      0.5500000              1.0000000
****
Cl     0
S    6   1.00
  25180.1000000              0.0018330
   3780.3500000              0.0140340
    860.4740000              0.0690970
    242.1450000              0.2374520
     77.3349000              0.4830340
     26.2470000              0.3398560
SP   6   1.00
    491.7650000             -0.0022974              0.0039894
    116.9840000             -0.0307140              0.0303180
     37.4153000             -0.1125280              0.1298800
     13.7834000              0.0450160              0.3279510
      5.4521500              0.5893530              0.4535270
      2.2258800              0.4652060              0.2521540
SP   3   1.00
      3.1864900             -0.2518300             -0.0142990
      1.1442700              0.0615890              0.3235720
      0.4203770              1.0601800              0.7435070
SP   1   1.00
      0.1426570              1.0000000              1.0000000
D    1   1.00
      1.5000000              1.0000000
D    1   1.00
      0.3750000              1.0000000
F    1   1.00
      0.7000000              1.0000000
****
}


set {
reference rhf                          
freeze_core true
e_convergence 10                       
d_convergence 10                      
dft_spherical_points 1202
dft_radial_points 99
}

e = energy('b3lyp')

print_out('Grab this energy {0}'.format(e))
--------------------------------------------------------------------------

  Memory set to  13.039 GiB by Python driver.

Scratch directory: /tmp/

*** tstart() called on n090
*** at Mon Nov 15 12:17:48 2021

   => Loading Basis Set <=

    Name: ANONYMOUS3B1EFB3B
    Role: ORBITAL
    Keyword: BASIS
    atoms 1-4  entry C          line    48 inputblock 6-31g_2dfp_ 
    atoms 5-10 entry H          line    15 inputblock 6-31g_2dfp_ 


         ---------------------------------------------------------
                                   SCF
               by Justin Turney, Rob Parrish, Andy Simmonett
                          and Daniel G. A. Smith
                              RKS Reference
                        4 Threads,  13351 MiB Core
         ---------------------------------------------------------

  ==> Geometry <==

    Molecular point group: c1
    Full point group: C1

    Geometry (in Bohr), charge = 0, multiplicity = 1:

       Center              X                  Y                   Z               Mass       
    ------------   -----------------  -----------------  -----------------  -----------------
         C            0.001637222345     1.145158771253    -0.001477241904    12.000000000000
         C           -0.001010571455    -1.145156391947     0.003415599396    12.000000000000
         C           -0.002608165055     3.918307298653    -0.003113932304    12.000000000000
         C            0.002553661645    -3.918304973247     0.000640845596    12.000000000000
         H           -1.666855740355     4.655668683153    -0.964178385604     1.007825032230
         H           -0.002583770555     4.639625847453     1.931005420396     1.007825032230
         H            1.667939875945     4.653925785053    -0.967812785904     1.007825032230
         H            1.671131230645    -4.643569969847    -0.961587081604     1.007825032230
         H           -1.673312698855    -4.645634347547    -0.959255779804     1.007825032230
         H           -0.003131358855    -4.660072016447     1.928195541696     1.007825032230

  Running in c1 symmetry.

  Rotational constants: A =      2.67724  B =      0.11109  C =      0.11108 [cm^-1]
  Rotational constants: A =  80261.63157  B =   3330.34936  C =   3330.09978 [MHz]
  Nuclear repulsion =   99.669914995748314

  Charge       = 0
  Multiplicity = 1
  Electrons    = 30
  Nalpha       = 15
  Nbeta        = 15

  ==> Algorithm <==

  SCF Algorithm Type is DF.
  DIIS enabled.
  MOM disabled.
  Fractional occupation disabled.
  Guess Type is SAD.
  Energy threshold   = 1.00e-10
  Density threshold  = 1.00e-10
  Integral threshold = 0.00e+00

  ==> Primary Basis <==

  Basis Set: ANONYMOUS3B1EFB3B
    Blend: 6-31G_2DFP_
    Number of shells: 56
    Number of basis function: 152
    Number of Cartesian functions: 172
    Spherical Harmonics?: true
    Max angular momentum: 3

  ==> DFT Potential <==

   => Composite Functional: B3LYP <= 

    B3LYP Hyb-GGA Exchange-Correlation Functional

    P. J. Stephens, F. J. Devlin, C. F. Chabalowski, and M. J. Frisch, J. Phys. Chem. 98, 11623 (1994)

    Deriv               =              1
    GGA                 =           TRUE
    Meta                =          FALSE

    Exchange Hybrid     =           TRUE
    MP2 Hybrid          =          FALSE

   => Exchange Functionals <=

    0.0800   Slater exchange
    0.7200         Becke 88

   => Exact (HF) Exchange <=

    0.2000               HF 

   => Correlation Functionals <=

    0.1900   Vosko, Wilk & Nusair (VWN5_RPA)
    0.8100   Lee, Yang & Parr

   => Molecular Quadrature <=

    Radial Scheme          =       TREUTLER
    Pruning Scheme         =           NONE
    Nuclear Scheme         =       TREUTLER

    BS radius alpha        =              1
    Pruning alpha          =              1
    Radial Points          =             99
    Spherical Points       =           1202
    Total Points           =        1119182
    Total Blocks           =           7622
    Max Points             =            256
    Max Functions          =            142
    Weights Tolerance      =       1.00E-15

   => Loading Basis Set <=

    Name: (ANONYMOUS3B1EFB3B AUX)
    Role: JKFIT
    Keyword: DF_BASIS_SCF
    atoms 1-4  entry C          line   198 file /opt/psi/4/master/share/psi4/basis/def2-universal-jkfit.gbs 
    atoms 5-10 entry H          line    18 file /opt/psi/4/master/share/psi4/basis/def2-universal-jkfit.gbs 

  ==> Integral Setup <==

  DFHelper Memory: AOs need 0.073 GiB; user supplied 6.182 GiB. Using in-core AOs.

  ==> MemDFJK: Density-Fitted J/K Matrices <==

    J tasked:                   Yes
    K tasked:                   Yes
    wK tasked:                   No
    OpenMP threads:               4
    Memory [MiB]:              6330
    Algorithm:                 Core
    Schwarz Cutoff:           1E-12
    Mask sparsity (%):       5.2026
    Fitting Condition:        1E-10

   => Auxiliary Basis Set <=

  Basis Set: (ANONYMOUS3B1EFB3B AUX)
    Blend: DEF2-UNIVERSAL-JKFIT
    Number of shells: 136
    Number of basis function: 408
    Number of Cartesian functions: 476
    Spherical Harmonics?: true
    Max angular momentum: 4

  Cached 100.0% of DFT collocation blocks in 3.597 [GiB].

  Minimum eigenvalue in the overlap matrix is 5.3581325979E-05.
  Reciprocal condition number of the overlap matrix is 9.8700152831E-06.
    Using symmetric orthogonalization.

  ==> Pre-Iterations <==

  SCF Guess: Superposition of Atomic Densities via on-the-fly atomic UHF (no occupation information).

   -------------------------
    Irrep   Nso     Nmo    
   -------------------------
     A        152     152 
   -------------------------
    Total     152     152
   -------------------------

  ==> Iterations <==

                           Total Energy        Delta E     RMS |[F,P]|

   @DF-RKS iter SAD:  -155.26466294905242   -1.55265e+02   0.00000e+00 
   @DF-RKS iter   1:  -155.68453105952327   -4.19868e-01   4.88023e-03 DIIS
   @DF-RKS iter   2:  -155.69625463518753   -1.17236e-02   4.70968e-03 DIIS
   @DF-RKS iter   3:  -155.99061322551970   -2.94359e-01   2.22316e-04 DIIS
   @DF-RKS iter   4:  -155.99117223457517   -5.59009e-04   6.35989e-05 DIIS
   @DF-RKS iter   5:  -155.99120606585805   -3.38313e-05   2.39572e-05 DIIS
   @DF-RKS iter   6:  -155.99121333560689   -7.26975e-06   3.53695e-06 DIIS
   @DF-RKS iter   7:  -155.99121347990791   -1.44301e-07   2.11457e-07 DIIS
   @DF-RKS iter   8:  -155.99121347929332    6.14591e-10   3.07962e-07 DIIS
   @DF-RKS iter   9:  -155.99121348039614   -1.10282e-09   2.36506e-08 DIIS
   @DF-RKS iter  10:  -155.99121348040293   -6.79279e-12   3.46143e-09 DIIS
   @DF-RKS iter  11:  -155.99121348040271    2.27374e-13   6.52193e-10 DIIS
   @DF-RKS iter  12:  -155.99121348040308   -3.69482e-13   4.40457e-11 DIIS
  Energy and wave function converged.


  ==> Post-Iterations <==

    Orbital Energies [Eh]
    ---------------------

    Doubly Occupied:                                                      

       1A    -10.194179     2A    -10.194148     3A    -10.163841  
       4A    -10.161608     5A     -0.774038     6A     -0.738642  
       7A     -0.660074     8A     -0.472697     9A     -0.426762  
      10A     -0.426222    11A     -0.425143    12A     -0.415228  
      13A     -0.414552    14A     -0.241510    15A     -0.241390  

    Virtual:                                                              

      16A      0.066475    17A      0.066597    18A      0.101711  
      19A      0.102137    20A      0.158467    21A      0.158895  
      22A      0.192500    23A      0.192760    24A      0.203998  
      25A      0.250883    26A      0.368952    27A      0.385820  
      28A      0.434380    29A      0.434608    30A      0.448814  
      31A      0.449124    32A      0.475010    33A      0.475211  
      34A      0.568458    35A      0.568839    36A      0.578782  
      37A      0.578912    38A      0.596679    39A      0.597238  
      40A      0.605144    41A      0.612469    42A      0.652277  
      43A      0.652373    44A      0.668653    45A      0.679104  
      46A      0.692400    47A      0.692640    48A      0.859140  
      49A      0.859159    50A      0.877644    51A      0.877789  
      52A      0.922231    53A      0.952164    54A      0.952472  
      55A      1.005457    56A      1.005617    57A      1.041771  
      58A      1.167397    59A      1.174938    60A      1.194970  
      61A      1.195104    62A      1.257299    63A      1.257621  
      64A      1.330594    65A      1.357650    66A      1.375564  
      67A      1.376943    68A      1.384493    69A      1.385431  
      70A      1.395855    71A      1.471519    72A      1.472000  
      73A      1.506014    74A      1.506408    75A      1.556682  
      76A      1.668521    77A      1.668893    78A      1.696696  
      79A      1.742705    80A      1.861885    81A      1.864192  
      82A      1.872699    83A      1.946113    84A      1.947660  
      85A      2.539832    86A      2.617986    87A      2.672422  
      88A      2.690825    89A      2.758640    90A      2.759336  
      91A      2.771524    92A      2.771666    93A      2.903699  
      94A      2.914339    95A      2.915033    96A      2.937835  
      97A      2.997099    98A      2.998032    99A      3.011220  
     100A      3.011699   101A      3.017651   102A      3.077378  
     103A      3.101245   104A      3.112109   105A      3.112831  
     106A      3.144616   107A      3.145287   108A      3.145516  
     109A      3.263374   110A      3.264688   111A      3.345128  
     112A      3.346201   113A      3.453915   114A      3.454669  
     115A      3.456191   116A      3.462131   117A      3.526381  
     118A      3.527470   119A      3.544872   120A      3.545189  
     121A      3.788373   122A      3.818776   123A      3.840868  
     124A      3.841801   125A      3.940041   126A      4.053713  
     127A      4.053862   128A      4.151708   129A      4.152590  
     130A      4.244280   131A      4.246779   132A      4.254508  
     133A      4.299558   134A      4.300105   135A      4.355382  
     136A      4.391530   137A      4.391813   138A      4.400913  
     139A      4.618290   140A      4.619238   141A      4.630233  
     142A      4.632917   143A      4.949083   144A      4.953880  
     145A      4.962229   146A      4.962259   147A      5.277491  
     148A      5.279851   149A      5.340292   150A      5.342973  
     151A      5.854235   152A      5.878381  

    Final Occupation by Irrep:
              A 
    DOCC [    15 ]

  @DF-RKS Final Energy:  -155.99121348040308

   => Energetics <=

    Nuclear Repulsion Energy =             99.6699149957483144
    One-Electron Energy =                -405.4995425864324829
    Two-Electron Energy =                 169.1917461876633411
    DFT Exchange-Correlation Energy =     -19.3533320773822730
    Empirical Dispersion Energy =           0.0000000000000000
    VV10 Nonlocal Energy =                  0.0000000000000000
    Total Energy =                       -155.9912134804030757

Computation Completed


Properties will be evaluated at   0.000000,   0.000000,   0.000000 [a0]

Properties computed using the SCF density matrix

  Nuclear Dipole Moment: [e a0]
     X:    -0.0034      Y:    -0.0000      Z:     0.0032

  Electronic Dipole Moment: [e a0]
     X:     0.0027      Y:     0.0000      Z:    -0.0039

  Dipole Moment: [e a0]
     X:    -0.0007      Y:     0.0000      Z:    -0.0008     Total:     0.0011

  Dipole Moment: [D]
     X:    -0.0018      Y:     0.0000      Z:    -0.0020     Total:     0.0027


*** tstop() called on n090 at Mon Nov 15 12:18:03 2021
Module time:
	user time   =      58.74 seconds =       0.98 minutes
	system time =       1.03 seconds =       0.02 minutes
	total time  =         15 seconds =       0.25 minutes
Total time:
	user time   =      58.74 seconds =       0.98 minutes
	system time =       1.03 seconds =       0.02 minutes
	total time  =         15 seconds =       0.25 minutes
Grab this energy -155.99121348040308
    Psi4 stopped on: Monday, 15 November 2021 12:18PM
    Psi4 wall time for execution: 0:00:15.47

*** Psi4 exiting successfully. Buy a developer a beer!
