
    -----------------------------------------------------------------------
          Psi4: An Open-Source Ab Initio Electronic Structure Package
                               Psi4 1.4a2.dev629 

                         Git: Rev {master} 2938fc2 dirty


    D. G. A. Smith, L. A. Burns, A. C. Simmonett, R. M. Parrish,
    M. C. Schieber, R. Galvelis, P. Kraus, H. Kruse, R. Di Remigio,
    A. Alenaizan, A. M. James, S. Lehtola, J. P. Misiewicz, M. Scheurer,
    R. A. Shaw, J. B. Schriber, Y. Xie, Z. L. Glick, D. A. Sirianni,
    J. S. O'Brien, J. M. Waldrop, A. Kumar, E. G. Hohenstein,
    B. P. Pritchard, B. R. Brooks, H. F. Schaefer III, A. Yu. Sokolov,
    K. Patkowski, A. E. DePrince III, U. Bozkaya, R. A. King,
    F. A. Evangelista, J. M. Turney, T. D. Crawford, C. D. Sherrill,
    J. Chem. Phys. 152(18) 184108 (2020). https://doi.org/10.1063/5.0006002

                            Additional Code Authors
    E. T. Seidl, C. L. Janssen, E. F. Valeev, M. L. Leininger,
    J. F. Gonthier, R. M. Richard, H. R. McAlexander, M. Saitow, X. Wang,
    P. Verma, and M. H. Lechner

             Previous Authors, Complete List of Code Contributors,
                       and Citations for Specific Modules
    https://github.com/psi4/psi4/blob/master/codemeta.json
    https://github.com/psi4/psi4/graphs/contributors
    http://psicode.org/psi4manual/master/introduction.html#citing-psifour

    -----------------------------------------------------------------------


    Psi4 started on: Monday, 15 November 2021 12:18PM

    Process ID: 16400
    Host:       n036
    PSIDATADIR: /opt/psi/4/master/share/psi4
    Memory:     500.0 MiB
    Threads:    4
    
  ==> Input File <==

--------------------------------------------------------------------------
import os
memory 14 GB 
 
molecule {
 X    1.0000000000    1.1451609600   -0.0000000000
 C   -0.0006091067    1.1471003973   -0.0007303339
 X   -0.0000000000    1.1451609600    1.0000000000
 X    1.0000000000   -1.1451609600    0.0000000000
 C   -0.0006093842   -1.1432210547    0.0007338405
 X    0.0000000000   -1.1451609600    1.0000000000
 C    0.0030133405    3.9147974244    0.0013771477
 C    0.0030219189   -3.9218221962   -0.0013819624
 H   -1.6716821702    4.6504497248   -0.9650298461
 H   -0.0003740564    4.6502330110    1.9283100690
 H    1.6696488180    4.6501654959   -0.9642928035
 H    1.6683270727   -4.6490744889   -0.9633198890
 H   -1.6703455937   -4.6493441576   -0.9640389984
 H   -0.0003908289   -4.6492841561    1.9283727663
units bohr
}

basis {

assign 6-31g_2dfp_

[ 6-31g_2dfp_ ]

spherical

!----------------------------------------------------------------------
! Basis Set Exchange
! Version v0.8.13
! https://www.basissetexchange.org
!----------------------------------------------------------------------
!   Basis set: 6-31G(2df,p)
! Description: 6-31G(2df,p)
!        Role: orbital
!     Version: 0  (Data from the original Basis Set Exchange)
!----------------------------------------------------------------------


****
H     0
S    3   1.00
     18.7311370              0.03349460
      2.8253937              0.23472695
      0.6401217              0.81375733
S    1   1.00
      0.1612778              1.00000000
P    1   1.00
      1.5000000              1.0000000
P    1   1.00
      0.3750000              1.0000000
****
B     0
S    6   1.00
   2068.8823000              0.0018663
    310.6495700              0.0142515
     70.6830330              0.0695516
     19.8610800              0.2325729
      6.2993048              0.4670787
      2.1270270              0.3634314
SP   3   1.00
      4.7279710             -0.1303938              0.0745976
      1.1903377             -0.1307889              0.3078467
      0.3594117              1.1309444              0.7434568
SP   1   1.00
      0.1267512              1.0000000              1.0000000
D    1   1.00
      0.8020000              1.0000000
D    1   1.00
      0.2005000              1.0000000
F    1   1.00
      0.5000000              1.0000000
****
C     0
S    6   1.00
   3047.5249000              0.0018347
    457.3695100              0.0140373
    103.9486900              0.0688426
     29.2101550              0.2321844
      9.2866630              0.4679413
      3.1639270              0.3623120
SP   3   1.00
      7.8682724             -0.1193324              0.0689991
      1.8812885             -0.1608542              0.3164240
      0.5442493              1.1434564              0.7443083
SP   1   1.00
      0.1687144              1.0000000              1.0000000
D    1   1.00
      1.2520000              1.0000000
D    1   1.00
      0.3130000              1.0000000
F    1   1.00
      0.8000000              1.0000000
****
N     0
S    6   1.00
   4173.5110000              0.0018348
    627.4579000              0.0139950
    142.9021000              0.0685870
     40.2343300              0.2322410
     12.8202100              0.4690700
      4.3904370              0.3604550
SP   3   1.00
     11.6263580             -0.1149610              0.0675800
      2.7162800             -0.1691180              0.3239070
      0.7722180              1.1458520              0.7408950
SP   1   1.00
      0.2120313              1.0000000              1.0000000
D    1   1.00
      1.8260000              1.0000000
D    1   1.00
      0.4565000              1.0000000
F    1   1.00
      1.0000000              1.0000000
****
O     0
S    6   1.00
   5484.6717000              0.0018311
    825.2349500              0.0139501
    188.0469600              0.0684451
     52.9645000              0.2327143
     16.8975700              0.4701930
      5.7996353              0.3585209
SP   3   1.00
     15.5396160             -0.1107775              0.0708743
      3.5999336             -0.1480263              0.3397528
      1.0137618              1.1307670              0.7271586
SP   1   1.00
      0.2700058              1.0000000              1.0000000
D    1   1.00
      2.5840000              1.0000000
D    1   1.00
      0.6460000              1.0000000
F    1   1.00
      1.4000000              1.0000000
****
F     0
S    6   1.00
   7001.7130900              0.0018196169
   1051.3660900              0.0139160796
    239.2856900              0.0684053245
     67.3974453              0.233185760
     21.5199573              0.471267439
      7.40310130             0.356618546
SP   3   1.00
     20.8479528             -0.108506975            0.0716287243
      4.80830834            -0.146451658            0.3459121030
      1.34406986             1.128688580            0.7224699570
SP   1   1.00
      0.358151393            1.0000000              1.0000000
D    1   1.00
      3.5000000              1.0000000
D    1   1.00
      0.8750000              1.0000000
F    1   1.00
      1.8500000              1.0000000
****
Al     0
S    6   1.00
  13983.1000000              0.00194267
   2098.7500000              0.0148599
    477.7050000              0.0728494
    134.3600000              0.2468300
     42.8709000              0.4872580
     14.5189000              0.3234960
SP   6   1.00
    239.6680000             -0.00292619             0.00460285
     57.4419000             -0.0374080              0.0331990
     18.2859000             -0.1144870              0.1362820
      6.5991400              0.1156350              0.3304760
      2.4904900              0.6125950              0.4491460
      0.9445400              0.3937990              0.2657040
SP   3   1.00
      1.2779000             -0.2276060             -0.0175130
      0.3975900              0.00144583             0.2445330
      0.1600950              1.0927900              0.8049340
SP   1   1.00
      0.0556577              1.0000000              1.0000000
D    1   1.00
      0.6500000              1.0000000
D    1   1.00
      0.1625000              1.0000000
F    1   1.00
      0.2500000              1.0000000
****
Si     0
S    6   1.00
  16115.9000000              0.00195948
   2425.5800000              0.01492880
    553.8670000              0.07284780
    156.3400000              0.24613000
     50.0683000              0.48591400
     17.0178000              0.32500200
SP   6   1.00
    292.7180000             -0.00278094             0.00443826
     69.8731000             -0.03571460             0.03266790
     22.3363000             -0.11498500             0.13472100
      8.1503900              0.09356340             0.32867800
      3.1345800              0.60301700             0.44964000
      1.2254300              0.41895900             0.26137200
SP   3   1.00
      1.7273800             -0.24463000            -0.01779510
      0.5729220              0.00431572             0.25353900
      0.2221920              1.09818000             0.80066900
SP   1   1.00
      0.0778369              1.00000000             1.00000000
D    1   1.00
      0.9000000              1.0000000
D    1   1.00
      0.2250000              1.0000000
F    1   1.00
      0.3200000              1.0000000
****
P     0
S    6   1.00
  19413.3000000              0.0018516
   2909.4200000              0.0142062
    661.3640000              0.0699995
    185.7590000              0.2400790
     59.1943000              0.4847620
     20.0310000              0.3352000
SP   6   1.00
    339.4780000             -0.00278217             0.00456462
     81.0101000             -0.0360499              0.03369360
     25.8780000             -0.1166310              0.13975500
      9.4522100              0.0968328              0.33936200
      3.6656600              0.6144180              0.45092100
      1.4674600              0.4037980              0.23858600
SP   3   1.00
      2.1562300             -0.2529230             -0.01776530
      0.7489970              0.0328517              0.27405800
      0.2831450              1.0812500              0.78542100
SP   1   1.00
      0.0998317              1.0000000              1.00000000
D    1   1.00
      1.1000000              1.0000000
D    1   1.00
      0.2750000              1.0000000
F    1   1.00
      0.4500000              1.0000000
****
S     0
S    6   1.00
  21917.1000000              0.0018690
   3301.4900000              0.0142300
    754.1460000              0.0696960
    212.7110000              0.2384870
     67.9896000              0.4833070
     23.0515000              0.3380740
SP   6   1.00
    423.7350000             -0.0023767              0.0040610
    100.7100000             -0.0316930              0.0306810
     32.1599000             -0.1133170              0.1304520
     11.8079000              0.0560900              0.3272050
      4.6311000              0.5922550              0.4528510
      1.8702500              0.4550060              0.2560420
SP   3   1.00
      2.6158400             -0.2503740             -0.0145110
      0.9221670              0.0669570              0.3102630
      0.3412870              1.0545100              0.7544830
SP   1   1.00
      0.1171670              1.0000000              1.0000000
D    1   1.00
      1.3000000              1.0000000
D    1   1.00
      0.3250000              1.0000000
F    1   1.00
      0.5500000              1.0000000
****
Cl     0
S    6   1.00
  25180.1000000              0.0018330
   3780.3500000              0.0140340
    860.4740000              0.0690970
    242.1450000              0.2374520
     77.3349000              0.4830340
     26.2470000              0.3398560
SP   6   1.00
    491.7650000             -0.0022974              0.0039894
    116.9840000             -0.0307140              0.0303180
     37.4153000             -0.1125280              0.1298800
     13.7834000              0.0450160              0.3279510
      5.4521500              0.5893530              0.4535270
      2.2258800              0.4652060              0.2521540
SP   3   1.00
      3.1864900             -0.2518300             -0.0142990
      1.1442700              0.0615890              0.3235720
      0.4203770              1.0601800              0.7435070
SP   1   1.00
      0.1426570              1.0000000              1.0000000
D    1   1.00
      1.5000000              1.0000000
D    1   1.00
      0.3750000              1.0000000
F    1   1.00
      0.7000000              1.0000000
****
}


set {
reference rhf                          
freeze_core true
e_convergence 10                       
d_convergence 10                      
dft_spherical_points 1202
dft_radial_points 99
}

e = energy('b3lyp')

print_out('Grab this energy {0}'.format(e))
--------------------------------------------------------------------------

  Memory set to  13.039 GiB by Python driver.

Scratch directory: /tmp/

*** tstart() called on n036
*** at Mon Nov 15 12:18:33 2021

   => Loading Basis Set <=

    Name: ANONYMOUSE240B70C
    Role: ORBITAL
    Keyword: BASIS
    atoms 1-4  entry C          line    48 inputblock 6-31g_2dfp_ 
    atoms 5-10 entry H          line    15 inputblock 6-31g_2dfp_ 


         ---------------------------------------------------------
                                   SCF
               by Justin Turney, Rob Parrish, Andy Simmonett
                          and Daniel G. A. Smith
                              RKS Reference
                        4 Threads,  13351 MiB Core
         ---------------------------------------------------------

  ==> Geometry <==

    Molecular point group: c1
    Full point group: C1

    Geometry (in Bohr), charge = 0, multiplicity = 1:

       Center              X                  Y                   Z               Mass       
    ------------   -----------------  -----------------  -----------------  -----------------
         C           -0.001588750732     1.147740120875    -0.000730067673    12.000000000000
         C           -0.001589028232    -1.142581331125     0.000734106727    12.000000000000
         C            0.002033696468     3.915437147975     0.001377413927    12.000000000000
         C            0.002042274868    -3.921182472625    -0.001381696173    12.000000000000
         H           -1.672661814232     4.651089448375    -0.965029579873     1.007825032230
         H           -0.001353700432     4.650872734575     1.928310335227     1.007825032230
         H            1.668669173968     4.650805219475    -0.964292537273     1.007825032230
         H            1.667347428668    -4.648434765325    -0.963319622773     1.007825032230
         H           -1.671325237732    -4.648704434025    -0.964038732173     1.007825032230
         H           -0.001370472932    -4.648644432525     1.928373032527     1.007825032230

  Running in c1 symmetry.

  Rotational constants: A =      2.67722  B =      0.11109  C =      0.11108 [cm^-1]
  Rotational constants: A =  80260.94784  B =   3330.24706  C =   3330.18680 [MHz]
  Nuclear repulsion =   99.669976191981021

  Charge       = 0
  Multiplicity = 1
  Electrons    = 30
  Nalpha       = 15
  Nbeta        = 15

  ==> Algorithm <==

  SCF Algorithm Type is DF.
  DIIS enabled.
  MOM disabled.
  Fractional occupation disabled.
  Guess Type is SAD.
  Energy threshold   = 1.00e-10
  Density threshold  = 1.00e-10
  Integral threshold = 0.00e+00

  ==> Primary Basis <==

  Basis Set: ANONYMOUSE240B70C
    Blend: 6-31G_2DFP_
    Number of shells: 56
    Number of basis function: 152
    Number of Cartesian functions: 172
    Spherical Harmonics?: true
    Max angular momentum: 3

  ==> DFT Potential <==

   => Composite Functional: B3LYP <= 

    B3LYP Hyb-GGA Exchange-Correlation Functional

    P. J. Stephens, F. J. Devlin, C. F. Chabalowski, and M. J. Frisch, J. Phys. Chem. 98, 11623 (1994)

    Deriv               =              1
    GGA                 =           TRUE
    Meta                =          FALSE

    Exchange Hybrid     =           TRUE
    MP2 Hybrid          =          FALSE

   => Exchange Functionals <=

    0.0800   Slater exchange
    0.7200         Becke 88

   => Exact (HF) Exchange <=

    0.2000               HF 

   => Correlation Functionals <=

    0.1900   Vosko, Wilk & Nusair (VWN5_RPA)
    0.8100   Lee, Yang & Parr

   => Molecular Quadrature <=

    Radial Scheme          =       TREUTLER
    Pruning Scheme         =           NONE
    Nuclear Scheme         =       TREUTLER

    BS radius alpha        =              1
    Pruning alpha          =              1
    Radial Points          =             99
    Spherical Points       =           1202
    Total Points           =        1119146
    Total Blocks           =           7637
    Max Points             =            256
    Max Functions          =            142
    Weights Tolerance      =       1.00E-15

   => Loading Basis Set <=

    Name: (ANONYMOUSE240B70C AUX)
    Role: JKFIT
    Keyword: DF_BASIS_SCF
    atoms 1-4  entry C          line   198 file /opt/psi/4/master/share/psi4/basis/def2-universal-jkfit.gbs 
    atoms 5-10 entry H          line    18 file /opt/psi/4/master/share/psi4/basis/def2-universal-jkfit.gbs 

  ==> Integral Setup <==

  DFHelper Memory: AOs need 0.073 GiB; user supplied 6.179 GiB. Using in-core AOs.

  ==> MemDFJK: Density-Fitted J/K Matrices <==

    J tasked:                   Yes
    K tasked:                   Yes
    wK tasked:                   No
    OpenMP threads:               4
    Memory [MiB]:              6326
    Algorithm:                 Core
    Schwarz Cutoff:           1E-12
    Mask sparsity (%):       5.2372
    Fitting Condition:        1E-10

   => Auxiliary Basis Set <=

  Basis Set: (ANONYMOUSE240B70C AUX)
    Blend: DEF2-UNIVERSAL-JKFIT
    Number of shells: 136
    Number of basis function: 408
    Number of Cartesian functions: 476
    Spherical Harmonics?: true
    Max angular momentum: 4

  Cached 100.0% of DFT collocation blocks in 3.600 [GiB].

  Minimum eigenvalue in the overlap matrix is 5.3571260610E-05.
  Reciprocal condition number of the overlap matrix is 9.8681620489E-06.
    Using symmetric orthogonalization.

  ==> Pre-Iterations <==

  SCF Guess: Superposition of Atomic Densities via on-the-fly atomic UHF (no occupation information).

   -------------------------
    Irrep   Nso     Nmo    
   -------------------------
     A        152     152 
   -------------------------
    Total     152     152
   -------------------------

  ==> Iterations <==

                           Total Energy        Delta E     RMS |[F,P]|

   @DF-RKS iter SAD:  -155.26466362335208   -1.55265e+02   0.00000e+00 
   @DF-RKS iter   1:  -155.68451728995970   -4.19854e-01   4.88032e-03 DIIS
   @DF-RKS iter   2:  -155.69622085183022   -1.17036e-02   4.70993e-03 DIIS
   @DF-RKS iter   3:  -155.99059843150656   -2.94378e-01   2.24453e-04 DIIS
   @DF-RKS iter   4:  -155.99113448066637   -5.36049e-04   8.33752e-05 DIIS
   @DF-RKS iter   5:  -155.99114792922498   -1.34486e-05   7.23736e-05 DIIS
   @DF-RKS iter   6:  -155.99120730614951   -5.93769e-05   1.45330e-05 DIIS
   @DF-RKS iter   7:  -155.99120975256940   -2.44642e-06   3.32070e-06 DIIS
   @DF-RKS iter   8:  -155.99120988153388   -1.28964e-07   1.01905e-07 DIIS
   @DF-RKS iter   9:  -155.99120988162832   -9.44453e-11   3.26836e-08 DIIS
   @DF-RKS iter  10:  -155.99120988163818   -9.86233e-12   1.52562e-08 DIIS
   @DF-RKS iter  11:  -155.99120988164114   -2.95586e-12   1.15243e-09 DIIS
   @DF-RKS iter  12:  -155.99120988164100    1.42109e-13   3.37038e-10 DIIS
   @DF-RKS iter  13:  -155.99120988164097    2.84217e-14   1.50967e-11 DIIS
  Energy and wave function converged.


  ==> Post-Iterations <==

    Orbital Energies [Eh]
    ---------------------

    Doubly Occupied:                                                      

       1A    -10.194189     2A    -10.194138     3A    -10.163846  
       4A    -10.161600     5A     -0.774041     6A     -0.738640  
       7A     -0.660074     8A     -0.472699     9A     -0.426834  
      10A     -0.426126    11A     -0.425105    12A     -0.415335  
      13A     -0.414512    14A     -0.241537    15A     -0.241363  

    Virtual:                                                              

      16A      0.066469    17A      0.066598    18A      0.101692  
      19A      0.102157    20A      0.158340    21A      0.159037  
      22A      0.192432    23A      0.192833    24A      0.203954  
      25A      0.250910    26A      0.368953    27A      0.385824  
      28A      0.434309    29A      0.434680    30A      0.448723  
      31A      0.449208    32A      0.475084    33A      0.475138  
      34A      0.568378    35A      0.568928    36A      0.578774  
      37A      0.578913    38A      0.596511    39A      0.597407  
      40A      0.605162    41A      0.612446    42A      0.652278  
      43A      0.652374    44A      0.668636    45A      0.679127  
      46A      0.692364    47A      0.692661    48A      0.859098  
      49A      0.859217    50A      0.877682    51A      0.877754  
      52A      0.922225    53A      0.952189    54A      0.952461  
      55A      1.005416    56A      1.005646    57A      1.041776  
      58A      1.167375    59A      1.175021    60A      1.194984  
      61A      1.195140    62A      1.257252    63A      1.257571  
      64A      1.330547    65A      1.357700    66A      1.375454  
      67A      1.377318    68A      1.384542    69A      1.385188  
      70A      1.395795    71A      1.471348    72A      1.472171  
      73A      1.505882    74A      1.506535    75A      1.556643  
      76A      1.668520    77A      1.668893    78A      1.696626  
      79A      1.742772    80A      1.862044    81A      1.864735  
      82A      1.872094    83A      1.945585    84A      1.948163  
      85A      2.539700    86A      2.618216    87A      2.672416  
      88A      2.690822    89A      2.758758    90A      2.759249  
      91A      2.771541    92A      2.771601    93A      2.903748  
      94A      2.914166    95A      2.915094    96A      2.937859  
      97A      2.997113    98A      2.998132    99A      3.011138  
     100A      3.011741   101A      3.017584   102A      3.077385  
     103A      3.101318   104A      3.112164   105A      3.112986  
     106A      3.144691   107A      3.145016   108A      3.145439  
     109A      3.262945   110A      3.265103   111A      3.345446  
     112A      3.345933   113A      3.453752   114A      3.455070  
     115A      3.455391   116A      3.462649   117A      3.526822  
     118A      3.526955   119A      3.544787   120A      3.545278  
     121A      3.788142   122A      3.819081   123A      3.840629  
     124A      3.841968   125A      3.940049   126A      4.053683  
     127A      4.053892   128A      4.152110   129A      4.152170  
     130A      4.243556   131A      4.247589   132A      4.254608  
     133A      4.299431   134A      4.300177   135A      4.355297  
     136A      4.389856   137A      4.391801   138A      4.402612  
     139A      4.617854   140A      4.619592   141A      4.629383  
     142A      4.633867   143A      4.947366   144A      4.955722  
     145A      4.962075   146A      4.962296   147A      5.277709  
     148A      5.279739   149A      5.340150   150A      5.343052  
     151A      5.848692   152A      5.884040  

    Final Occupation by Irrep:
              A 
    DOCC [    15 ]

  @DF-RKS Final Energy:  -155.99120988164097

   => Energetics <=

    Nuclear Repulsion Energy =             99.6699761919810214
    One-Electron Energy =                -405.4996419878307279
    Two-Electron Energy =                 169.1917965158153834
    DFT Exchange-Correlation Energy =     -19.3533406016066714
    Empirical Dispersion Energy =           0.0000000000000000
    VV10 Nonlocal Energy =                  0.0000000000000000
    Total Energy =                       -155.9912098816409696

Computation Completed


Properties will be evaluated at   0.000000,   0.000000,   0.000000 [a0]

Properties computed using the SCF density matrix

  Nuclear Dipole Moment: [e a0]
     X:    -0.0053      Y:     0.0035      Z:     0.0000

  Electronic Dipole Moment: [e a0]
     X:     0.0066      Y:    -0.0057      Z:     0.0000

  Dipole Moment: [e a0]
     X:     0.0013      Y:    -0.0023      Z:     0.0000     Total:     0.0026

  Dipole Moment: [D]
     X:     0.0034      Y:    -0.0058      Z:     0.0000     Total:     0.0067


*** tstop() called on n036 at Mon Nov 15 12:18:55 2021
Module time:
	user time   =      83.77 seconds =       1.40 minutes
	system time =       0.90 seconds =       0.02 minutes
	total time  =         22 seconds =       0.37 minutes
Total time:
	user time   =      83.77 seconds =       1.40 minutes
	system time =       0.90 seconds =       0.02 minutes
	total time  =         22 seconds =       0.37 minutes
Grab this energy -155.99120988164097
    Psi4 stopped on: Monday, 15 November 2021 12:18PM
    Psi4 wall time for execution: 0:00:21.83

*** Psi4 exiting successfully. Buy a developer a beer!
