
    -----------------------------------------------------------------------
          Psi4: An Open-Source Ab Initio Electronic Structure Package
                               Psi4 1.4a2.dev629 

                         Git: Rev {master} 2938fc2 dirty


    D. G. A. Smith, L. A. Burns, A. C. Simmonett, R. M. Parrish,
    M. C. Schieber, R. Galvelis, P. Kraus, H. Kruse, R. Di Remigio,
    A. Alenaizan, A. M. James, S. Lehtola, J. P. Misiewicz, M. Scheurer,
    R. A. Shaw, J. B. Schriber, Y. Xie, Z. L. Glick, D. A. Sirianni,
    J. S. O'Brien, J. M. Waldrop, A. Kumar, E. G. Hohenstein,
    B. P. Pritchard, B. R. Brooks, H. F. Schaefer III, A. Yu. Sokolov,
    K. Patkowski, A. E. DePrince III, U. Bozkaya, R. A. King,
    F. A. Evangelista, J. M. Turney, T. D. Crawford, C. D. Sherrill,
    J. Chem. Phys. 152(18) 184108 (2020). https://doi.org/10.1063/5.0006002

                            Additional Code Authors
    E. T. Seidl, C. L. Janssen, E. F. Valeev, M. L. Leininger,
    J. F. Gonthier, R. M. Richard, H. R. McAlexander, M. Saitow, X. Wang,
    P. Verma, and M. H. Lechner

             Previous Authors, Complete List of Code Contributors,
                       and Citations for Specific Modules
    https://github.com/psi4/psi4/blob/master/codemeta.json
    https://github.com/psi4/psi4/graphs/contributors
    http://psicode.org/psi4manual/master/introduction.html#citing-psifour

    -----------------------------------------------------------------------


    Psi4 started on: Monday, 15 November 2021 12:18PM

    Process ID: 32266
    Host:       n088
    PSIDATADIR: /opt/psi/4/master/share/psi4
    Memory:     500.0 MiB
    Threads:    4
    
  ==> Input File <==

--------------------------------------------------------------------------
import os
memory 14 GB 
 
molecule {
 X    1.0000000000    1.1451609600    0.0000000000
 C    0.0014616537    1.1451598229   -0.0172963611
 X   -0.0000000000    1.1451609600    1.0000000000
 X    1.0000000000   -1.1451609600    0.0000000000
 C   -0.0014620158   -1.1451602296   -0.0173769272
 X    0.0000000000   -1.1451609600    1.0000000000
 C   -0.0024999854    3.9182665533   -0.0019072524
 C    0.0025000011   -3.9182665978   -0.0019227974
 H   -1.6652343433    4.6573986166   -0.9639613735
 H   -0.0074108272    4.6340470126    1.9348513708
 H    1.6744548808    4.6575734718   -0.9516407448
 H    1.6652344699   -4.6574209917   -0.9639595776
 H   -1.6744547642   -4.6575960130   -0.9516389551
 H    0.0074109404   -4.6340016450    1.9348526083
units bohr
}

basis {

assign 6-31g_2dfp_

[ 6-31g_2dfp_ ]

spherical

!----------------------------------------------------------------------
! Basis Set Exchange
! Version v0.8.13
! https://www.basissetexchange.org
!----------------------------------------------------------------------
!   Basis set: 6-31G(2df,p)
! Description: 6-31G(2df,p)
!        Role: orbital
!     Version: 0  (Data from the original Basis Set Exchange)
!----------------------------------------------------------------------


****
H     0
S    3   1.00
     18.7311370              0.03349460
      2.8253937              0.23472695
      0.6401217              0.81375733
S    1   1.00
      0.1612778              1.00000000
P    1   1.00
      1.5000000              1.0000000
P    1   1.00
      0.3750000              1.0000000
****
B     0
S    6   1.00
   2068.8823000              0.0018663
    310.6495700              0.0142515
     70.6830330              0.0695516
     19.8610800              0.2325729
      6.2993048              0.4670787
      2.1270270              0.3634314
SP   3   1.00
      4.7279710             -0.1303938              0.0745976
      1.1903377             -0.1307889              0.3078467
      0.3594117              1.1309444              0.7434568
SP   1   1.00
      0.1267512              1.0000000              1.0000000
D    1   1.00
      0.8020000              1.0000000
D    1   1.00
      0.2005000              1.0000000
F    1   1.00
      0.5000000              1.0000000
****
C     0
S    6   1.00
   3047.5249000              0.0018347
    457.3695100              0.0140373
    103.9486900              0.0688426
     29.2101550              0.2321844
      9.2866630              0.4679413
      3.1639270              0.3623120
SP   3   1.00
      7.8682724             -0.1193324              0.0689991
      1.8812885             -0.1608542              0.3164240
      0.5442493              1.1434564              0.7443083
SP   1   1.00
      0.1687144              1.0000000              1.0000000
D    1   1.00
      1.2520000              1.0000000
D    1   1.00
      0.3130000              1.0000000
F    1   1.00
      0.8000000              1.0000000
****
N     0
S    6   1.00
   4173.5110000              0.0018348
    627.4579000              0.0139950
    142.9021000              0.0685870
     40.2343300              0.2322410
     12.8202100              0.4690700
      4.3904370              0.3604550
SP   3   1.00
     11.6263580             -0.1149610              0.0675800
      2.7162800             -0.1691180              0.3239070
      0.7722180              1.1458520              0.7408950
SP   1   1.00
      0.2120313              1.0000000              1.0000000
D    1   1.00
      1.8260000              1.0000000
D    1   1.00
      0.4565000              1.0000000
F    1   1.00
      1.0000000              1.0000000
****
O     0
S    6   1.00
   5484.6717000              0.0018311
    825.2349500              0.0139501
    188.0469600              0.0684451
     52.9645000              0.2327143
     16.8975700              0.4701930
      5.7996353              0.3585209
SP   3   1.00
     15.5396160             -0.1107775              0.0708743
      3.5999336             -0.1480263              0.3397528
      1.0137618              1.1307670              0.7271586
SP   1   1.00
      0.2700058              1.0000000              1.0000000
D    1   1.00
      2.5840000              1.0000000
D    1   1.00
      0.6460000              1.0000000
F    1   1.00
      1.4000000              1.0000000
****
F     0
S    6   1.00
   7001.7130900              0.0018196169
   1051.3660900              0.0139160796
    239.2856900              0.0684053245
     67.3974453              0.233185760
     21.5199573              0.471267439
      7.40310130             0.356618546
SP   3   1.00
     20.8479528             -0.108506975            0.0716287243
      4.80830834            -0.146451658            0.3459121030
      1.34406986             1.128688580            0.7224699570
SP   1   1.00
      0.358151393            1.0000000              1.0000000
D    1   1.00
      3.5000000              1.0000000
D    1   1.00
      0.8750000              1.0000000
F    1   1.00
      1.8500000              1.0000000
****
Al     0
S    6   1.00
  13983.1000000              0.00194267
   2098.7500000              0.0148599
    477.7050000              0.0728494
    134.3600000              0.2468300
     42.8709000              0.4872580
     14.5189000              0.3234960
SP   6   1.00
    239.6680000             -0.00292619             0.00460285
     57.4419000             -0.0374080              0.0331990
     18.2859000             -0.1144870              0.1362820
      6.5991400              0.1156350              0.3304760
      2.4904900              0.6125950              0.4491460
      0.9445400              0.3937990              0.2657040
SP   3   1.00
      1.2779000             -0.2276060             -0.0175130
      0.3975900              0.00144583             0.2445330
      0.1600950              1.0927900              0.8049340
SP   1   1.00
      0.0556577              1.0000000              1.0000000
D    1   1.00
      0.6500000              1.0000000
D    1   1.00
      0.1625000              1.0000000
F    1   1.00
      0.2500000              1.0000000
****
Si     0
S    6   1.00
  16115.9000000              0.00195948
   2425.5800000              0.01492880
    553.8670000              0.07284780
    156.3400000              0.24613000
     50.0683000              0.48591400
     17.0178000              0.32500200
SP   6   1.00
    292.7180000             -0.00278094             0.00443826
     69.8731000             -0.03571460             0.03266790
     22.3363000             -0.11498500             0.13472100
      8.1503900              0.09356340             0.32867800
      3.1345800              0.60301700             0.44964000
      1.2254300              0.41895900             0.26137200
SP   3   1.00
      1.7273800             -0.24463000            -0.01779510
      0.5729220              0.00431572             0.25353900
      0.2221920              1.09818000             0.80066900
SP   1   1.00
      0.0778369              1.00000000             1.00000000
D    1   1.00
      0.9000000              1.0000000
D    1   1.00
      0.2250000              1.0000000
F    1   1.00
      0.3200000              1.0000000
****
P     0
S    6   1.00
  19413.3000000              0.0018516
   2909.4200000              0.0142062
    661.3640000              0.0699995
    185.7590000              0.2400790
     59.1943000              0.4847620
     20.0310000              0.3352000
SP   6   1.00
    339.4780000             -0.00278217             0.00456462
     81.0101000             -0.0360499              0.03369360
     25.8780000             -0.1166310              0.13975500
      9.4522100              0.0968328              0.33936200
      3.6656600              0.6144180              0.45092100
      1.4674600              0.4037980              0.23858600
SP   3   1.00
      2.1562300             -0.2529230             -0.01776530
      0.7489970              0.0328517              0.27405800
      0.2831450              1.0812500              0.78542100
SP   1   1.00
      0.0998317              1.0000000              1.00000000
D    1   1.00
      1.1000000              1.0000000
D    1   1.00
      0.2750000              1.0000000
F    1   1.00
      0.4500000              1.0000000
****
S     0
S    6   1.00
  21917.1000000              0.0018690
   3301.4900000              0.0142300
    754.1460000              0.0696960
    212.7110000              0.2384870
     67.9896000              0.4833070
     23.0515000              0.3380740
SP   6   1.00
    423.7350000             -0.0023767              0.0040610
    100.7100000             -0.0316930              0.0306810
     32.1599000             -0.1133170              0.1304520
     11.8079000              0.0560900              0.3272050
      4.6311000              0.5922550              0.4528510
      1.8702500              0.4550060              0.2560420
SP   3   1.00
      2.6158400             -0.2503740             -0.0145110
      0.9221670              0.0669570              0.3102630
      0.3412870              1.0545100              0.7544830
SP   1   1.00
      0.1171670              1.0000000              1.0000000
D    1   1.00
      1.3000000              1.0000000
D    1   1.00
      0.3250000              1.0000000
F    1   1.00
      0.5500000              1.0000000
****
Cl     0
S    6   1.00
  25180.1000000              0.0018330
   3780.3500000              0.0140340
    860.4740000              0.0690970
    242.1450000              0.2374520
     77.3349000              0.4830340
     26.2470000              0.3398560
SP   6   1.00
    491.7650000             -0.0022974              0.0039894
    116.9840000             -0.0307140              0.0303180
     37.4153000             -0.1125280              0.1298800
     13.7834000              0.0450160              0.3279510
      5.4521500              0.5893530              0.4535270
      2.2258800              0.4652060              0.2521540
SP   3   1.00
      3.1864900             -0.2518300             -0.0142990
      1.1442700              0.0615890              0.3235720
      0.4203770              1.0601800              0.7435070
SP   1   1.00
      0.1426570              1.0000000              1.0000000
D    1   1.00
      1.5000000              1.0000000
D    1   1.00
      0.3750000              1.0000000
F    1   1.00
      0.7000000              1.0000000
****
}


set {
reference rhf                          
freeze_core true
e_convergence 10                       
d_convergence 10                      
dft_spherical_points 1202
dft_radial_points 99
}

e = energy('b3lyp')

print_out('Grab this energy {0}'.format(e))
--------------------------------------------------------------------------

  Memory set to  13.039 GiB by Python driver.

Scratch directory: /tmp/

*** tstart() called on n088
*** at Mon Nov 15 12:18:17 2021

   => Loading Basis Set <=

    Name: ANONYMOUS7A0DC6E6
    Role: ORBITAL
    Keyword: BASIS
    atoms 1-4  entry C          line    48 inputblock 6-31g_2dfp_ 
    atoms 5-10 entry H          line    15 inputblock 6-31g_2dfp_ 


         ---------------------------------------------------------
                                   SCF
               by Justin Turney, Rob Parrish, Andy Simmonett
                          and Daniel G. A. Smith
                              RKS Reference
                        4 Threads,  13351 MiB Core
         ---------------------------------------------------------

  ==> Geometry <==

    Molecular point group: c1
    Full point group: C1

    Geometry (in Bohr), charge = 0, multiplicity = 1:

       Center              X                  Y                   Z               Mass       
    ------------   -----------------  -----------------  -----------------  -----------------
         C            0.001461723965     1.145159914664    -0.009465476327    12.000000000000
         C           -0.001461945535    -1.145160137836    -0.009546042427    12.000000000000
         C           -0.002499915135     3.918266645064     0.005923632373    12.000000000000
         C            0.002500071365    -3.918266506036     0.005908087373    12.000000000000
         H           -1.665234273035     4.657398708364    -0.956130488727     1.007825032230
         H           -0.007410756935     4.634047104364     1.942682255573     1.007825032230
         H            1.674454951065     4.657573563564    -0.943809860027     1.007825032230
         H            1.665234540165    -4.657420899936    -0.956128692827     1.007825032230
         H           -1.674454693935    -4.657595921236    -0.943808070327     1.007825032230
         H            0.007411010665    -4.634001553236     1.942683493073     1.007825032230

  Running in c1 symmetry.

  Rotational constants: A =      2.67680  B =      0.11109  C =      0.11109 [cm^-1]
  Rotational constants: A =  80248.49068  B =   3330.30534  C =   3330.26150 [MHz]
  Nuclear repulsion =   99.670075597989879

  Charge       = 0
  Multiplicity = 1
  Electrons    = 30
  Nalpha       = 15
  Nbeta        = 15

  ==> Algorithm <==

  SCF Algorithm Type is DF.
  DIIS enabled.
  MOM disabled.
  Fractional occupation disabled.
  Guess Type is SAD.
  Energy threshold   = 1.00e-10
  Density threshold  = 1.00e-10
  Integral threshold = 0.00e+00

  ==> Primary Basis <==

  Basis Set: ANONYMOUS7A0DC6E6
    Blend: 6-31G_2DFP_
    Number of shells: 56
    Number of basis function: 152
    Number of Cartesian functions: 172
    Spherical Harmonics?: true
    Max angular momentum: 3

  ==> DFT Potential <==

   => Composite Functional: B3LYP <= 

    B3LYP Hyb-GGA Exchange-Correlation Functional

    P. J. Stephens, F. J. Devlin, C. F. Chabalowski, and M. J. Frisch, J. Phys. Chem. 98, 11623 (1994)

    Deriv               =              1
    GGA                 =           TRUE
    Meta                =          FALSE

    Exchange Hybrid     =           TRUE
    MP2 Hybrid          =          FALSE

   => Exchange Functionals <=

    0.0800   Slater exchange
    0.7200         Becke 88

   => Exact (HF) Exchange <=

    0.2000               HF 

   => Correlation Functionals <=

    0.1900   Vosko, Wilk & Nusair (VWN5_RPA)
    0.8100   Lee, Yang & Parr

   => Molecular Quadrature <=

    Radial Scheme          =       TREUTLER
    Pruning Scheme         =           NONE
    Nuclear Scheme         =       TREUTLER

    BS radius alpha        =              1
    Pruning alpha          =              1
    Radial Points          =             99
    Spherical Points       =           1202
    Total Points           =        1119042
    Total Blocks           =           7630
    Max Points             =            256
    Max Functions          =            145
    Weights Tolerance      =       1.00E-15

   => Loading Basis Set <=

    Name: (ANONYMOUS7A0DC6E6 AUX)
    Role: JKFIT
    Keyword: DF_BASIS_SCF
    atoms 1-4  entry C          line   198 file /opt/psi/4/master/share/psi4/basis/def2-universal-jkfit.gbs 
    atoms 5-10 entry H          line    18 file /opt/psi/4/master/share/psi4/basis/def2-universal-jkfit.gbs 

  ==> Integral Setup <==

  DFHelper Memory: AOs need 0.073 GiB; user supplied 6.174 GiB. Using in-core AOs.

  ==> MemDFJK: Density-Fitted J/K Matrices <==

    J tasked:                   Yes
    K tasked:                   Yes
    wK tasked:                   No
    OpenMP threads:               4
    Memory [MiB]:              6322
    Algorithm:                 Core
    Schwarz Cutoff:           1E-12
    Mask sparsity (%):       5.2372
    Fitting Condition:        1E-10

   => Auxiliary Basis Set <=

  Basis Set: (ANONYMOUS7A0DC6E6 AUX)
    Blend: DEF2-UNIVERSAL-JKFIT
    Number of shells: 136
    Number of basis function: 408
    Number of Cartesian functions: 476
    Spherical Harmonics?: true
    Max angular momentum: 4

  Cached 100.0% of DFT collocation blocks in 3.605 [GiB].

  Minimum eigenvalue in the overlap matrix is 5.3598917695E-05.
  Reciprocal condition number of the overlap matrix is 9.8732589104E-06.
    Using symmetric orthogonalization.

  ==> Pre-Iterations <==

  SCF Guess: Superposition of Atomic Densities via on-the-fly atomic UHF (no occupation information).

   -------------------------
    Irrep   Nso     Nmo    
   -------------------------
     A        152     152 
   -------------------------
    Total     152     152
   -------------------------

  ==> Iterations <==

                           Total Energy        Delta E     RMS |[F,P]|

   @DF-RKS iter SAD:  -155.26465939816549   -1.55265e+02   0.00000e+00 
   @DF-RKS iter   1:  -155.68453848157836   -4.19879e-01   4.88023e-03 DIIS
   @DF-RKS iter   2:  -155.69626468728183   -1.17262e-02   4.70966e-03 DIIS
   @DF-RKS iter   3:  -155.99061983424934   -2.94355e-01   2.22316e-04 DIIS
   @DF-RKS iter   4:  -155.99117881510483   -5.58981e-04   6.36045e-05 DIIS
   @DF-RKS iter   5:  -155.99121265166471   -3.38366e-05   2.39603e-05 DIIS
   @DF-RKS iter   6:  -155.99121992351164   -7.27185e-06   3.53533e-06 DIIS
   @DF-RKS iter   7:  -155.99122006795108   -1.44439e-07   1.46419e-07 DIIS
   @DF-RKS iter   8:  -155.99122006817171   -2.20638e-10   9.53855e-09 DIIS
   @DF-RKS iter   9:  -155.99122006817262   -9.09495e-13   8.33818e-09 DIIS
   @DF-RKS iter  10:  -155.99122006817299   -3.69482e-13   5.94860e-09 DIIS
   @DF-RKS iter  11:  -155.99122006817367   -6.82121e-13   4.84119e-10 DIIS
   @DF-RKS iter  12:  -155.99122006817322    4.54747e-13   3.55385e-11 DIIS
  Energy and wave function converged.


  ==> Post-Iterations <==

    Orbital Energies [Eh]
    ---------------------

    Doubly Occupied:                                                      

       1A    -10.194179     2A    -10.194148     3A    -10.163840  
       4A    -10.161607     5A     -0.774037     6A     -0.738640  
       7A     -0.660073     8A     -0.472692     9A     -0.426653  
      10A     -0.426301    11A     -0.425125    12A     -0.415157  
      13A     -0.414678    14A     -0.241538    15A     -0.241363  

    Virtual:                                                              

      16A      0.066497    17A      0.066564    18A      0.101721  
      19A      0.102137    20A      0.158423    21A      0.158945  
      22A      0.192540    23A      0.192663    24A      0.204059  
      25A      0.250884    26A      0.368951    27A      0.385821  
      28A      0.434434    29A      0.434563    30A      0.448855  
      31A      0.449079    32A      0.475099    33A      0.475120  
      34A      0.568411    35A      0.568911    36A      0.578788  
      37A      0.578882    38A      0.596476    39A      0.597408  
      40A      0.605196    41A      0.612436    42A      0.652067  
      43A      0.652576    44A      0.668660    45A      0.679108  
      46A      0.692293    47A      0.692754    48A      0.859153  
      49A      0.859160    50A      0.876779    51A      0.878658  
      52A      0.922207    53A      0.950798    54A      0.953830  
      55A      1.005110    56A      1.005993    57A      1.041745  
      58A      1.167414    59A      1.174913    60A      1.194038  
      61A      1.196121    62A      1.257326    63A      1.257511  
      64A      1.330588    65A      1.357647    66A      1.376155  
      67A      1.376668    68A      1.383770    69A      1.385328  
      70A      1.396490    71A      1.471074    72A      1.472415  
      73A      1.505821    74A      1.506562    75A      1.556657  
      76A      1.668470    77A      1.668971    78A      1.696707  
      79A      1.742665    80A      1.862778    81A      1.863913  
      82A      1.871947    83A      1.946331    84A      1.947422  
      85A      2.539767    86A      2.617957    87A      2.672422  
      88A      2.690815    89A      2.758932    90A      2.759027  
      91A      2.771494    92A      2.771737    93A      2.903750  
      94A      2.914193    95A      2.915111    96A      2.937847  
      97A      2.996648    98A      2.998485    99A      3.009766  
     100A      3.012284   101A      3.018562   102A      3.077387  
     103A      3.101299   104A      3.112154   105A      3.112825  
     106A      3.144341   107A      3.144748   108A      3.146195  
     109A      3.263595   110A      3.264454   111A      3.345457  
     112A      3.345955   113A      3.452567   114A      3.454003  
     115A      3.458262   116A      3.462102   117A      3.525535  
     118A      3.528424   119A      3.544600   120A      3.545357  
     121A      3.788403   122A      3.818826   123A      3.839223  
     124A      3.843410   125A      3.940070   126A      4.051259  
     127A      4.056361   128A      4.152040   129A      4.152210  
     130A      4.244606   131A      4.245351   132A      4.255752  
     133A      4.299684   134A      4.299965   135A      4.355203  
     136A      4.391518   137A      4.391780   138A      4.400923  
     139A      4.616984   140A      4.620479   141A      4.631217  
     142A      4.632029   143A      4.949010   144A      4.954038  
     145A      4.962159   146A      4.962238   147A      5.277984  
     148A      5.279423   149A      5.341275   150A      5.341941  
     151A      5.854232   152A      5.878244  

    Final Occupation by Irrep:
              A 
    DOCC [    15 ]

  @DF-RKS Final Energy:  -155.99122006817322

   => Energetics <=

    Nuclear Repulsion Energy =             99.6700755979898787
    One-Electron Energy =                -405.4998817850137698
    Two-Electron Energy =                 169.1919197459099280
    DFT Exchange-Correlation Energy =     -19.3533336270592464
    Empirical Dispersion Energy =           0.0000000000000000
    VV10 Nonlocal Energy =                  0.0000000000000000
    Total Energy =                       -155.9912200681732202

Computation Completed


Properties will be evaluated at   0.000000,   0.000000,   0.000000 [a0]

Properties computed using the SCF density matrix

  Nuclear Dipole Moment: [e a0]
     X:     0.0000      Y:     0.0000      Z:     0.0424

  Electronic Dipole Moment: [e a0]
     X:    -0.0000      Y:    -0.0000      Z:    -0.0362

  Dipole Moment: [e a0]
     X:     0.0000      Y:     0.0000      Z:     0.0062     Total:     0.0062

  Dipole Moment: [D]
     X:     0.0000      Y:     0.0000      Z:     0.0159     Total:     0.0159


*** tstop() called on n088 at Mon Nov 15 12:18:33 2021
Module time:
	user time   =      58.34 seconds =       0.97 minutes
	system time =       1.06 seconds =       0.02 minutes
	total time  =         16 seconds =       0.27 minutes
Total time:
	user time   =      58.34 seconds =       0.97 minutes
	system time =       1.06 seconds =       0.02 minutes
	total time  =         16 seconds =       0.27 minutes
Grab this energy -155.99122006817322
    Psi4 stopped on: Monday, 15 November 2021 12:18PM
    Psi4 wall time for execution: 0:00:15.38

*** Psi4 exiting successfully. Buy a developer a beer!
