
    -----------------------------------------------------------------------
          Psi4: An Open-Source Ab Initio Electronic Structure Package
                               Psi4 1.4a2.dev629 

                         Git: Rev {master} 2938fc2 dirty


    D. G. A. Smith, L. A. Burns, A. C. Simmonett, R. M. Parrish,
    M. C. Schieber, R. Galvelis, P. Kraus, H. Kruse, R. Di Remigio,
    A. Alenaizan, A. M. James, S. Lehtola, J. P. Misiewicz, M. Scheurer,
    R. A. Shaw, J. B. Schriber, Y. Xie, Z. L. Glick, D. A. Sirianni,
    J. S. O'Brien, J. M. Waldrop, A. Kumar, E. G. Hohenstein,
    B. P. Pritchard, B. R. Brooks, H. F. Schaefer III, A. Yu. Sokolov,
    K. Patkowski, A. E. DePrince III, U. Bozkaya, R. A. King,
    F. A. Evangelista, J. M. Turney, T. D. Crawford, C. D. Sherrill,
    J. Chem. Phys. 152(18) 184108 (2020). https://doi.org/10.1063/5.0006002

                            Additional Code Authors
    E. T. Seidl, C. L. Janssen, E. F. Valeev, M. L. Leininger,
    J. F. Gonthier, R. M. Richard, H. R. McAlexander, M. Saitow, X. Wang,
    P. Verma, and M. H. Lechner

             Previous Authors, Complete List of Code Contributors,
                       and Citations for Specific Modules
    https://github.com/psi4/psi4/blob/master/codemeta.json
    https://github.com/psi4/psi4/graphs/contributors
    http://psicode.org/psi4manual/master/introduction.html#citing-psifour

    -----------------------------------------------------------------------


    Psi4 started on: Monday, 15 November 2021 06:17PM

    Process ID: 26805
    Host:       n041
    PSIDATADIR: /opt/psi/4/master/share/psi4
    Memory:     500.0 MiB
    Threads:    4
    
  ==> Input File <==

--------------------------------------------------------------------------
import os
memory 14 GB 
 
molecule {
 N   -0.0000000000   -0.0000000000   -2.1220650551
 C   -0.0012722330    2.1266484136   -0.6255436313
 C    0.0012722330   -2.1266484136   -0.6255436313
 C   -0.0020248363   -1.3472676120    1.8606217740
 C    0.0020248363    1.3472676120    1.8606217740
 H   -0.0038876049    3.9876740725   -1.4474112332
 H    0.0038876049   -3.9876740725   -1.4474112332
 H   -0.0060116702   -2.5748791550    3.4882690141
 H    0.0060116702    2.5748791550    3.4882690141
 H    0.0000000000    0.0000000000   -4.0146228121
units bohr
}

basis {

assign 6-31g_2dfp_

[ 6-31g_2dfp_ ]

spherical

!----------------------------------------------------------------------
! Basis Set Exchange
! Version v0.8.13
! https://www.basissetexchange.org
!----------------------------------------------------------------------
!   Basis set: 6-31G(2df,p)
! Description: 6-31G(2df,p)
!        Role: orbital
!     Version: 0  (Data from the original Basis Set Exchange)
!----------------------------------------------------------------------


****
H     0
S    3   1.00
     18.7311370              0.03349460
      2.8253937              0.23472695
      0.6401217              0.81375733
S    1   1.00
      0.1612778              1.00000000
P    1   1.00
      1.5000000              1.0000000
P    1   1.00
      0.3750000              1.0000000
****
B     0
S    6   1.00
   2068.8823000              0.0018663
    310.6495700              0.0142515
     70.6830330              0.0695516
     19.8610800              0.2325729
      6.2993048              0.4670787
      2.1270270              0.3634314
SP   3   1.00
      4.7279710             -0.1303938              0.0745976
      1.1903377             -0.1307889              0.3078467
      0.3594117              1.1309444              0.7434568
SP   1   1.00
      0.1267512              1.0000000              1.0000000
D    1   1.00
      0.8020000              1.0000000
D    1   1.00
      0.2005000              1.0000000
F    1   1.00
      0.5000000              1.0000000
****
C     0
S    6   1.00
   3047.5249000              0.0018347
    457.3695100              0.0140373
    103.9486900              0.0688426
     29.2101550              0.2321844
      9.2866630              0.4679413
      3.1639270              0.3623120
SP   3   1.00
      7.8682724             -0.1193324              0.0689991
      1.8812885             -0.1608542              0.3164240
      0.5442493              1.1434564              0.7443083
SP   1   1.00
      0.1687144              1.0000000              1.0000000
D    1   1.00
      1.2520000              1.0000000
D    1   1.00
      0.3130000              1.0000000
F    1   1.00
      0.8000000              1.0000000
****
N     0
S    6   1.00
   4173.5110000              0.0018348
    627.4579000              0.0139950
    142.9021000              0.0685870
     40.2343300              0.2322410
     12.8202100              0.4690700
      4.3904370              0.3604550
SP   3   1.00
     11.6263580             -0.1149610              0.0675800
      2.7162800             -0.1691180              0.3239070
      0.7722180              1.1458520              0.7408950
SP   1   1.00
      0.2120313              1.0000000              1.0000000
D    1   1.00
      1.8260000              1.0000000
D    1   1.00
      0.4565000              1.0000000
F    1   1.00
      1.0000000              1.0000000
****
O     0
S    6   1.00
   5484.6717000              0.0018311
    825.2349500              0.0139501
    188.0469600              0.0684451
     52.9645000              0.2327143
     16.8975700              0.4701930
      5.7996353              0.3585209
SP   3   1.00
     15.5396160             -0.1107775              0.0708743
      3.5999336             -0.1480263              0.3397528
      1.0137618              1.1307670              0.7271586
SP   1   1.00
      0.2700058              1.0000000              1.0000000
D    1   1.00
      2.5840000              1.0000000
D    1   1.00
      0.6460000              1.0000000
F    1   1.00
      1.4000000              1.0000000
****
F     0
S    6   1.00
   7001.7130900              0.0018196169
   1051.3660900              0.0139160796
    239.2856900              0.0684053245
     67.3974453              0.233185760
     21.5199573              0.471267439
      7.40310130             0.356618546
SP   3   1.00
     20.8479528             -0.108506975            0.0716287243
      4.80830834            -0.146451658            0.3459121030
      1.34406986             1.128688580            0.7224699570
SP   1   1.00
      0.358151393            1.0000000              1.0000000
D    1   1.00
      3.5000000              1.0000000
D    1   1.00
      0.8750000              1.0000000
F    1   1.00
      1.8500000              1.0000000
****
Al     0
S    6   1.00
  13983.1000000              0.00194267
   2098.7500000              0.0148599
    477.7050000              0.0728494
    134.3600000              0.2468300
     42.8709000              0.4872580
     14.5189000              0.3234960
SP   6   1.00
    239.6680000             -0.00292619             0.00460285
     57.4419000             -0.0374080              0.0331990
     18.2859000             -0.1144870              0.1362820
      6.5991400              0.1156350              0.3304760
      2.4904900              0.6125950              0.4491460
      0.9445400              0.3937990              0.2657040
SP   3   1.00
      1.2779000             -0.2276060             -0.0175130
      0.3975900              0.00144583             0.2445330
      0.1600950              1.0927900              0.8049340
SP   1   1.00
      0.0556577              1.0000000              1.0000000
D    1   1.00
      0.6500000              1.0000000
D    1   1.00
      0.1625000              1.0000000
F    1   1.00
      0.2500000              1.0000000
****
Si     0
S    6   1.00
  16115.9000000              0.00195948
   2425.5800000              0.01492880
    553.8670000              0.07284780
    156.3400000              0.24613000
     50.0683000              0.48591400
     17.0178000              0.32500200
SP   6   1.00
    292.7180000             -0.00278094             0.00443826
     69.8731000             -0.03571460             0.03266790
     22.3363000             -0.11498500             0.13472100
      8.1503900              0.09356340             0.32867800
      3.1345800              0.60301700             0.44964000
      1.2254300              0.41895900             0.26137200
SP   3   1.00
      1.7273800             -0.24463000            -0.01779510
      0.5729220              0.00431572             0.25353900
      0.2221920              1.09818000             0.80066900
SP   1   1.00
      0.0778369              1.00000000             1.00000000
D    1   1.00
      0.9000000              1.0000000
D    1   1.00
      0.2250000              1.0000000
F    1   1.00
      0.3200000              1.0000000
****
P     0
S    6   1.00
  19413.3000000              0.0018516
   2909.4200000              0.0142062
    661.3640000              0.0699995
    185.7590000              0.2400790
     59.1943000              0.4847620
     20.0310000              0.3352000
SP   6   1.00
    339.4780000             -0.00278217             0.00456462
     81.0101000             -0.0360499              0.03369360
     25.8780000             -0.1166310              0.13975500
      9.4522100              0.0968328              0.33936200
      3.6656600              0.6144180              0.45092100
      1.4674600              0.4037980              0.23858600
SP   3   1.00
      2.1562300             -0.2529230             -0.01776530
      0.7489970              0.0328517              0.27405800
      0.2831450              1.0812500              0.78542100
SP   1   1.00
      0.0998317              1.0000000              1.00000000
D    1   1.00
      1.1000000              1.0000000
D    1   1.00
      0.2750000              1.0000000
F    1   1.00
      0.4500000              1.0000000
****
S     0
S    6   1.00
  21917.1000000              0.0018690
   3301.4900000              0.0142300
    754.1460000              0.0696960
    212.7110000              0.2384870
     67.9896000              0.4833070
     23.0515000              0.3380740
SP   6   1.00
    423.7350000             -0.0023767              0.0040610
    100.7100000             -0.0316930              0.0306810
     32.1599000             -0.1133170              0.1304520
     11.8079000              0.0560900              0.3272050
      4.6311000              0.5922550              0.4528510
      1.8702500              0.4550060              0.2560420
SP   3   1.00
      2.6158400             -0.2503740             -0.0145110
      0.9221670              0.0669570              0.3102630
      0.3412870              1.0545100              0.7544830
SP   1   1.00
      0.1171670              1.0000000              1.0000000
D    1   1.00
      1.3000000              1.0000000
D    1   1.00
      0.3250000              1.0000000
F    1   1.00
      0.5500000              1.0000000
****
Cl     0
S    6   1.00
  25180.1000000              0.0018330
   3780.3500000              0.0140340
    860.4740000              0.0690970
    242.1450000              0.2374520
     77.3349000              0.4830340
     26.2470000              0.3398560
SP   6   1.00
    491.7650000             -0.0022974              0.0039894
    116.9840000             -0.0307140              0.0303180
     37.4153000             -0.1125280              0.1298800
     13.7834000              0.0450160              0.3279510
      5.4521500              0.5893530              0.4535270
      2.2258800              0.4652060              0.2521540
SP   3   1.00
      3.1864900             -0.2518300             -0.0142990
      1.1442700              0.0615890              0.3235720
      0.4203770              1.0601800              0.7435070
SP   1   1.00
      0.1426570              1.0000000              1.0000000
D    1   1.00
      1.5000000              1.0000000
D    1   1.00
      0.3750000              1.0000000
F    1   1.00
      0.7000000              1.0000000
****
}


set {
reference rhf                          
freeze_core true
e_convergence 10                       
d_convergence 10                      
dft_spherical_points 1202
dft_radial_points 99
}

e = energy('b3lyp')

print_out('Grab this energy {0}'.format(e))
--------------------------------------------------------------------------

  Memory set to  13.039 GiB by Python driver.

Scratch directory: /tmp/

*** tstart() called on n041
*** at Mon Nov 15 18:17:49 2021

   => Loading Basis Set <=

    Name: ANONYMOUS3486AE2A
    Role: ORBITAL
    Keyword: BASIS
    atoms 1    entry N          line    69 inputblock 6-31g_2dfp_ 
    atoms 2-5  entry C          line    48 inputblock 6-31g_2dfp_ 
    atoms 6-10 entry H          line    15 inputblock 6-31g_2dfp_ 


         ---------------------------------------------------------
                                   SCF
               by Justin Turney, Rob Parrish, Andy Simmonett
                          and Daniel G. A. Smith
                              RKS Reference
                        4 Threads,  13351 MiB Core
         ---------------------------------------------------------

  ==> Geometry <==

    Molecular point group: c2
    Full point group: C2

    Geometry (in Bohr), charge = 0, multiplicity = 1:

       Center              X                  Y                   Z               Mass       
    ------------   -----------------  -----------------  -----------------  -----------------
         N            0.000000000000     0.000000000000    -2.121976441787    14.003074004430
         C           -0.001272233000     2.126648413600    -0.625455017987    12.000000000000
         C            0.001272233000    -2.126648413600    -0.625455017987    12.000000000000
         C           -0.002024836300    -1.347267612000     1.860710387313    12.000000000000
         C            0.002024836300     1.347267612000     1.860710387313    12.000000000000
         H           -0.003887604900     3.987674072500    -1.447322619887     1.007825032230
         H            0.003887604900    -3.987674072500    -1.447322619887     1.007825032230
         H           -0.006011670200    -2.574879155000     3.488357627413     1.007825032230
         H            0.006011670200     2.574879155000     3.488357627413     1.007825032230
         H            0.000000000000     0.000000000000    -4.014534198787     1.007825032230

  Running in c2 symmetry.

  Rotational constants: A =      0.30477  B =      0.30021  C =      0.15124 [cm^-1]
  Rotational constants: A =   9136.89946  B =   8999.94022  C =   4533.95684 [MHz]
  Nuclear repulsion =  160.762260662664659

  Charge       = 0
  Multiplicity = 1
  Electrons    = 36
  Nalpha       = 18
  Nbeta        = 18

  ==> Algorithm <==

  SCF Algorithm Type is DF.
  DIIS enabled.
  MOM disabled.
  Fractional occupation disabled.
  Guess Type is SAD.
  Energy threshold   = 1.00e-10
  Density threshold  = 1.00e-10
  Integral threshold = 0.00e+00

  ==> Primary Basis <==

  Basis Set: ANONYMOUS3486AE2A
    Blend: 6-31G_2DFP_
    Number of shells: 60
    Number of basis function: 170
    Number of Cartesian functions: 195
    Spherical Harmonics?: true
    Max angular momentum: 3

  ==> DFT Potential <==

   => Composite Functional: B3LYP <= 

    B3LYP Hyb-GGA Exchange-Correlation Functional

    P. J. Stephens, F. J. Devlin, C. F. Chabalowski, and M. J. Frisch, J. Phys. Chem. 98, 11623 (1994)

    Deriv               =              1
    GGA                 =           TRUE
    Meta                =          FALSE

    Exchange Hybrid     =           TRUE
    MP2 Hybrid          =          FALSE

   => Exchange Functionals <=

    0.0800   Slater exchange
    0.7200         Becke 88

   => Exact (HF) Exchange <=

    0.2000               HF 

   => Correlation Functionals <=

    0.1900   Vosko, Wilk & Nusair (VWN5_RPA)
    0.8100   Lee, Yang & Parr

   => Molecular Quadrature <=

    Radial Scheme          =       TREUTLER
    Pruning Scheme         =           NONE
    Nuclear Scheme         =       TREUTLER

    BS radius alpha        =              1
    Pruning alpha          =              1
    Radial Points          =             99
    Spherical Points       =           1202
    Total Points           =        1106051
    Total Blocks           =           7427
    Max Points             =            256
    Max Functions          =            170
    Weights Tolerance      =       1.00E-15

   => Loading Basis Set <=

    Name: (ANONYMOUS3486AE2A AUX)
    Role: JKFIT
    Keyword: DF_BASIS_SCF
    atoms 1    entry N          line   258 file /opt/psi/4/master/share/psi4/basis/def2-universal-jkfit.gbs 
    atoms 2-5  entry C          line   198 file /opt/psi/4/master/share/psi4/basis/def2-universal-jkfit.gbs 
    atoms 6-10 entry H          line    18 file /opt/psi/4/master/share/psi4/basis/def2-universal-jkfit.gbs 

  ==> Integral Setup <==

  DFHelper Memory: AOs need 0.108 GiB; user supplied 5.258 GiB. Using in-core AOs.

  ==> MemDFJK: Density-Fitted J/K Matrices <==

    J tasked:                   Yes
    K tasked:                   Yes
    wK tasked:                   No
    OpenMP threads:               4
    Memory [MiB]:              5383
    Algorithm:                 Core
    Schwarz Cutoff:           1E-12
    Mask sparsity (%):       0.8166
    Fitting Condition:        1E-10

   => Auxiliary Basis Set <=

  Basis Set: (ANONYMOUS3486AE2A AUX)
    Blend: DEF2-UNIVERSAL-JKFIT
    Number of shells: 155
    Number of basis function: 467
    Number of Cartesian functions: 549
    Spherical Harmonics?: true
    Max angular momentum: 4

  Cached 100.0% of DFT collocation blocks in 4.521 [GiB].

  Minimum eigenvalue in the overlap matrix is 3.1793627586E-04.
  Reciprocal condition number of the overlap matrix is 5.4166366369E-05.
    Using symmetric orthogonalization.

  ==> Pre-Iterations <==

  SCF Guess: Superposition of Atomic Densities via on-the-fly atomic UHF (no occupation information).

   -------------------------
    Irrep   Nso     Nmo    
   -------------------------
     A         86      86 
     B         84      84 
   -------------------------
    Total     170     170
   -------------------------

  ==> Iterations <==

                           Total Energy        Delta E     RMS |[F,P]|

   @DF-RKS iter SAD:  -209.89132037404624   -2.09891e+02   0.00000e+00 
   @DF-RKS iter   1:  -209.87085651833777    2.04639e-02   6.26862e-03 DIIS
   @DF-RKS iter   2:  -209.70410803922860    1.66748e-01   7.99647e-03 DIIS
   @DF-RKS iter   3:  -210.18013594944358   -4.76028e-01   6.58366e-04 DIIS
   @DF-RKS iter   4:  -210.18155212361839   -1.41617e-03   4.65953e-04 DIIS
   @DF-RKS iter   5:  -210.18307086699113   -1.51874e-03   1.44744e-04 DIIS
   @DF-RKS iter   6:  -210.18320600324054   -1.35136e-04   5.06287e-05 DIIS
   @DF-RKS iter   7:  -210.18322157077932   -1.55675e-05   3.52136e-06 DIIS
   @DF-RKS iter   8:  -210.18322165175468   -8.09754e-08   2.67349e-07 DIIS
   @DF-RKS iter   9:  -210.18322165235500   -6.00323e-10   8.70352e-08 DIIS
   @DF-RKS iter  10:  -210.18322165241906   -6.40625e-11   1.48116e-08 DIIS
   @DF-RKS iter  11:  -210.18322165242060   -1.53477e-12   1.70399e-09 DIIS
   @DF-RKS iter  12:  -210.18322165242091   -3.12639e-13   3.92529e-10 DIIS
   @DF-RKS iter  13:  -210.18322165242091    0.00000e+00   5.44006e-11 DIIS
  Energy and wave function converged.


  ==> Post-Iterations <==

    Orbital Energies [Eh]
    ---------------------

    Doubly Occupied:                                                      

       1A    -14.367651     1B    -10.190328     2A    -10.190272  
       3A    -10.154727     2B    -10.154385     4A     -0.962924  
       5A     -0.760919     3B     -0.709028     6A     -0.580255  
       4B     -0.554347     7A     -0.534777     8A     -0.419644  
       5B     -0.413353     6B     -0.395642     7B     -0.378819  
       9A     -0.364597     8B     -0.234730    10A     -0.203513  

    Virtual:                                                              

       9B      0.046664    11A      0.074666    12A      0.091367  
      13A      0.133332    10B      0.147945    14A      0.157200  
      11B      0.166166    12B      0.231303    15A      0.233905  
      16A      0.305608    13B      0.310398    17A      0.383118  
      14B      0.427689    15B      0.446339    18A      0.464311  
      16B      0.484629    19A      0.490096    20A      0.496312  
      17B      0.505193    21A      0.530471    18B      0.554542  
      19B      0.575083    22A      0.613054    20B      0.618073  
      23A      0.631693    21B      0.660795    24A      0.697305  
      22B      0.704200    23B      0.713009    24B      0.728786  
      25A      0.737356    26A      0.752207    27A      0.761887  
      28A      0.783726    25B      0.787255    26B      0.789976  
      27B      0.916506    29A      0.931314    28B      0.952282  
      29B      0.971473    30A      1.000116    31A      1.047636  
      32A      1.065133    30B      1.099921    31B      1.123091  
      33A      1.129121    32B      1.153205    33B      1.158383  
      34A      1.186318    35A      1.204072    34B      1.292379  
      36A      1.292637    35B      1.329671    36B      1.342419  
      37A      1.342756    38A      1.375381    37B      1.385582  
      39A      1.468575    40A      1.496155    41A      1.500515  
      38B      1.558324    42A      1.592194    43A      1.613228  
      39B      1.621020    40B      1.627382    44A      1.652210  
      45A      1.816213    41B      1.822754    42B      1.913450  
      43B      2.128651    46A      2.151968    47A      2.207145  
      44B      2.253157    45B      2.439369    48A      2.463976  
      46B      2.606043    47B      2.687576    49A      2.692420  
      50A      2.761441    51A      2.797285    48B      2.826190  
      49B      2.867672    52A      2.881620    53A      2.949039  
      50B      2.956491    51B      3.008425    54A      3.045225  
      55A      3.060662    52B      3.086371    53B      3.101232  
      56A      3.128032    54B      3.179682    55B      3.215610  
      57A      3.233079    56B      3.256645    58A      3.271210  
      59A      3.293291    57B      3.311215    60A      3.350443  
      61A      3.353668    58B      3.413362    59B      3.442059  
      62A      3.465243    63A      3.465676    60B      3.479867  
      61B      3.517506    64A      3.575556    65A      3.613746  
      62B      3.629830    63B      3.698248    66A      3.734496  
      67A      3.764830    64B      3.792119    65B      3.800225  
      68A      3.907853    66B      3.935685    69A      3.952003  
      67B      4.066692    68B      4.086310    70A      4.096301  
      71A      4.128002    69B      4.151241    70B      4.187131  
      72A      4.230060    71B      4.304053    73A      4.307447  
      72B      4.332164    74A      4.359839    73B      4.403735  
      74B      4.431562    75A      4.465847    76A      4.540669  
      75B      4.645490    77A      4.669836    76B      4.785957  
      77B      4.810834    78A      4.894195    79A      4.914406  
      80A      5.039413    78B      5.041633    81A      5.107558  
      79B      5.127122    80B      5.162737    82A      5.172363  
      83A      5.333856    81B      5.552334    84A      5.595561  
      85A      5.604352    82B      5.619231    83B      5.921700  
      86A      5.931409    84B      6.106644  

    Final Occupation by Irrep:
              A     B 
    DOCC [    10,    8 ]

  @DF-RKS Final Energy:  -210.18322165242091

   => Energetics <=

    Nuclear Repulsion Energy =            160.7622606626646586
    One-Electron Energy =                -600.9929697432988860
    Two-Electron Energy =                 254.7493898164502468
    DFT Exchange-Correlation Energy =     -24.7019023882368955
    Empirical Dispersion Energy =           0.0000000000000000
    VV10 Nonlocal Energy =                  0.0000000000000000
    Total Energy =                       -210.1832216524209116

Computation Completed


Properties will be evaluated at   0.000000,   0.000000,   0.000000 [a0]

Properties computed using the SCF density matrix

  Nuclear Dipole Moment: [e a0]
     X:     0.0000      Y:     0.0000      Z:     0.0368

  Electronic Dipole Moment: [e a0]
     X:     0.0000      Y:     0.0000      Z:    -0.7554

  Dipole Moment: [e a0]
     X:     0.0000      Y:     0.0000      Z:    -0.7186     Total:     0.7186

  Dipole Moment: [D]
     X:     0.0000      Y:     0.0000      Z:    -1.8265     Total:     1.8265


*** tstop() called on n041 at Mon Nov 15 18:18:23 2021
Module time:
	user time   =     132.78 seconds =       2.21 minutes
	system time =       1.16 seconds =       0.02 minutes
	total time  =         34 seconds =       0.57 minutes
Total time:
	user time   =     132.78 seconds =       2.21 minutes
	system time =       1.16 seconds =       0.02 minutes
	total time  =         34 seconds =       0.57 minutes
Grab this energy -210.1832216524209
    Psi4 stopped on: Monday, 15 November 2021 06:18PM
    Psi4 wall time for execution: 0:00:34.74

*** Psi4 exiting successfully. Buy a developer a beer!
