
    -----------------------------------------------------------------------
          Psi4: An Open-Source Ab Initio Electronic Structure Package
                               Psi4 1.4a2.dev629 

                         Git: Rev {master} 2938fc2 dirty


    D. G. A. Smith, L. A. Burns, A. C. Simmonett, R. M. Parrish,
    M. C. Schieber, R. Galvelis, P. Kraus, H. Kruse, R. Di Remigio,
    A. Alenaizan, A. M. James, S. Lehtola, J. P. Misiewicz, M. Scheurer,
    R. A. Shaw, J. B. Schriber, Y. Xie, Z. L. Glick, D. A. Sirianni,
    J. S. O'Brien, J. M. Waldrop, A. Kumar, E. G. Hohenstein,
    B. P. Pritchard, B. R. Brooks, H. F. Schaefer III, A. Yu. Sokolov,
    K. Patkowski, A. E. DePrince III, U. Bozkaya, R. A. King,
    F. A. Evangelista, J. M. Turney, T. D. Crawford, C. D. Sherrill,
    J. Chem. Phys. 152(18) 184108 (2020). https://doi.org/10.1063/5.0006002

                            Additional Code Authors
    E. T. Seidl, C. L. Janssen, E. F. Valeev, M. L. Leininger,
    J. F. Gonthier, R. M. Richard, H. R. McAlexander, M. Saitow, X. Wang,
    P. Verma, and M. H. Lechner

             Previous Authors, Complete List of Code Contributors,
                       and Citations for Specific Modules
    https://github.com/psi4/psi4/blob/master/codemeta.json
    https://github.com/psi4/psi4/graphs/contributors
    http://psicode.org/psi4manual/master/introduction.html#citing-psifour

    -----------------------------------------------------------------------


    Psi4 started on: Monday, 15 November 2021 06:14PM

    Process ID: 18507
    Host:       n022
    PSIDATADIR: /opt/psi/4/master/share/psi4
    Memory:     500.0 MiB
    Threads:    4
    
  ==> Input File <==

--------------------------------------------------------------------------
import os
memory 14 GB 
 
molecule {
 N   -0.0000000000    0.0027162442   -2.1179609916
 C    0.0000000000    2.1220047428   -0.6291882681
 C   -0.0000000000   -2.1264146749   -0.6283204202
 C    0.0000000000   -1.3503983853    1.8609760945
 C   -0.0000000000    1.3521998013    1.8629142796
 H    0.0000000000    3.9889356202   -1.4465555973
 H   -0.0000000000   -3.9878108913   -1.4465077888
 H   -0.0000000000   -2.5740090855    3.4880890278
 H   -0.0000000000    2.5734238605    3.4875880183
 H    0.0000000000   -0.0006472319   -4.0158503742
units bohr
}

basis {

assign 6-31g_2dfp_

[ 6-31g_2dfp_ ]

spherical

!----------------------------------------------------------------------
! Basis Set Exchange
! Version v0.8.13
! https://www.basissetexchange.org
!----------------------------------------------------------------------
!   Basis set: 6-31G(2df,p)
! Description: 6-31G(2df,p)
!        Role: orbital
!     Version: 0  (Data from the original Basis Set Exchange)
!----------------------------------------------------------------------


****
H     0
S    3   1.00
     18.7311370              0.03349460
      2.8253937              0.23472695
      0.6401217              0.81375733
S    1   1.00
      0.1612778              1.00000000
P    1   1.00
      1.5000000              1.0000000
P    1   1.00
      0.3750000              1.0000000
****
B     0
S    6   1.00
   2068.8823000              0.0018663
    310.6495700              0.0142515
     70.6830330              0.0695516
     19.8610800              0.2325729
      6.2993048              0.4670787
      2.1270270              0.3634314
SP   3   1.00
      4.7279710             -0.1303938              0.0745976
      1.1903377             -0.1307889              0.3078467
      0.3594117              1.1309444              0.7434568
SP   1   1.00
      0.1267512              1.0000000              1.0000000
D    1   1.00
      0.8020000              1.0000000
D    1   1.00
      0.2005000              1.0000000
F    1   1.00
      0.5000000              1.0000000
****
C     0
S    6   1.00
   3047.5249000              0.0018347
    457.3695100              0.0140373
    103.9486900              0.0688426
     29.2101550              0.2321844
      9.2866630              0.4679413
      3.1639270              0.3623120
SP   3   1.00
      7.8682724             -0.1193324              0.0689991
      1.8812885             -0.1608542              0.3164240
      0.5442493              1.1434564              0.7443083
SP   1   1.00
      0.1687144              1.0000000              1.0000000
D    1   1.00
      1.2520000              1.0000000
D    1   1.00
      0.3130000              1.0000000
F    1   1.00
      0.8000000              1.0000000
****
N     0
S    6   1.00
   4173.5110000              0.0018348
    627.4579000              0.0139950
    142.9021000              0.0685870
     40.2343300              0.2322410
     12.8202100              0.4690700
      4.3904370              0.3604550
SP   3   1.00
     11.6263580             -0.1149610              0.0675800
      2.7162800             -0.1691180              0.3239070
      0.7722180              1.1458520              0.7408950
SP   1   1.00
      0.2120313              1.0000000              1.0000000
D    1   1.00
      1.8260000              1.0000000
D    1   1.00
      0.4565000              1.0000000
F    1   1.00
      1.0000000              1.0000000
****
O     0
S    6   1.00
   5484.6717000              0.0018311
    825.2349500              0.0139501
    188.0469600              0.0684451
     52.9645000              0.2327143
     16.8975700              0.4701930
      5.7996353              0.3585209
SP   3   1.00
     15.5396160             -0.1107775              0.0708743
      3.5999336             -0.1480263              0.3397528
      1.0137618              1.1307670              0.7271586
SP   1   1.00
      0.2700058              1.0000000              1.0000000
D    1   1.00
      2.5840000              1.0000000
D    1   1.00
      0.6460000              1.0000000
F    1   1.00
      1.4000000              1.0000000
****
F     0
S    6   1.00
   7001.7130900              0.0018196169
   1051.3660900              0.0139160796
    239.2856900              0.0684053245
     67.3974453              0.233185760
     21.5199573              0.471267439
      7.40310130             0.356618546
SP   3   1.00
     20.8479528             -0.108506975            0.0716287243
      4.80830834            -0.146451658            0.3459121030
      1.34406986             1.128688580            0.7224699570
SP   1   1.00
      0.358151393            1.0000000              1.0000000
D    1   1.00
      3.5000000              1.0000000
D    1   1.00
      0.8750000              1.0000000
F    1   1.00
      1.8500000              1.0000000
****
Al     0
S    6   1.00
  13983.1000000              0.00194267
   2098.7500000              0.0148599
    477.7050000              0.0728494
    134.3600000              0.2468300
     42.8709000              0.4872580
     14.5189000              0.3234960
SP   6   1.00
    239.6680000             -0.00292619             0.00460285
     57.4419000             -0.0374080              0.0331990
     18.2859000             -0.1144870              0.1362820
      6.5991400              0.1156350              0.3304760
      2.4904900              0.6125950              0.4491460
      0.9445400              0.3937990              0.2657040
SP   3   1.00
      1.2779000             -0.2276060             -0.0175130
      0.3975900              0.00144583             0.2445330
      0.1600950              1.0927900              0.8049340
SP   1   1.00
      0.0556577              1.0000000              1.0000000
D    1   1.00
      0.6500000              1.0000000
D    1   1.00
      0.1625000              1.0000000
F    1   1.00
      0.2500000              1.0000000
****
Si     0
S    6   1.00
  16115.9000000              0.00195948
   2425.5800000              0.01492880
    553.8670000              0.07284780
    156.3400000              0.24613000
     50.0683000              0.48591400
     17.0178000              0.32500200
SP   6   1.00
    292.7180000             -0.00278094             0.00443826
     69.8731000             -0.03571460             0.03266790
     22.3363000             -0.11498500             0.13472100
      8.1503900              0.09356340             0.32867800
      3.1345800              0.60301700             0.44964000
      1.2254300              0.41895900             0.26137200
SP   3   1.00
      1.7273800             -0.24463000            -0.01779510
      0.5729220              0.00431572             0.25353900
      0.2221920              1.09818000             0.80066900
SP   1   1.00
      0.0778369              1.00000000             1.00000000
D    1   1.00
      0.9000000              1.0000000
D    1   1.00
      0.2250000              1.0000000
F    1   1.00
      0.3200000              1.0000000
****
P     0
S    6   1.00
  19413.3000000              0.0018516
   2909.4200000              0.0142062
    661.3640000              0.0699995
    185.7590000              0.2400790
     59.1943000              0.4847620
     20.0310000              0.3352000
SP   6   1.00
    339.4780000             -0.00278217             0.00456462
     81.0101000             -0.0360499              0.03369360
     25.8780000             -0.1166310              0.13975500
      9.4522100              0.0968328              0.33936200
      3.6656600              0.6144180              0.45092100
      1.4674600              0.4037980              0.23858600
SP   3   1.00
      2.1562300             -0.2529230             -0.01776530
      0.7489970              0.0328517              0.27405800
      0.2831450              1.0812500              0.78542100
SP   1   1.00
      0.0998317              1.0000000              1.00000000
D    1   1.00
      1.1000000              1.0000000
D    1   1.00
      0.2750000              1.0000000
F    1   1.00
      0.4500000              1.0000000
****
S     0
S    6   1.00
  21917.1000000              0.0018690
   3301.4900000              0.0142300
    754.1460000              0.0696960
    212.7110000              0.2384870
     67.9896000              0.4833070
     23.0515000              0.3380740
SP   6   1.00
    423.7350000             -0.0023767              0.0040610
    100.7100000             -0.0316930              0.0306810
     32.1599000             -0.1133170              0.1304520
     11.8079000              0.0560900              0.3272050
      4.6311000              0.5922550              0.4528510
      1.8702500              0.4550060              0.2560420
SP   3   1.00
      2.6158400             -0.2503740             -0.0145110
      0.9221670              0.0669570              0.3102630
      0.3412870              1.0545100              0.7544830
SP   1   1.00
      0.1171670              1.0000000              1.0000000
D    1   1.00
      1.3000000              1.0000000
D    1   1.00
      0.3250000              1.0000000
F    1   1.00
      0.5500000              1.0000000
****
Cl     0
S    6   1.00
  25180.1000000              0.0018330
   3780.3500000              0.0140340
    860.4740000              0.0690970
    242.1450000              0.2374520
     77.3349000              0.4830340
     26.2470000              0.3398560
SP   6   1.00
    491.7650000             -0.0022974              0.0039894
    116.9840000             -0.0307140              0.0303180
     37.4153000             -0.1125280              0.1298800
     13.7834000              0.0450160              0.3279510
      5.4521500              0.5893530              0.4535270
      2.2258800              0.4652060              0.2521540
SP   3   1.00
      3.1864900             -0.2518300             -0.0142990
      1.1442700              0.0615890              0.3235720
      0.4203770              1.0601800              0.7435070
SP   1   1.00
      0.1426570              1.0000000              1.0000000
D    1   1.00
      1.5000000              1.0000000
D    1   1.00
      0.3750000              1.0000000
F    1   1.00
      0.7000000              1.0000000
****
}


set {
reference rhf                          
freeze_core true
e_convergence 10                       
d_convergence 10                      
dft_spherical_points 1202
dft_radial_points 99
}

e = energy('b3lyp')

print_out('Grab this energy {0}'.format(e))
--------------------------------------------------------------------------

  Memory set to  13.039 GiB by Python driver.

Scratch directory: /tmp/

*** tstart() called on n022
*** at Mon Nov 15 18:14:33 2021

   => Loading Basis Set <=

    Name: ANONYMOUS4D7891D4
    Role: ORBITAL
    Keyword: BASIS
    atoms 1    entry N          line    69 inputblock 6-31g_2dfp_ 
    atoms 2-5  entry C          line    48 inputblock 6-31g_2dfp_ 
    atoms 6-10 entry H          line    15 inputblock 6-31g_2dfp_ 


         ---------------------------------------------------------
                                   SCF
               by Justin Turney, Rob Parrish, Andy Simmonett
                          and Daniel G. A. Smith
                              RKS Reference
                        4 Threads,  13351 MiB Core
         ---------------------------------------------------------

  ==> Geometry <==

    Molecular point group: cs
    Full point group: Cs

    Geometry (in Bohr), charge = 0, multiplicity = 1:

       Center              X                  Y                   Z               Mass       
    ------------   -----------------  -----------------  -----------------  -----------------
         N           -0.002617425777     2.118049017298     0.000000000000    14.003074004430
         C           -2.121905924377     0.629276293798     0.000000000000    12.000000000000
         C            2.126513493323     0.628408445898     0.000000000000    12.000000000000
         C            1.350497203723    -1.860888068802     0.000000000000    12.000000000000
         C           -1.352100982877    -1.862826253902     0.000000000000    12.000000000000
         H           -3.988836801777     1.446643622998     0.000000000000     1.007825032230
         H            3.987909709723     1.446595814498     0.000000000000     1.007825032230
         H            2.574107903923    -3.488001002102     0.000000000000     1.007825032230
         H           -2.573325042077    -3.487499992602     0.000000000000     1.007825032230
         H            0.000746050323     4.015938399898     0.000000000000     1.007825032230

  Running in cs symmetry.

  Rotational constants: A =      0.30476  B =      0.30025  C =      0.15124 [cm^-1]
  Rotational constants: A =   9136.36858  B =   9001.29789  C =   4534.16515 [MHz]
  Nuclear repulsion =  160.774187127434686

  Charge       = 0
  Multiplicity = 1
  Electrons    = 36
  Nalpha       = 18
  Nbeta        = 18

  ==> Algorithm <==

  SCF Algorithm Type is DF.
  DIIS enabled.
  MOM disabled.
  Fractional occupation disabled.
  Guess Type is SAD.
  Energy threshold   = 1.00e-10
  Density threshold  = 1.00e-10
  Integral threshold = 0.00e+00

  ==> Primary Basis <==

  Basis Set: ANONYMOUS4D7891D4
    Blend: 6-31G_2DFP_
    Number of shells: 60
    Number of basis function: 170
    Number of Cartesian functions: 195
    Spherical Harmonics?: true
    Max angular momentum: 3

  ==> DFT Potential <==

   => Composite Functional: B3LYP <= 

    B3LYP Hyb-GGA Exchange-Correlation Functional

    P. J. Stephens, F. J. Devlin, C. F. Chabalowski, and M. J. Frisch, J. Phys. Chem. 98, 11623 (1994)

    Deriv               =              1
    GGA                 =           TRUE
    Meta                =          FALSE

    Exchange Hybrid     =           TRUE
    MP2 Hybrid          =          FALSE

   => Exchange Functionals <=

    0.0800   Slater exchange
    0.7200         Becke 88

   => Exact (HF) Exchange <=

    0.2000               HF 

   => Correlation Functionals <=

    0.1900   Vosko, Wilk & Nusair (VWN5_RPA)
    0.8100   Lee, Yang & Parr

   => Molecular Quadrature <=

    Radial Scheme          =       TREUTLER
    Pruning Scheme         =           NONE
    Nuclear Scheme         =       TREUTLER

    BS radius alpha        =              1
    Pruning alpha          =              1
    Radial Points          =             99
    Spherical Points       =           1202
    Total Points           =        1106037
    Total Blocks           =           7465
    Max Points             =            256
    Max Functions          =            170
    Weights Tolerance      =       1.00E-15

   => Loading Basis Set <=

    Name: (ANONYMOUS4D7891D4 AUX)
    Role: JKFIT
    Keyword: DF_BASIS_SCF
    atoms 1    entry N          line   258 file /opt/psi/4/master/share/psi4/basis/def2-universal-jkfit.gbs 
    atoms 2-5  entry C          line   198 file /opt/psi/4/master/share/psi4/basis/def2-universal-jkfit.gbs 
    atoms 6-10 entry H          line    18 file /opt/psi/4/master/share/psi4/basis/def2-universal-jkfit.gbs 

  ==> Integral Setup <==

  DFHelper Memory: AOs need 0.108 GiB; user supplied 5.265 GiB. Using in-core AOs.

  ==> MemDFJK: Density-Fitted J/K Matrices <==

    J tasked:                   Yes
    K tasked:                   Yes
    wK tasked:                   No
    OpenMP threads:               4
    Memory [MiB]:              5391
    Algorithm:                 Core
    Schwarz Cutoff:           1E-12
    Mask sparsity (%):       0.8028
    Fitting Condition:        1E-10

   => Auxiliary Basis Set <=

  Basis Set: (ANONYMOUS4D7891D4 AUX)
    Blend: DEF2-UNIVERSAL-JKFIT
    Number of shells: 155
    Number of basis function: 467
    Number of Cartesian functions: 549
    Spherical Harmonics?: true
    Max angular momentum: 4

  Cached 100.0% of DFT collocation blocks in 4.513 [GiB].

  Minimum eigenvalue in the overlap matrix is 1.9218898788E-04.
  Reciprocal condition number of the overlap matrix is 3.1330301258E-05.
    Using symmetric orthogonalization.

  ==> Pre-Iterations <==

  SCF Guess: Superposition of Atomic Densities via on-the-fly atomic UHF (no occupation information).

   -------------------------
    Irrep   Nso     Nmo    
   -------------------------
     A'       115     115 
     A"        55      55 
   -------------------------
    Total     170     170
   -------------------------

  ==> Iterations <==

                           Total Energy        Delta E     RMS |[F,P]|

   @DF-RKS iter SAD:  -209.89228505079831   -2.09892e+02   0.00000e+00 
   @DF-RKS iter   1:  -209.87124929031722    2.10358e-02   5.90628e-03 DIIS
   @DF-RKS iter   2:  -209.70571509468965    1.65534e-01   7.53040e-03 DIIS
   @DF-RKS iter   3:  -210.18018622594147   -4.74471e-01   6.12861e-04 DIIS
   @DF-RKS iter   4:  -210.18158551113959   -1.39929e-03   4.29640e-04 DIIS
   @DF-RKS iter   5:  -210.18303007475518   -1.44456e-03   1.36944e-04 DIIS
   @DF-RKS iter   6:  -210.18316708981678   -1.37015e-04   4.75283e-05 DIIS
   @DF-RKS iter   7:  -210.18318251222786   -1.54224e-05   3.31238e-06 DIIS
   @DF-RKS iter   8:  -210.18318259211867   -7.98908e-08   3.55278e-07 DIIS
   @DF-RKS iter   9:  -210.18318259232908   -2.10406e-10   3.36288e-07 DIIS
   @DF-RKS iter  10:  -210.18318259328470   -9.55623e-10   6.39952e-08 DIIS
   @DF-RKS iter  11:  -210.18318259332176   -3.70619e-11   9.07394e-09 DIIS
   @DF-RKS iter  12:  -210.18318259332281   -1.05160e-12   2.46512e-09 DIIS
   @DF-RKS iter  13:  -210.18318259332270    1.13687e-13   1.38868e-09 DIIS
   @DF-RKS iter  14:  -210.18318259332256    1.42109e-13   1.82691e-10 DIIS
   @DF-RKS iter  15:  -210.18318259332270   -1.42109e-13   4.20003e-11 DIIS
  Energy and wave function converged.


  ==> Post-Iterations <==

    Orbital Energies [Eh]
    ---------------------

    Doubly Occupied:                                                      

       1Ap   -14.368183     2Ap   -10.190347     3Ap   -10.190060  
       4Ap   -10.154744     5Ap   -10.154280     6Ap    -0.964127  
       7Ap    -0.760036     8Ap    -0.709361     9Ap    -0.579936  
      10Ap    -0.554976    11Ap    -0.534697    12Ap    -0.419648  
      13Ap    -0.414068     1App   -0.396340    14Ap    -0.379286  
      15Ap    -0.363207     2App   -0.234212     3App   -0.203452  

    Virtual:                                                              

       4App    0.047381    16Ap     0.073991     5App    0.090612  
      17Ap     0.133453    18Ap     0.147982    19Ap     0.157410  
      20Ap     0.166530    21Ap     0.231407    22Ap     0.234418  
      23Ap     0.306057    24Ap     0.309421    25Ap     0.383351  
      26Ap     0.428257     6App    0.446362    27Ap     0.464295  
      28Ap     0.483876    29Ap     0.489832    30Ap     0.496683  
      31Ap     0.504741     7App    0.530669     8App    0.554571  
       9App    0.574947    32Ap     0.613302    33Ap     0.617838  
      10App    0.632141    11App    0.660389    34Ap     0.697784  
      35Ap     0.703327    12App    0.712689    36Ap     0.729122  
      13App    0.737107    37Ap     0.752444    14App    0.761935  
      38Ap     0.782996    39Ap     0.787191    15App    0.790050  
      40Ap     0.917258    41Ap     0.931698    42Ap     0.952282  
      16App    0.971650    43Ap     0.999904    17App    1.048151  
      44Ap     1.065513    18App    1.100077    45Ap     1.122769  
      46Ap     1.129193    47Ap     1.152172    19App    1.157467  
      20App    1.185779    48Ap     1.203118    21App    1.292224  
      22App    1.292767    49Ap     1.329209    50Ap     1.340695  
      51Ap     1.342862    52Ap     1.375850    53Ap     1.385295  
      54Ap     1.468179    55Ap     1.497212    23App    1.500100  
      56Ap     1.557713    57Ap     1.592098    24App    1.614450  
      58Ap     1.622117    25App    1.627868    59Ap     1.651364  
      60Ap     1.817167    61Ap     1.824433    62Ap     1.914331  
      63Ap     2.128563    64Ap     2.149815    65Ap     2.204255  
      66Ap     2.258447    67Ap     2.438330    68Ap     2.465531  
      26App    2.605892    27App    2.686221    69Ap     2.693090  
      28App    2.761321    70Ap     2.796271    29App    2.825874  
      71Ap     2.866735    72Ap     2.879793    30App    2.949146  
      73Ap     2.956165    31App    3.009541    74Ap     3.043334  
      32App    3.063395    75Ap     3.087415    33App    3.101652  
      76Ap     3.130399    77Ap     3.182136    34App    3.216584  
      78Ap     3.233327    35App    3.256900    36App    3.272122  
      37App    3.296824    79Ap     3.310240    38App    3.349578  
      80Ap     3.354414    81Ap     3.416134    82Ap     3.441253  
      83Ap     3.464748    84Ap     3.468405    39App    3.480235  
      85Ap     3.517416    86Ap     3.575214    40App    3.613840  
      41App    3.627043    87Ap     3.697636    42App    3.732642  
      88Ap     3.763064    89Ap     3.793323    43App    3.798574  
      90Ap     3.907427    91Ap     3.935274    44App    3.947357  
      45App    4.065123    46App    4.087200    92Ap     4.097548  
      93Ap     4.124165    94Ap     4.146368    95Ap     4.185281  
      47App    4.227701    48App    4.304550    49App    4.307434  
      96Ap     4.328336    97Ap     4.359936    98Ap     4.403184  
      50App    4.432813    99Ap     4.465191   100Ap     4.545200  
     101Ap     4.640711    51App    4.668952   102Ap     4.789589  
      52App    4.814117    53App    4.899630   103Ap     4.913274  
     104Ap     5.034428   105Ap     5.044848    54App    5.104837  
      55App    5.125696   106Ap     5.163121   107Ap     5.169516  
     108Ap     5.332437   109Ap     5.551303   110Ap     5.598767  
     111Ap     5.614432   112Ap     5.617885   113Ap     5.926421  
     114Ap     5.926683   115Ap     6.111710  

    Final Occupation by Irrep:
             Ap   App 
    DOCC [    15,    3 ]

  @DF-RKS Final Energy:  -210.18318259332270

   => Energetics <=

    Nuclear Repulsion Energy =            160.7741871274346863
    One-Electron Energy =                -601.0146816343924456
    Two-Electron Energy =                 254.7591887151311596
    DFT Exchange-Correlation Energy =     -24.7018768014960912
    Empirical Dispersion Energy =           0.0000000000000000
    VV10 Nonlocal Energy =                  0.0000000000000000
    Total Energy =                       -210.1831825933226980

Computation Completed


Properties will be evaluated at   0.000000,   0.000000,   0.000000 [a0]

Properties computed using the SCF density matrix

  Nuclear Dipole Moment: [e a0]
     X:     0.0003      Y:    -0.0362      Z:     0.0000

  Electronic Dipole Moment: [e a0]
     X:    -0.0004      Y:     0.7598      Z:     0.0000

  Dipole Moment: [e a0]
     X:    -0.0001      Y:     0.7236      Z:     0.0000     Total:     0.7236

  Dipole Moment: [D]
     X:    -0.0004      Y:     1.8393      Z:     0.0000     Total:     1.8393


*** tstop() called on n022 at Mon Nov 15 18:15:06 2021
Module time:
	user time   =     127.89 seconds =       2.13 minutes
	system time =       1.16 seconds =       0.02 minutes
	total time  =         33 seconds =       0.55 minutes
Total time:
	user time   =     127.89 seconds =       2.13 minutes
	system time =       1.16 seconds =       0.02 minutes
	total time  =         33 seconds =       0.55 minutes
Grab this energy -210.1831825933227
    Psi4 stopped on: Monday, 15 November 2021 06:15PM
    Psi4 wall time for execution: 0:00:32.96

*** Psi4 exiting successfully. Buy a developer a beer!
