
    -----------------------------------------------------------------------
          Psi4: An Open-Source Ab Initio Electronic Structure Package
                               Psi4 1.4a2.dev629 

                         Git: Rev {master} 2938fc2 dirty


    D. G. A. Smith, L. A. Burns, A. C. Simmonett, R. M. Parrish,
    M. C. Schieber, R. Galvelis, P. Kraus, H. Kruse, R. Di Remigio,
    A. Alenaizan, A. M. James, S. Lehtola, J. P. Misiewicz, M. Scheurer,
    R. A. Shaw, J. B. Schriber, Y. Xie, Z. L. Glick, D. A. Sirianni,
    J. S. O'Brien, J. M. Waldrop, A. Kumar, E. G. Hohenstein,
    B. P. Pritchard, B. R. Brooks, H. F. Schaefer III, A. Yu. Sokolov,
    K. Patkowski, A. E. DePrince III, U. Bozkaya, R. A. King,
    F. A. Evangelista, J. M. Turney, T. D. Crawford, C. D. Sherrill,
    J. Chem. Phys. 152(18) 184108 (2020). https://doi.org/10.1063/5.0006002

                            Additional Code Authors
    E. T. Seidl, C. L. Janssen, E. F. Valeev, M. L. Leininger,
    J. F. Gonthier, R. M. Richard, H. R. McAlexander, M. Saitow, X. Wang,
    P. Verma, and M. H. Lechner

             Previous Authors, Complete List of Code Contributors,
                       and Citations for Specific Modules
    https://github.com/psi4/psi4/blob/master/codemeta.json
    https://github.com/psi4/psi4/graphs/contributors
    http://psicode.org/psi4manual/master/introduction.html#citing-psifour

    -----------------------------------------------------------------------


    Psi4 started on: Monday, 15 November 2021 06:18PM

    Process ID: 2146
    Host:       n056
    PSIDATADIR: /opt/psi/4/master/share/psi4
    Memory:     500.0 MiB
    Threads:    4
    
  ==> Input File <==

--------------------------------------------------------------------------
import os
memory 14 GB 
 
molecule {
 N   -0.0000000000    0.0000000000   -2.1215266999
 C    0.0000000000    2.1210084750   -0.6283907696
 C   -0.0000000000   -2.1210084750   -0.6283907696
 C   -0.0000000000   -1.3507581056    1.8633248919
 C   -0.0000000000    1.3507581056    1.8633248919
 H    0.0000000000    3.9828917101   -1.4429669052
 H   -0.0000000000   -3.9828917101   -1.4429669052
 H   -0.0000000000   -2.5761380437    3.4880545443
 H   -0.0000000000    2.5761380437    3.4880545443
 H    0.0000000000   -0.0000000000   -4.0233328427
units bohr
}

basis {

assign 6-31g_2dfp_

[ 6-31g_2dfp_ ]

spherical

!----------------------------------------------------------------------
! Basis Set Exchange
! Version v0.8.13
! https://www.basissetexchange.org
!----------------------------------------------------------------------
!   Basis set: 6-31G(2df,p)
! Description: 6-31G(2df,p)
!        Role: orbital
!     Version: 0  (Data from the original Basis Set Exchange)
!----------------------------------------------------------------------


****
H     0
S    3   1.00
     18.7311370              0.03349460
      2.8253937              0.23472695
      0.6401217              0.81375733
S    1   1.00
      0.1612778              1.00000000
P    1   1.00
      1.5000000              1.0000000
P    1   1.00
      0.3750000              1.0000000
****
B     0
S    6   1.00
   2068.8823000              0.0018663
    310.6495700              0.0142515
     70.6830330              0.0695516
     19.8610800              0.2325729
      6.2993048              0.4670787
      2.1270270              0.3634314
SP   3   1.00
      4.7279710             -0.1303938              0.0745976
      1.1903377             -0.1307889              0.3078467
      0.3594117              1.1309444              0.7434568
SP   1   1.00
      0.1267512              1.0000000              1.0000000
D    1   1.00
      0.8020000              1.0000000
D    1   1.00
      0.2005000              1.0000000
F    1   1.00
      0.5000000              1.0000000
****
C     0
S    6   1.00
   3047.5249000              0.0018347
    457.3695100              0.0140373
    103.9486900              0.0688426
     29.2101550              0.2321844
      9.2866630              0.4679413
      3.1639270              0.3623120
SP   3   1.00
      7.8682724             -0.1193324              0.0689991
      1.8812885             -0.1608542              0.3164240
      0.5442493              1.1434564              0.7443083
SP   1   1.00
      0.1687144              1.0000000              1.0000000
D    1   1.00
      1.2520000              1.0000000
D    1   1.00
      0.3130000              1.0000000
F    1   1.00
      0.8000000              1.0000000
****
N     0
S    6   1.00
   4173.5110000              0.0018348
    627.4579000              0.0139950
    142.9021000              0.0685870
     40.2343300              0.2322410
     12.8202100              0.4690700
      4.3904370              0.3604550
SP   3   1.00
     11.6263580             -0.1149610              0.0675800
      2.7162800             -0.1691180              0.3239070
      0.7722180              1.1458520              0.7408950
SP   1   1.00
      0.2120313              1.0000000              1.0000000
D    1   1.00
      1.8260000              1.0000000
D    1   1.00
      0.4565000              1.0000000
F    1   1.00
      1.0000000              1.0000000
****
O     0
S    6   1.00
   5484.6717000              0.0018311
    825.2349500              0.0139501
    188.0469600              0.0684451
     52.9645000              0.2327143
     16.8975700              0.4701930
      5.7996353              0.3585209
SP   3   1.00
     15.5396160             -0.1107775              0.0708743
      3.5999336             -0.1480263              0.3397528
      1.0137618              1.1307670              0.7271586
SP   1   1.00
      0.2700058              1.0000000              1.0000000
D    1   1.00
      2.5840000              1.0000000
D    1   1.00
      0.6460000              1.0000000
F    1   1.00
      1.4000000              1.0000000
****
F     0
S    6   1.00
   7001.7130900              0.0018196169
   1051.3660900              0.0139160796
    239.2856900              0.0684053245
     67.3974453              0.233185760
     21.5199573              0.471267439
      7.40310130             0.356618546
SP   3   1.00
     20.8479528             -0.108506975            0.0716287243
      4.80830834            -0.146451658            0.3459121030
      1.34406986             1.128688580            0.7224699570
SP   1   1.00
      0.358151393            1.0000000              1.0000000
D    1   1.00
      3.5000000              1.0000000
D    1   1.00
      0.8750000              1.0000000
F    1   1.00
      1.8500000              1.0000000
****
Al     0
S    6   1.00
  13983.1000000              0.00194267
   2098.7500000              0.0148599
    477.7050000              0.0728494
    134.3600000              0.2468300
     42.8709000              0.4872580
     14.5189000              0.3234960
SP   6   1.00
    239.6680000             -0.00292619             0.00460285
     57.4419000             -0.0374080              0.0331990
     18.2859000             -0.1144870              0.1362820
      6.5991400              0.1156350              0.3304760
      2.4904900              0.6125950              0.4491460
      0.9445400              0.3937990              0.2657040
SP   3   1.00
      1.2779000             -0.2276060             -0.0175130
      0.3975900              0.00144583             0.2445330
      0.1600950              1.0927900              0.8049340
SP   1   1.00
      0.0556577              1.0000000              1.0000000
D    1   1.00
      0.6500000              1.0000000
D    1   1.00
      0.1625000              1.0000000
F    1   1.00
      0.2500000              1.0000000
****
Si     0
S    6   1.00
  16115.9000000              0.00195948
   2425.5800000              0.01492880
    553.8670000              0.07284780
    156.3400000              0.24613000
     50.0683000              0.48591400
     17.0178000              0.32500200
SP   6   1.00
    292.7180000             -0.00278094             0.00443826
     69.8731000             -0.03571460             0.03266790
     22.3363000             -0.11498500             0.13472100
      8.1503900              0.09356340             0.32867800
      3.1345800              0.60301700             0.44964000
      1.2254300              0.41895900             0.26137200
SP   3   1.00
      1.7273800             -0.24463000            -0.01779510
      0.5729220              0.00431572             0.25353900
      0.2221920              1.09818000             0.80066900
SP   1   1.00
      0.0778369              1.00000000             1.00000000
D    1   1.00
      0.9000000              1.0000000
D    1   1.00
      0.2250000              1.0000000
F    1   1.00
      0.3200000              1.0000000
****
P     0
S    6   1.00
  19413.3000000              0.0018516
   2909.4200000              0.0142062
    661.3640000              0.0699995
    185.7590000              0.2400790
     59.1943000              0.4847620
     20.0310000              0.3352000
SP   6   1.00
    339.4780000             -0.00278217             0.00456462
     81.0101000             -0.0360499              0.03369360
     25.8780000             -0.1166310              0.13975500
      9.4522100              0.0968328              0.33936200
      3.6656600              0.6144180              0.45092100
      1.4674600              0.4037980              0.23858600
SP   3   1.00
      2.1562300             -0.2529230             -0.01776530
      0.7489970              0.0328517              0.27405800
      0.2831450              1.0812500              0.78542100
SP   1   1.00
      0.0998317              1.0000000              1.00000000
D    1   1.00
      1.1000000              1.0000000
D    1   1.00
      0.2750000              1.0000000
F    1   1.00
      0.4500000              1.0000000
****
S     0
S    6   1.00
  21917.1000000              0.0018690
   3301.4900000              0.0142300
    754.1460000              0.0696960
    212.7110000              0.2384870
     67.9896000              0.4833070
     23.0515000              0.3380740
SP   6   1.00
    423.7350000             -0.0023767              0.0040610
    100.7100000             -0.0316930              0.0306810
     32.1599000             -0.1133170              0.1304520
     11.8079000              0.0560900              0.3272050
      4.6311000              0.5922550              0.4528510
      1.8702500              0.4550060              0.2560420
SP   3   1.00
      2.6158400             -0.2503740             -0.0145110
      0.9221670              0.0669570              0.3102630
      0.3412870              1.0545100              0.7544830
SP   1   1.00
      0.1171670              1.0000000              1.0000000
D    1   1.00
      1.3000000              1.0000000
D    1   1.00
      0.3250000              1.0000000
F    1   1.00
      0.5500000              1.0000000
****
Cl     0
S    6   1.00
  25180.1000000              0.0018330
   3780.3500000              0.0140340
    860.4740000              0.0690970
    242.1450000              0.2374520
     77.3349000              0.4830340
     26.2470000              0.3398560
SP   6   1.00
    491.7650000             -0.0022974              0.0039894
    116.9840000             -0.0307140              0.0303180
     37.4153000             -0.1125280              0.1298800
     13.7834000              0.0450160              0.3279510
      5.4521500              0.5893530              0.4535270
      2.2258800              0.4652060              0.2521540
SP   3   1.00
      3.1864900             -0.2518300             -0.0142990
      1.1442700              0.0615890              0.3235720
      0.4203770              1.0601800              0.7435070
SP   1   1.00
      0.1426570              1.0000000              1.0000000
D    1   1.00
      1.5000000              1.0000000
D    1   1.00
      0.3750000              1.0000000
F    1   1.00
      0.7000000              1.0000000
****
}


set {
reference rhf                          
freeze_core true
e_convergence 10                       
d_convergence 10                      
dft_spherical_points 1202
dft_radial_points 99
}

e = energy('b3lyp')

print_out('Grab this energy {0}'.format(e))
--------------------------------------------------------------------------

  Memory set to  13.039 GiB by Python driver.

Scratch directory: /tmp/

*** tstart() called on n056
*** at Mon Nov 15 18:18:02 2021

   => Loading Basis Set <=

    Name: ANONYMOUS7FB2A983
    Role: ORBITAL
    Keyword: BASIS
    atoms 1    entry N          line    69 inputblock 6-31g_2dfp_ 
    atoms 2-5  entry C          line    48 inputblock 6-31g_2dfp_ 
    atoms 6-10 entry H          line    15 inputblock 6-31g_2dfp_ 


         ---------------------------------------------------------
                                   SCF
               by Justin Turney, Rob Parrish, Andy Simmonett
                          and Daniel G. A. Smith
                              RKS Reference
                        4 Threads,  13351 MiB Core
         ---------------------------------------------------------

  ==> Geometry <==

    Molecular point group: c2v
    Full point group: C2v

    Geometry (in Bohr), charge = 0, multiplicity = 1:

       Center              X                  Y                   Z               Mass       
    ------------   -----------------  -----------------  -----------------  -----------------
         N            0.000000000000     0.000000000000    -2.121495212774    14.003074004430
         C           -0.000000000000     2.121008475000    -0.628359282474    12.000000000000
         C            0.000000000000    -2.121008475000    -0.628359282474    12.000000000000
         C            0.000000000000    -1.350758105600     1.863356379026    12.000000000000
         C           -0.000000000000     1.350758105600     1.863356379026    12.000000000000
         H           -0.000000000000     3.982891710100    -1.442935418074     1.007825032230
         H            0.000000000000    -3.982891710100    -1.442935418074     1.007825032230
         H            0.000000000000    -2.576138043700     3.488086031426     1.007825032230
         H           -0.000000000000     2.576138043700     3.488086031426     1.007825032230
         H            0.000000000000     0.000000000000    -4.023301355574     1.007825032230

  Running in c2v symmetry.

  Rotational constants: A =      0.30541  B =      0.29970  C =      0.15127 [cm^-1]
  Rotational constants: A =   9156.04111  B =   8984.85438  C =   4534.82002 [MHz]
  Nuclear repulsion =  160.785368939355180

  Charge       = 0
  Multiplicity = 1
  Electrons    = 36
  Nalpha       = 18
  Nbeta        = 18

  ==> Algorithm <==

  SCF Algorithm Type is DF.
  DIIS enabled.
  MOM disabled.
  Fractional occupation disabled.
  Guess Type is SAD.
  Energy threshold   = 1.00e-10
  Density threshold  = 1.00e-10
  Integral threshold = 0.00e+00

  ==> Primary Basis <==

  Basis Set: ANONYMOUS7FB2A983
    Blend: 6-31G_2DFP_
    Number of shells: 60
    Number of basis function: 170
    Number of Cartesian functions: 195
    Spherical Harmonics?: true
    Max angular momentum: 3

  ==> DFT Potential <==

   => Composite Functional: B3LYP <= 

    B3LYP Hyb-GGA Exchange-Correlation Functional

    P. J. Stephens, F. J. Devlin, C. F. Chabalowski, and M. J. Frisch, J. Phys. Chem. 98, 11623 (1994)

    Deriv               =              1
    GGA                 =           TRUE
    Meta                =          FALSE

    Exchange Hybrid     =           TRUE
    MP2 Hybrid          =          FALSE

   => Exchange Functionals <=

    0.0800   Slater exchange
    0.7200         Becke 88

   => Exact (HF) Exchange <=

    0.2000               HF 

   => Correlation Functionals <=

    0.1900   Vosko, Wilk & Nusair (VWN5_RPA)
    0.8100   Lee, Yang & Parr

   => Molecular Quadrature <=

    Radial Scheme          =       TREUTLER
    Pruning Scheme         =           NONE
    Nuclear Scheme         =       TREUTLER

    BS radius alpha        =              1
    Pruning alpha          =              1
    Radial Points          =             99
    Spherical Points       =           1202
    Total Points           =        1106017
    Total Blocks           =           7458
    Max Points             =            256
    Max Functions          =            170
    Weights Tolerance      =       1.00E-15

   => Loading Basis Set <=

    Name: (ANONYMOUS7FB2A983 AUX)
    Role: JKFIT
    Keyword: DF_BASIS_SCF
    atoms 1    entry N          line   258 file /opt/psi/4/master/share/psi4/basis/def2-universal-jkfit.gbs 
    atoms 2-5  entry C          line   198 file /opt/psi/4/master/share/psi4/basis/def2-universal-jkfit.gbs 
    atoms 6-10 entry H          line    18 file /opt/psi/4/master/share/psi4/basis/def2-universal-jkfit.gbs 

  ==> Integral Setup <==

  DFHelper Memory: AOs need 0.108 GiB; user supplied 5.262 GiB. Using in-core AOs.

  ==> MemDFJK: Density-Fitted J/K Matrices <==

    J tasked:                   Yes
    K tasked:                   Yes
    wK tasked:                   No
    OpenMP threads:               4
    Memory [MiB]:              5387
    Algorithm:                 Core
    Schwarz Cutoff:           1E-12
    Mask sparsity (%):       0.8166
    Fitting Condition:        1E-10

   => Auxiliary Basis Set <=

  Basis Set: (ANONYMOUS7FB2A983 AUX)
    Blend: DEF2-UNIVERSAL-JKFIT
    Number of shells: 155
    Number of basis function: 467
    Number of Cartesian functions: 549
    Spherical Harmonics?: true
    Max angular momentum: 4

  Cached 100.0% of DFT collocation blocks in 4.517 [GiB].

  Minimum eigenvalue in the overlap matrix is 3.1901852993E-04.
  Reciprocal condition number of the overlap matrix is 5.4310840865E-05.
    Using symmetric orthogonalization.

  ==> Pre-Iterations <==

  SCF Guess: Superposition of Atomic Densities via on-the-fly atomic UHF (no occupation information).

   -------------------------
    Irrep   Nso     Nmo    
   -------------------------
     A1        61      61 
     A2        25      25 
     B1        30      30 
     B2        54      54 
   -------------------------
    Total     170     170
   -------------------------

  ==> Iterations <==

                           Total Energy        Delta E     RMS |[F,P]|

   @DF-RKS iter SAD:  -209.89326258522061   -2.09893e+02   0.00000e+00 
   @DF-RKS iter   1:  -209.87123317481550    2.20294e-02   8.33223e-03 DIIS
   @DF-RKS iter   2:  -209.70624904196490    1.64984e-01   1.06176e-02 DIIS
   @DF-RKS iter   3:  -210.18018927473815   -4.73940e-01   8.63109e-04 DIIS
   @DF-RKS iter   4:  -210.18156665694369   -1.37738e-03   6.08278e-04 DIIS
   @DF-RKS iter   5:  -210.18302229514828   -1.45564e-03   1.93150e-04 DIIS
   @DF-RKS iter   6:  -210.18315932271025   -1.37028e-04   6.64771e-05 DIIS
   @DF-RKS iter   7:  -210.18317446048556   -1.51378e-05   4.67072e-06 DIIS
   @DF-RKS iter   8:  -210.18317454077265   -8.02871e-08   3.54490e-07 DIIS
   @DF-RKS iter   9:  -210.18317454135970   -5.87050e-10   1.15311e-07 DIIS
   @DF-RKS iter  10:  -210.18317454142266   -6.29541e-11   1.92158e-08 DIIS
   @DF-RKS iter  11:  -210.18317454142471   -2.04636e-12   2.23901e-09 DIIS
   @DF-RKS iter  12:  -210.18317454142448    2.27374e-13   5.13912e-10 DIIS
   @DF-RKS iter  13:  -210.18317454142465   -1.70530e-13   7.10328e-11 DIIS
  Energy and wave function converged.


  ==> Post-Iterations <==

    Orbital Energies [Eh]
    ---------------------

    Doubly Occupied:                                                      

       1A1   -14.368447     1B2   -10.189941     2A1   -10.189885  
       3A1   -10.154688     2B2   -10.154356     4A1    -0.964104  
       5A1    -0.760111     3B2    -0.709178     6A1    -0.579919  
       4B2    -0.554992     7A1    -0.534878     8A1    -0.420030  
       5B2    -0.413850     1B1    -0.396379     6B2    -0.379142  
       9A1    -0.363187     2B1    -0.234412     1A2    -0.203236  

    Virtual:                                                              

       3B1     0.047445    10A1     0.073465     2A2     0.090689  
      11A1     0.133668     7B2     0.148480    12A1     0.157613  
       8B2     0.166431     9B2     0.231720    13A1     0.234289  
      14A1     0.305903    10B2     0.309627    15A1     0.383277  
      11B2     0.428134     4B1     0.446319    16A1     0.463303  
      12B2     0.484044    17A1     0.489674    18A1     0.497688  
      13B2     0.505261     3A2     0.530943     5B1     0.554373  
       6B1     0.574819    19A1     0.613063    14B2     0.618007  
       4A2     0.632126     7B1     0.660126    20A1     0.697896  
      15B2     0.703871     8B1     0.712790    16B2     0.728942  
       5A2     0.737395    21A1     0.752612     6A2     0.762498  
      22A1     0.782567    17B2     0.787486     9B1     0.789778  
      18B2     0.917097    23A1     0.931861    19B2     0.952312  
      10B1     0.971628    24A1     1.000836     7A2     1.048383  
      25A1     1.065891    11B1     1.099960    20B2     1.122617  
      26A1     1.129460    21B2     1.152278    12B1     1.158054  
       8A2     1.185858    27A1     1.202363    13B1     1.291774  
       9A2     1.293460    22B2     1.330126    23B2     1.341035  
      28A1     1.342605    29A1     1.376344    24B2     1.385106  
      30A1     1.466845    31A1     1.496252    10A2     1.500389  
      25B2     1.558225    32A1     1.592477    11A2     1.614607  
      26B2     1.622346    14B1     1.628171    33A1     1.653334  
      34A1     1.816915    27B2     1.825275    28B2     1.915029  
      29B2     2.130029    35A1     2.148971    36A1     2.204044  
      30B2     2.257546    31B2     2.440917    37A1     2.463652  
      15B1     2.605704    16B1     2.686863    38A1     2.693353  
      12A2     2.761499    39A1     2.796493    17B1     2.825507  
      32B2     2.867420    40A1     2.879209    13A2     2.950999  
      33B2     2.955547    18B1     3.009912    41A1     3.045016  
      14A2     3.062221    34B2     3.087963    19B1     3.100281  
      42A1     3.129915    35B2     3.181819    20B1     3.217219  
      43A1     3.233313    21B1     3.255926    15A2     3.272194  
      16A2     3.296055    36B2     3.312668    17A2     3.349526  
      44A1     3.355012    37B2     3.415595    38B2     3.442683  
      45A1     3.465347    46A1     3.467576    22B1     3.479776  
      39B2     3.516483    47A1     3.574793    18A2     3.614298  
      23B1     3.627572    40B2     3.696792    19A2     3.733674  
      48A1     3.763647    41B2     3.792955    24B1     3.798013  
      49A1     3.906776    42B2     3.936362    20A2     3.947816  
      25B1     4.065785    26B1     4.087394    50A1     4.097992  
      51A1     4.123655    43B2     4.147108    44B2     4.185818  
      21A2     4.227918    27B1     4.303690    22A2     4.309836  
      45B2     4.328209    52A1     4.360978    46B2     4.404719  
      28B1     4.432600    53A1     4.466061    54A1     4.547694  
      47B2     4.642720    23A2     4.669732    48B2     4.792240  
      29B1     4.813371    24A2     4.900364    55A1     4.912018  
      56A1     5.036623    49B2     5.040400    25A2     5.105096  
      30B1     5.125159    50B2     5.164345    57A1     5.176732  
      58A1     5.331787    51B2     5.551516    59A1     5.596916  
      52B2     5.616297    60A1     5.618590    61A1     5.921472  
      53B2     5.927867    54B2     6.113417  

    Final Occupation by Irrep:
             A1    A2    B1    B2 
    DOCC [     9,    1,    2,    6 ]

  @DF-RKS Final Energy:  -210.18317454142465

   => Energetics <=

    Nuclear Repulsion Energy =            160.7853689393551804
    One-Electron Energy =                -601.0372145435862876
    Two-Electron Energy =                 254.7709385066601726
    DFT Exchange-Correlation Energy =     -24.7022674438537280
    Empirical Dispersion Energy =           0.0000000000000000
    VV10 Nonlocal Energy =                  0.0000000000000000
    Total Energy =                       -210.1831745414246484

Computation Completed


Properties will be evaluated at   0.000000,   0.000000,   0.000000 [a0]

Properties computed using the SCF density matrix

  Nuclear Dipole Moment: [e a0]
     X:     0.0000      Y:     0.0000      Z:     0.0365

  Electronic Dipole Moment: [e a0]
     X:     0.0000      Y:     0.0000      Z:    -0.7612

  Dipole Moment: [e a0]
     X:     0.0000      Y:     0.0000      Z:    -0.7247     Total:     0.7247

  Dipole Moment: [D]
     X:     0.0000      Y:     0.0000      Z:    -1.8419     Total:     1.8419


*** tstop() called on n056 at Mon Nov 15 18:18:25 2021
Module time:
	user time   =      89.46 seconds =       1.49 minutes
	system time =       1.37 seconds =       0.02 minutes
	total time  =         23 seconds =       0.38 minutes
Total time:
	user time   =      89.46 seconds =       1.49 minutes
	system time =       1.37 seconds =       0.02 minutes
	total time  =         23 seconds =       0.38 minutes
Grab this energy -210.18317454142465
    Psi4 stopped on: Monday, 15 November 2021 06:18PM
    Psi4 wall time for execution: 0:00:23.36

*** Psi4 exiting successfully. Buy a developer a beer!
