
    -----------------------------------------------------------------------
          Psi4: An Open-Source Ab Initio Electronic Structure Package
                               Psi4 1.4a2.dev629 

                         Git: Rev {master} 2938fc2 dirty


    D. G. A. Smith, L. A. Burns, A. C. Simmonett, R. M. Parrish,
    M. C. Schieber, R. Galvelis, P. Kraus, H. Kruse, R. Di Remigio,
    A. Alenaizan, A. M. James, S. Lehtola, J. P. Misiewicz, M. Scheurer,
    R. A. Shaw, J. B. Schriber, Y. Xie, Z. L. Glick, D. A. Sirianni,
    J. S. O'Brien, J. M. Waldrop, A. Kumar, E. G. Hohenstein,
    B. P. Pritchard, B. R. Brooks, H. F. Schaefer III, A. Yu. Sokolov,
    K. Patkowski, A. E. DePrince III, U. Bozkaya, R. A. King,
    F. A. Evangelista, J. M. Turney, T. D. Crawford, C. D. Sherrill,
    J. Chem. Phys. 152(18) 184108 (2020). https://doi.org/10.1063/5.0006002

                            Additional Code Authors
    E. T. Seidl, C. L. Janssen, E. F. Valeev, M. L. Leininger,
    J. F. Gonthier, R. M. Richard, H. R. McAlexander, M. Saitow, X. Wang,
    P. Verma, and M. H. Lechner

             Previous Authors, Complete List of Code Contributors,
                       and Citations for Specific Modules
    https://github.com/psi4/psi4/blob/master/codemeta.json
    https://github.com/psi4/psi4/graphs/contributors
    http://psicode.org/psi4manual/master/introduction.html#citing-psifour

    -----------------------------------------------------------------------


    Psi4 started on: Monday, 15 November 2021 06:15PM

    Process ID: 23085
    Host:       n058
    PSIDATADIR: /opt/psi/4/master/share/psi4
    Memory:     500.0 MiB
    Threads:    4
    
  ==> Input File <==

--------------------------------------------------------------------------
import os
memory 14 GB 
 
molecule {
 N    0.0000000000   -0.0027161048   -2.1164378002
 C   -0.0000000000    2.1308339950   -0.6270759011
 C    0.0000000000   -2.1264285828   -0.6279474214
 C    0.0000000000   -1.3507238863    1.8608742848
 C    0.0000000000    1.3489272794    1.8589307040
 H   -0.0000000000    3.9929350397   -1.4505117346
 H    0.0000000000   -3.9940644053   -1.4505793529
 H    0.0000000000   -2.5715784300    3.4875918011
 H    0.0000000000    2.5721715710    3.4880854967
 H   -0.0000000000    0.0006435241   -4.0077460965
units bohr
}

basis {

assign 6-31g_2dfp_

[ 6-31g_2dfp_ ]

spherical

!----------------------------------------------------------------------
! Basis Set Exchange
! Version v0.8.13
! https://www.basissetexchange.org
!----------------------------------------------------------------------
!   Basis set: 6-31G(2df,p)
! Description: 6-31G(2df,p)
!        Role: orbital
!     Version: 0  (Data from the original Basis Set Exchange)
!----------------------------------------------------------------------


****
H     0
S    3   1.00
     18.7311370              0.03349460
      2.8253937              0.23472695
      0.6401217              0.81375733
S    1   1.00
      0.1612778              1.00000000
P    1   1.00
      1.5000000              1.0000000
P    1   1.00
      0.3750000              1.0000000
****
B     0
S    6   1.00
   2068.8823000              0.0018663
    310.6495700              0.0142515
     70.6830330              0.0695516
     19.8610800              0.2325729
      6.2993048              0.4670787
      2.1270270              0.3634314
SP   3   1.00
      4.7279710             -0.1303938              0.0745976
      1.1903377             -0.1307889              0.3078467
      0.3594117              1.1309444              0.7434568
SP   1   1.00
      0.1267512              1.0000000              1.0000000
D    1   1.00
      0.8020000              1.0000000
D    1   1.00
      0.2005000              1.0000000
F    1   1.00
      0.5000000              1.0000000
****
C     0
S    6   1.00
   3047.5249000              0.0018347
    457.3695100              0.0140373
    103.9486900              0.0688426
     29.2101550              0.2321844
      9.2866630              0.4679413
      3.1639270              0.3623120
SP   3   1.00
      7.8682724             -0.1193324              0.0689991
      1.8812885             -0.1608542              0.3164240
      0.5442493              1.1434564              0.7443083
SP   1   1.00
      0.1687144              1.0000000              1.0000000
D    1   1.00
      1.2520000              1.0000000
D    1   1.00
      0.3130000              1.0000000
F    1   1.00
      0.8000000              1.0000000
****
N     0
S    6   1.00
   4173.5110000              0.0018348
    627.4579000              0.0139950
    142.9021000              0.0685870
     40.2343300              0.2322410
     12.8202100              0.4690700
      4.3904370              0.3604550
SP   3   1.00
     11.6263580             -0.1149610              0.0675800
      2.7162800             -0.1691180              0.3239070
      0.7722180              1.1458520              0.7408950
SP   1   1.00
      0.2120313              1.0000000              1.0000000
D    1   1.00
      1.8260000              1.0000000
D    1   1.00
      0.4565000              1.0000000
F    1   1.00
      1.0000000              1.0000000
****
O     0
S    6   1.00
   5484.6717000              0.0018311
    825.2349500              0.0139501
    188.0469600              0.0684451
     52.9645000              0.2327143
     16.8975700              0.4701930
      5.7996353              0.3585209
SP   3   1.00
     15.5396160             -0.1107775              0.0708743
      3.5999336             -0.1480263              0.3397528
      1.0137618              1.1307670              0.7271586
SP   1   1.00
      0.2700058              1.0000000              1.0000000
D    1   1.00
      2.5840000              1.0000000
D    1   1.00
      0.6460000              1.0000000
F    1   1.00
      1.4000000              1.0000000
****
F     0
S    6   1.00
   7001.7130900              0.0018196169
   1051.3660900              0.0139160796
    239.2856900              0.0684053245
     67.3974453              0.233185760
     21.5199573              0.471267439
      7.40310130             0.356618546
SP   3   1.00
     20.8479528             -0.108506975            0.0716287243
      4.80830834            -0.146451658            0.3459121030
      1.34406986             1.128688580            0.7224699570
SP   1   1.00
      0.358151393            1.0000000              1.0000000
D    1   1.00
      3.5000000              1.0000000
D    1   1.00
      0.8750000              1.0000000
F    1   1.00
      1.8500000              1.0000000
****
Al     0
S    6   1.00
  13983.1000000              0.00194267
   2098.7500000              0.0148599
    477.7050000              0.0728494
    134.3600000              0.2468300
     42.8709000              0.4872580
     14.5189000              0.3234960
SP   6   1.00
    239.6680000             -0.00292619             0.00460285
     57.4419000             -0.0374080              0.0331990
     18.2859000             -0.1144870              0.1362820
      6.5991400              0.1156350              0.3304760
      2.4904900              0.6125950              0.4491460
      0.9445400              0.3937990              0.2657040
SP   3   1.00
      1.2779000             -0.2276060             -0.0175130
      0.3975900              0.00144583             0.2445330
      0.1600950              1.0927900              0.8049340
SP   1   1.00
      0.0556577              1.0000000              1.0000000
D    1   1.00
      0.6500000              1.0000000
D    1   1.00
      0.1625000              1.0000000
F    1   1.00
      0.2500000              1.0000000
****
Si     0
S    6   1.00
  16115.9000000              0.00195948
   2425.5800000              0.01492880
    553.8670000              0.07284780
    156.3400000              0.24613000
     50.0683000              0.48591400
     17.0178000              0.32500200
SP   6   1.00
    292.7180000             -0.00278094             0.00443826
     69.8731000             -0.03571460             0.03266790
     22.3363000             -0.11498500             0.13472100
      8.1503900              0.09356340             0.32867800
      3.1345800              0.60301700             0.44964000
      1.2254300              0.41895900             0.26137200
SP   3   1.00
      1.7273800             -0.24463000            -0.01779510
      0.5729220              0.00431572             0.25353900
      0.2221920              1.09818000             0.80066900
SP   1   1.00
      0.0778369              1.00000000             1.00000000
D    1   1.00
      0.9000000              1.0000000
D    1   1.00
      0.2250000              1.0000000
F    1   1.00
      0.3200000              1.0000000
****
P     0
S    6   1.00
  19413.3000000              0.0018516
   2909.4200000              0.0142062
    661.3640000              0.0699995
    185.7590000              0.2400790
     59.1943000              0.4847620
     20.0310000              0.3352000
SP   6   1.00
    339.4780000             -0.00278217             0.00456462
     81.0101000             -0.0360499              0.03369360
     25.8780000             -0.1166310              0.13975500
      9.4522100              0.0968328              0.33936200
      3.6656600              0.6144180              0.45092100
      1.4674600              0.4037980              0.23858600
SP   3   1.00
      2.1562300             -0.2529230             -0.01776530
      0.7489970              0.0328517              0.27405800
      0.2831450              1.0812500              0.78542100
SP   1   1.00
      0.0998317              1.0000000              1.00000000
D    1   1.00
      1.1000000              1.0000000
D    1   1.00
      0.2750000              1.0000000
F    1   1.00
      0.4500000              1.0000000
****
S     0
S    6   1.00
  21917.1000000              0.0018690
   3301.4900000              0.0142300
    754.1460000              0.0696960
    212.7110000              0.2384870
     67.9896000              0.4833070
     23.0515000              0.3380740
SP   6   1.00
    423.7350000             -0.0023767              0.0040610
    100.7100000             -0.0316930              0.0306810
     32.1599000             -0.1133170              0.1304520
     11.8079000              0.0560900              0.3272050
      4.6311000              0.5922550              0.4528510
      1.8702500              0.4550060              0.2560420
SP   3   1.00
      2.6158400             -0.2503740             -0.0145110
      0.9221670              0.0669570              0.3102630
      0.3412870              1.0545100              0.7544830
SP   1   1.00
      0.1171670              1.0000000              1.0000000
D    1   1.00
      1.3000000              1.0000000
D    1   1.00
      0.3250000              1.0000000
F    1   1.00
      0.5500000              1.0000000
****
Cl     0
S    6   1.00
  25180.1000000              0.0018330
   3780.3500000              0.0140340
    860.4740000              0.0690970
    242.1450000              0.2374520
     77.3349000              0.4830340
     26.2470000              0.3398560
SP   6   1.00
    491.7650000             -0.0022974              0.0039894
    116.9840000             -0.0307140              0.0303180
     37.4153000             -0.1125280              0.1298800
     13.7834000              0.0450160              0.3279510
      5.4521500              0.5893530              0.4535270
      2.2258800              0.4652060              0.2521540
SP   3   1.00
      3.1864900             -0.2518300             -0.0142990
      1.1442700              0.0615890              0.3235720
      0.4203770              1.0601800              0.7435070
SP   1   1.00
      0.1426570              1.0000000              1.0000000
D    1   1.00
      1.5000000              1.0000000
D    1   1.00
      0.3750000              1.0000000
F    1   1.00
      0.7000000              1.0000000
****
}


set {
reference rhf                          
freeze_core true
e_convergence 10                       
d_convergence 10                      
dft_spherical_points 1202
dft_radial_points 99
}

e = energy('b3lyp')

print_out('Grab this energy {0}'.format(e))
--------------------------------------------------------------------------

  Memory set to  13.039 GiB by Python driver.

Scratch directory: /tmp/

*** tstart() called on n058
*** at Mon Nov 15 18:15:47 2021

   => Loading Basis Set <=

    Name: ANONYMOUS9E1127B7
    Role: ORBITAL
    Keyword: BASIS
    atoms 1    entry N          line    69 inputblock 6-31g_2dfp_ 
    atoms 2-5  entry C          line    48 inputblock 6-31g_2dfp_ 
    atoms 6-10 entry H          line    15 inputblock 6-31g_2dfp_ 


         ---------------------------------------------------------
                                   SCF
               by Justin Turney, Rob Parrish, Andy Simmonett
                          and Daniel G. A. Smith
                              RKS Reference
                        4 Threads,  13351 MiB Core
         ---------------------------------------------------------

  ==> Geometry <==

    Molecular point group: cs
    Full point group: Cs

    Geometry (in Bohr), charge = 0, multiplicity = 1:

       Center              X                  Y                   Z               Mass       
    ------------   -----------------  -----------------  -----------------  -----------------
         N            0.002617360817     2.116558738856     0.000000000000    14.003074004430
         C           -2.130932738983     0.627196839756     0.000000000000    12.000000000000
         C            2.126329838817     0.628068360056     0.000000000000    12.000000000000
         C            1.350625142317    -1.860753346144     0.000000000000    12.000000000000
         C           -1.349026023383    -1.858809765344     0.000000000000    12.000000000000
         H           -3.993033783683     1.450632673256     0.000000000000     1.007825032230
         H            3.993965661317     1.450700291556     0.000000000000     1.007825032230
         H            2.571479686017    -3.487470862444     0.000000000000     1.007825032230
         H           -2.572270314983    -3.487964558044     0.000000000000     1.007825032230
         H           -0.000742268083     4.007867035156     0.000000000000     1.007825032230

  Running in cs symmetry.

  Rotational constants: A =      0.30411  B =      0.30078  C =      0.15122 [cm^-1]
  Rotational constants: A =   9117.02267  B =   9017.14396  C =   4533.40413 [MHz]
  Nuclear repulsion =  160.757136190616109

  Charge       = 0
  Multiplicity = 1
  Electrons    = 36
  Nalpha       = 18
  Nbeta        = 18

  ==> Algorithm <==

  SCF Algorithm Type is DF.
  DIIS enabled.
  MOM disabled.
  Fractional occupation disabled.
  Guess Type is SAD.
  Energy threshold   = 1.00e-10
  Density threshold  = 1.00e-10
  Integral threshold = 0.00e+00

  ==> Primary Basis <==

  Basis Set: ANONYMOUS9E1127B7
    Blend: 6-31G_2DFP_
    Number of shells: 60
    Number of basis function: 170
    Number of Cartesian functions: 195
    Spherical Harmonics?: true
    Max angular momentum: 3

  ==> DFT Potential <==

   => Composite Functional: B3LYP <= 

    B3LYP Hyb-GGA Exchange-Correlation Functional

    P. J. Stephens, F. J. Devlin, C. F. Chabalowski, and M. J. Frisch, J. Phys. Chem. 98, 11623 (1994)

    Deriv               =              1
    GGA                 =           TRUE
    Meta                =          FALSE

    Exchange Hybrid     =           TRUE
    MP2 Hybrid          =          FALSE

   => Exchange Functionals <=

    0.0800   Slater exchange
    0.7200         Becke 88

   => Exact (HF) Exchange <=

    0.2000               HF 

   => Correlation Functionals <=

    0.1900   Vosko, Wilk & Nusair (VWN5_RPA)
    0.8100   Lee, Yang & Parr

   => Molecular Quadrature <=

    Radial Scheme          =       TREUTLER
    Pruning Scheme         =           NONE
    Nuclear Scheme         =       TREUTLER

    BS radius alpha        =              1
    Pruning alpha          =              1
    Radial Points          =             99
    Spherical Points       =           1202
    Total Points           =        1106051
    Total Blocks           =           7475
    Max Points             =            256
    Max Functions          =            170
    Weights Tolerance      =       1.00E-15

   => Loading Basis Set <=

    Name: (ANONYMOUS9E1127B7 AUX)
    Role: JKFIT
    Keyword: DF_BASIS_SCF
    atoms 1    entry N          line   258 file /opt/psi/4/master/share/psi4/basis/def2-universal-jkfit.gbs 
    atoms 2-5  entry C          line   198 file /opt/psi/4/master/share/psi4/basis/def2-universal-jkfit.gbs 
    atoms 6-10 entry H          line    18 file /opt/psi/4/master/share/psi4/basis/def2-universal-jkfit.gbs 

  ==> Integral Setup <==

  DFHelper Memory: AOs need 0.108 GiB; user supplied 5.265 GiB. Using in-core AOs.

  ==> MemDFJK: Density-Fitted J/K Matrices <==

    J tasked:                   Yes
    K tasked:                   Yes
    wK tasked:                   No
    OpenMP threads:               4
    Memory [MiB]:              5391
    Algorithm:                 Core
    Schwarz Cutoff:           1E-12
    Mask sparsity (%):       0.8028
    Fitting Condition:        1E-10

   => Auxiliary Basis Set <=

  Basis Set: (ANONYMOUS9E1127B7 AUX)
    Blend: DEF2-UNIVERSAL-JKFIT
    Number of shells: 155
    Number of basis function: 467
    Number of Cartesian functions: 549
    Spherical Harmonics?: true
    Max angular momentum: 4

  Cached 100.0% of DFT collocation blocks in 4.513 [GiB].

  Minimum eigenvalue in the overlap matrix is 1.9137348064E-04.
  Reciprocal condition number of the overlap matrix is 3.1199623068E-05.
    Using symmetric orthogonalization.

  ==> Pre-Iterations <==

  SCF Guess: Superposition of Atomic Densities via on-the-fly atomic UHF (no occupation information).

   -------------------------
    Irrep   Nso     Nmo    
   -------------------------
     A'       115     115 
     A"        55      55 
   -------------------------
    Total     170     170
   -------------------------

  ==> Iterations <==

                           Total Energy        Delta E     RMS |[F,P]|

   @DF-RKS iter SAD:  -209.89082206341214   -2.09891e+02   0.00000e+00 
   @DF-RKS iter   1:  -209.87104842655967    1.97736e-02   5.91012e-03 DIIS
   @DF-RKS iter   2:  -209.70434464972342    1.66704e-01   7.54151e-03 DIIS
   @DF-RKS iter   3:  -210.18014315305422   -4.75799e-01   6.17923e-04 DIIS
   @DF-RKS iter   4:  -210.18157256266139   -1.42941e-03   4.32968e-04 DIIS
   @DF-RKS iter   5:  -210.18304206610961   -1.46950e-03   1.36804e-04 DIIS
   @DF-RKS iter   6:  -210.18317819303786   -1.36127e-04   4.80405e-05 DIIS
   @DF-RKS iter   7:  -210.18319396810529   -1.57751e-05   3.31701e-06 DIIS
   @DF-RKS iter   8:  -210.18319404831016   -8.02049e-08   3.55479e-07 DIIS
   @DF-RKS iter   9:  -210.18319404851940   -2.09241e-10   3.37911e-07 DIIS
   @DF-RKS iter  10:  -210.18319404948483   -9.65429e-10   6.44049e-08 DIIS
   @DF-RKS iter  11:  -210.18319404952265   -3.78293e-11   9.23984e-09 DIIS
   @DF-RKS iter  12:  -210.18319404952354   -8.81073e-13   2.30404e-09 DIIS
   @DF-RKS iter  13:  -210.18319404952339    1.42109e-13   1.38739e-09 DIIS
   @DF-RKS iter  14:  -210.18319404952368   -2.84217e-13   1.85352e-10 DIIS
   @DF-RKS iter  15:  -210.18319404952362    5.68434e-14   4.29851e-11 DIIS
  Energy and wave function converged.


  ==> Post-Iterations <==

    Orbital Energies [Eh]
    ---------------------

    Doubly Occupied:                                                      

       1Ap   -14.367650     2Ap   -10.190685     3Ap   -10.190399  
       4Ap   -10.154757     5Ap   -10.154291     6Ap    -0.963550  
       7Ap    -0.760403     8Ap    -0.709378     9Ap    -0.580107  
      10Ap    -0.554644    11Ap    -0.534559    12Ap    -0.419229  
      13Ap    -0.413964     1App   -0.395951    14Ap    -0.379186  
      15Ap    -0.363926     2App   -0.234268     3App   -0.203700  

    Virtual:                                                              

       4App    0.046956    16Ap     0.074843     5App    0.090912  
      17Ap     0.133178    18Ap     0.147458    19Ap     0.157106  
      20Ap     0.166450    21Ap     0.231180    22Ap     0.234163  
      23Ap     0.305986    24Ap     0.309703    25Ap     0.383310  
      26Ap     0.428094     6App    0.446397    27Ap     0.465316  
      28Ap     0.484089    29Ap     0.490114    30Ap     0.495499  
      31Ap     0.504443     7App    0.530300     8App    0.554745  
       9App    0.575149    32Ap     0.613431    33Ap     0.617786  
      10App    0.631931    11App    0.660866    34Ap     0.697413  
      35Ap     0.703216    12App    0.712748    36Ap     0.729130  
      13App    0.736943    37Ap     0.752157    14App    0.761352  
      38Ap     0.783820    39Ap     0.786902    15App    0.790281  
      40Ap     0.917055    41Ap     0.931314    42Ap     0.952252  
      16App    0.971579    43Ap     0.999049    17App    1.047660  
      44Ap     1.065006    18App    1.100122    45Ap     1.123096  
      46Ap     1.128917    47Ap     1.152585    19App    1.157332  
      20App    1.185968    48Ap     1.204358    21App    1.291551  
      22App    1.293228    49Ap     1.328549    50Ap     1.341185  
      51Ap     1.342998    52Ap     1.375120    53Ap     1.385656  
      54Ap     1.469711    55Ap     1.497716    23App    1.499949  
      56Ap     1.557531    57Ap     1.591773    24App    1.613686  
      58Ap     1.621337    25App    1.627309    59Ap     1.649824  
      60Ap     1.816963    61Ap     1.822721    62Ap     1.913197  
      63Ap     2.127176    64Ap     2.151711    65Ap     2.205899  
      66Ap     2.256724    67Ap     2.436364    68Ap     2.466545  
      26App    2.606152    27App    2.686257    69Ap     2.692515  
      28App    2.761198    70Ap     2.796585    29App    2.826403  
      71Ap     2.866542    72Ap     2.881270    30App    2.947261  
      73Ap     2.956979    31App    3.008590    74Ap     3.042630  
      32App    3.063220    75Ap     3.086376    33App    3.102843  
      76Ap     3.129717    77Ap     3.181213    34App    3.215474  
      78Ap     3.233225    35App    3.257711    36App    3.271595  
      37App    3.295840    79Ap     3.308218    38App    3.350146  
      80Ap     3.353297    81Ap     3.415115    82Ap     3.440456  
      83Ap     3.464495    84Ap     3.467841    39App    3.480514  
      85Ap     3.518404    86Ap     3.575761    40App    3.613323  
      41App    3.627901    87Ap     3.698756    42App    3.732546  
      88Ap     3.763376    89Ap     3.793094    43App    3.799914  
      90Ap     3.908331    91Ap     3.934471    44App    3.949215  
      45App    4.065362    46App    4.086506    92Ap     4.096459  
      93Ap     4.126599    94Ap     4.148117    95Ap     4.185453  
      47App    4.228649    48App    4.305003    49App    4.305168  
      96Ap     4.330544    97Ap     4.358899    98Ap     4.401936  
      50App    4.432392    99Ap     4.464657   100Ap     4.540532  
     101Ap     4.641104    51App    4.668602   102Ap     4.785093  
      52App    4.813213    53App    4.896177   103Ap     4.915082  
     104Ap     5.034794   105Ap     5.047575    54App    5.105939  
      55App    5.126970   106Ap     5.161460   107Ap     5.163990  
     108Ap     5.333709   109Ap     5.551444   110Ap     5.599001  
     111Ap     5.610085   112Ap     5.615596   113Ap     5.922999  
     114Ap     5.933909   115Ap     6.107380  

    Final Occupation by Irrep:
             Ap   App 
    DOCC [    15,    3 ]

  @DF-RKS Final Energy:  -210.18319404952362

   => Energetics <=

    Nuclear Repulsion Energy =            160.7571361906161087
    One-Electron Energy =                -600.9814839119258068
    Two-Electron Energy =                 254.7426532123566290
    DFT Exchange-Correlation Energy =     -24.7014995405705520
    Empirical Dispersion Energy =           0.0000000000000000
    VV10 Nonlocal Energy =                  0.0000000000000000
    Total Energy =                       -210.1831940495236211

Computation Completed


Properties will be evaluated at   0.000000,   0.000000,   0.000000 [a0]

Properties computed using the SCF density matrix

  Nuclear Dipole Moment: [e a0]
     X:    -0.0003      Y:    -0.0361      Z:     0.0000

  Electronic Dipole Moment: [e a0]
     X:     0.0004      Y:     0.7562      Z:     0.0000

  Dipole Moment: [e a0]
     X:     0.0001      Y:     0.7201      Z:     0.0000     Total:     0.7201

  Dipole Moment: [D]
     X:     0.0004      Y:     1.8303      Z:     0.0000     Total:     1.8303


*** tstop() called on n058 at Mon Nov 15 18:16:15 2021
Module time:
	user time   =     105.12 seconds =       1.75 minutes
	system time =       1.42 seconds =       0.02 minutes
	total time  =         28 seconds =       0.47 minutes
Total time:
	user time   =     105.12 seconds =       1.75 minutes
	system time =       1.42 seconds =       0.02 minutes
	total time  =         28 seconds =       0.47 minutes
Grab this energy -210.18319404952362
    Psi4 stopped on: Monday, 15 November 2021 06:16PM
    Psi4 wall time for execution: 0:00:27.25

*** Psi4 exiting successfully. Buy a developer a beer!
