
    -----------------------------------------------------------------------
          Psi4: An Open-Source Ab Initio Electronic Structure Package
                               Psi4 1.4a2.dev629 

                         Git: Rev {master} 2938fc2 dirty


    D. G. A. Smith, L. A. Burns, A. C. Simmonett, R. M. Parrish,
    M. C. Schieber, R. Galvelis, P. Kraus, H. Kruse, R. Di Remigio,
    A. Alenaizan, A. M. James, S. Lehtola, J. P. Misiewicz, M. Scheurer,
    R. A. Shaw, J. B. Schriber, Y. Xie, Z. L. Glick, D. A. Sirianni,
    J. S. O'Brien, J. M. Waldrop, A. Kumar, E. G. Hohenstein,
    B. P. Pritchard, B. R. Brooks, H. F. Schaefer III, A. Yu. Sokolov,
    K. Patkowski, A. E. DePrince III, U. Bozkaya, R. A. King,
    F. A. Evangelista, J. M. Turney, T. D. Crawford, C. D. Sherrill,
    J. Chem. Phys. 152(18) 184108 (2020). https://doi.org/10.1063/5.0006002

                            Additional Code Authors
    E. T. Seidl, C. L. Janssen, E. F. Valeev, M. L. Leininger,
    J. F. Gonthier, R. M. Richard, H. R. McAlexander, M. Saitow, X. Wang,
    P. Verma, and M. H. Lechner

             Previous Authors, Complete List of Code Contributors,
                       and Citations for Specific Modules
    https://github.com/psi4/psi4/blob/master/codemeta.json
    https://github.com/psi4/psi4/graphs/contributors
    http://psicode.org/psi4manual/master/introduction.html#citing-psifour

    -----------------------------------------------------------------------


    Psi4 started on: Monday, 15 November 2021 06:23PM

    Process ID: 109948
    Host:       n073
    PSIDATADIR: /opt/psi/4/master/share/psi4
    Memory:     500.0 MiB
    Threads:    4
    
  ==> Input File <==

--------------------------------------------------------------------------
import os
memory 14 GB 
 
molecule {
 N    0.0000000000    0.0000000000   -2.1204385080
 C   -0.0000000000    2.1279536528   -0.6252888569
 C    0.0000000000   -2.1279536528   -0.6252888569
 C   -0.0000000000   -1.3502993271    1.8654661420
 C   -0.0000000000    1.3502993271    1.8654661420
 H    0.0000000000    3.9874860569   -1.4481636484
 H   -0.0000000000   -3.9874860569   -1.4481636484
 H   -0.0000000000   -2.5726006944    3.4844328586
 H   -0.0000000000    2.5726006944    3.4844328586
 H    0.0000000000   -0.0000000000   -4.0172705026
units bohr
}

basis {

assign 6-31g_2dfp_

[ 6-31g_2dfp_ ]

spherical

!----------------------------------------------------------------------
! Basis Set Exchange
! Version v0.8.13
! https://www.basissetexchange.org
!----------------------------------------------------------------------
!   Basis set: 6-31G(2df,p)
! Description: 6-31G(2df,p)
!        Role: orbital
!     Version: 0  (Data from the original Basis Set Exchange)
!----------------------------------------------------------------------


****
H     0
S    3   1.00
     18.7311370              0.03349460
      2.8253937              0.23472695
      0.6401217              0.81375733
S    1   1.00
      0.1612778              1.00000000
P    1   1.00
      1.5000000              1.0000000
P    1   1.00
      0.3750000              1.0000000
****
B     0
S    6   1.00
   2068.8823000              0.0018663
    310.6495700              0.0142515
     70.6830330              0.0695516
     19.8610800              0.2325729
      6.2993048              0.4670787
      2.1270270              0.3634314
SP   3   1.00
      4.7279710             -0.1303938              0.0745976
      1.1903377             -0.1307889              0.3078467
      0.3594117              1.1309444              0.7434568
SP   1   1.00
      0.1267512              1.0000000              1.0000000
D    1   1.00
      0.8020000              1.0000000
D    1   1.00
      0.2005000              1.0000000
F    1   1.00
      0.5000000              1.0000000
****
C     0
S    6   1.00
   3047.5249000              0.0018347
    457.3695100              0.0140373
    103.9486900              0.0688426
     29.2101550              0.2321844
      9.2866630              0.4679413
      3.1639270              0.3623120
SP   3   1.00
      7.8682724             -0.1193324              0.0689991
      1.8812885             -0.1608542              0.3164240
      0.5442493              1.1434564              0.7443083
SP   1   1.00
      0.1687144              1.0000000              1.0000000
D    1   1.00
      1.2520000              1.0000000
D    1   1.00
      0.3130000              1.0000000
F    1   1.00
      0.8000000              1.0000000
****
N     0
S    6   1.00
   4173.5110000              0.0018348
    627.4579000              0.0139950
    142.9021000              0.0685870
     40.2343300              0.2322410
     12.8202100              0.4690700
      4.3904370              0.3604550
SP   3   1.00
     11.6263580             -0.1149610              0.0675800
      2.7162800             -0.1691180              0.3239070
      0.7722180              1.1458520              0.7408950
SP   1   1.00
      0.2120313              1.0000000              1.0000000
D    1   1.00
      1.8260000              1.0000000
D    1   1.00
      0.4565000              1.0000000
F    1   1.00
      1.0000000              1.0000000
****
O     0
S    6   1.00
   5484.6717000              0.0018311
    825.2349500              0.0139501
    188.0469600              0.0684451
     52.9645000              0.2327143
     16.8975700              0.4701930
      5.7996353              0.3585209
SP   3   1.00
     15.5396160             -0.1107775              0.0708743
      3.5999336             -0.1480263              0.3397528
      1.0137618              1.1307670              0.7271586
SP   1   1.00
      0.2700058              1.0000000              1.0000000
D    1   1.00
      2.5840000              1.0000000
D    1   1.00
      0.6460000              1.0000000
F    1   1.00
      1.4000000              1.0000000
****
F     0
S    6   1.00
   7001.7130900              0.0018196169
   1051.3660900              0.0139160796
    239.2856900              0.0684053245
     67.3974453              0.233185760
     21.5199573              0.471267439
      7.40310130             0.356618546
SP   3   1.00
     20.8479528             -0.108506975            0.0716287243
      4.80830834            -0.146451658            0.3459121030
      1.34406986             1.128688580            0.7224699570
SP   1   1.00
      0.358151393            1.0000000              1.0000000
D    1   1.00
      3.5000000              1.0000000
D    1   1.00
      0.8750000              1.0000000
F    1   1.00
      1.8500000              1.0000000
****
Al     0
S    6   1.00
  13983.1000000              0.00194267
   2098.7500000              0.0148599
    477.7050000              0.0728494
    134.3600000              0.2468300
     42.8709000              0.4872580
     14.5189000              0.3234960
SP   6   1.00
    239.6680000             -0.00292619             0.00460285
     57.4419000             -0.0374080              0.0331990
     18.2859000             -0.1144870              0.1362820
      6.5991400              0.1156350              0.3304760
      2.4904900              0.6125950              0.4491460
      0.9445400              0.3937990              0.2657040
SP   3   1.00
      1.2779000             -0.2276060             -0.0175130
      0.3975900              0.00144583             0.2445330
      0.1600950              1.0927900              0.8049340
SP   1   1.00
      0.0556577              1.0000000              1.0000000
D    1   1.00
      0.6500000              1.0000000
D    1   1.00
      0.1625000              1.0000000
F    1   1.00
      0.2500000              1.0000000
****
Si     0
S    6   1.00
  16115.9000000              0.00195948
   2425.5800000              0.01492880
    553.8670000              0.07284780
    156.3400000              0.24613000
     50.0683000              0.48591400
     17.0178000              0.32500200
SP   6   1.00
    292.7180000             -0.00278094             0.00443826
     69.8731000             -0.03571460             0.03266790
     22.3363000             -0.11498500             0.13472100
      8.1503900              0.09356340             0.32867800
      3.1345800              0.60301700             0.44964000
      1.2254300              0.41895900             0.26137200
SP   3   1.00
      1.7273800             -0.24463000            -0.01779510
      0.5729220              0.00431572             0.25353900
      0.2221920              1.09818000             0.80066900
SP   1   1.00
      0.0778369              1.00000000             1.00000000
D    1   1.00
      0.9000000              1.0000000
D    1   1.00
      0.2250000              1.0000000
F    1   1.00
      0.3200000              1.0000000
****
P     0
S    6   1.00
  19413.3000000              0.0018516
   2909.4200000              0.0142062
    661.3640000              0.0699995
    185.7590000              0.2400790
     59.1943000              0.4847620
     20.0310000              0.3352000
SP   6   1.00
    339.4780000             -0.00278217             0.00456462
     81.0101000             -0.0360499              0.03369360
     25.8780000             -0.1166310              0.13975500
      9.4522100              0.0968328              0.33936200
      3.6656600              0.6144180              0.45092100
      1.4674600              0.4037980              0.23858600
SP   3   1.00
      2.1562300             -0.2529230             -0.01776530
      0.7489970              0.0328517              0.27405800
      0.2831450              1.0812500              0.78542100
SP   1   1.00
      0.0998317              1.0000000              1.00000000
D    1   1.00
      1.1000000              1.0000000
D    1   1.00
      0.2750000              1.0000000
F    1   1.00
      0.4500000              1.0000000
****
S     0
S    6   1.00
  21917.1000000              0.0018690
   3301.4900000              0.0142300
    754.1460000              0.0696960
    212.7110000              0.2384870
     67.9896000              0.4833070
     23.0515000              0.3380740
SP   6   1.00
    423.7350000             -0.0023767              0.0040610
    100.7100000             -0.0316930              0.0306810
     32.1599000             -0.1133170              0.1304520
     11.8079000              0.0560900              0.3272050
      4.6311000              0.5922550              0.4528510
      1.8702500              0.4550060              0.2560420
SP   3   1.00
      2.6158400             -0.2503740             -0.0145110
      0.9221670              0.0669570              0.3102630
      0.3412870              1.0545100              0.7544830
SP   1   1.00
      0.1171670              1.0000000              1.0000000
D    1   1.00
      1.3000000              1.0000000
D    1   1.00
      0.3250000              1.0000000
F    1   1.00
      0.5500000              1.0000000
****
Cl     0
S    6   1.00
  25180.1000000              0.0018330
   3780.3500000              0.0140340
    860.4740000              0.0690970
    242.1450000              0.2374520
     77.3349000              0.4830340
     26.2470000              0.3398560
SP   6   1.00
    491.7650000             -0.0022974              0.0039894
    116.9840000             -0.0307140              0.0303180
     37.4153000             -0.1125280              0.1298800
     13.7834000              0.0450160              0.3279510
      5.4521500              0.5893530              0.4535270
      2.2258800              0.4652060              0.2521540
SP   3   1.00
      3.1864900             -0.2518300             -0.0142990
      1.1442700              0.0615890              0.3235720
      0.4203770              1.0601800              0.7435070
SP   1   1.00
      0.1426570              1.0000000              1.0000000
D    1   1.00
      1.5000000              1.0000000
D    1   1.00
      0.3750000              1.0000000
F    1   1.00
      0.7000000              1.0000000
****
}


set {
reference rhf                          
freeze_core true
e_convergence 10                       
d_convergence 10                      
dft_spherical_points 1202
dft_radial_points 99
}

e = energy('b3lyp')

print_out('Grab this energy {0}'.format(e))
--------------------------------------------------------------------------

  Memory set to  13.039 GiB by Python driver.

Scratch directory: /tmp/

*** tstart() called on n073
*** at Mon Nov 15 18:23:17 2021

   => Loading Basis Set <=

    Name: ANONYMOUS1EFA3BA7
    Role: ORBITAL
    Keyword: BASIS
    atoms 1    entry N          line    69 inputblock 6-31g_2dfp_ 
    atoms 2-5  entry C          line    48 inputblock 6-31g_2dfp_ 
    atoms 6-10 entry H          line    15 inputblock 6-31g_2dfp_ 


         ---------------------------------------------------------
                                   SCF
               by Justin Turney, Rob Parrish, Andy Simmonett
                          and Daniel G. A. Smith
                              RKS Reference
                        4 Threads,  13351 MiB Core
         ---------------------------------------------------------

  ==> Geometry <==

    Molecular point group: c2v
    Full point group: C2v

    Geometry (in Bohr), charge = 0, multiplicity = 1:

       Center              X                  Y                   Z               Mass       
    ------------   -----------------  -----------------  -----------------  -----------------
         N            0.000000000000     0.000000000000    -2.122337280499    14.003074004430
         C           -0.000000000000     2.127953652800    -0.627187629399    12.000000000000
         C            0.000000000000    -2.127953652800    -0.627187629399    12.000000000000
         C            0.000000000000    -1.350299327100     1.863567369501    12.000000000000
         C           -0.000000000000     1.350299327100     1.863567369501    12.000000000000
         H           -0.000000000000     3.987486056900    -1.450062420899     1.007825032230
         H            0.000000000000    -3.987486056900    -1.450062420899     1.007825032230
         H            0.000000000000    -2.572600694400     3.482534086101     1.007825032230
         H           -0.000000000000     2.572600694400     3.482534086101     1.007825032230
         H            0.000000000000     0.000000000000    -4.019169275099     1.007825032230

  Running in c2v symmetry.

  Rotational constants: A =      0.30431  B =      0.29976  C =      0.15101 [cm^-1]
  Rotational constants: A =   9122.92087  B =   8986.47980  C =   4527.09317 [MHz]
  Nuclear repulsion =  160.663538823490654

  Charge       = 0
  Multiplicity = 1
  Electrons    = 36
  Nalpha       = 18
  Nbeta        = 18

  ==> Algorithm <==

  SCF Algorithm Type is DF.
  DIIS enabled.
  MOM disabled.
  Fractional occupation disabled.
  Guess Type is SAD.
  Energy threshold   = 1.00e-10
  Density threshold  = 1.00e-10
  Integral threshold = 0.00e+00

  ==> Primary Basis <==

  Basis Set: ANONYMOUS1EFA3BA7
    Blend: 6-31G_2DFP_
    Number of shells: 60
    Number of basis function: 170
    Number of Cartesian functions: 195
    Spherical Harmonics?: true
    Max angular momentum: 3

  ==> DFT Potential <==

   => Composite Functional: B3LYP <= 

    B3LYP Hyb-GGA Exchange-Correlation Functional

    P. J. Stephens, F. J. Devlin, C. F. Chabalowski, and M. J. Frisch, J. Phys. Chem. 98, 11623 (1994)

    Deriv               =              1
    GGA                 =           TRUE
    Meta                =          FALSE

    Exchange Hybrid     =           TRUE
    MP2 Hybrid          =          FALSE

   => Exchange Functionals <=

    0.0800   Slater exchange
    0.7200         Becke 88

   => Exact (HF) Exchange <=

    0.2000               HF 

   => Correlation Functionals <=

    0.1900   Vosko, Wilk & Nusair (VWN5_RPA)
    0.8100   Lee, Yang & Parr

   => Molecular Quadrature <=

    Radial Scheme          =       TREUTLER
    Pruning Scheme         =           NONE
    Nuclear Scheme         =       TREUTLER

    BS radius alpha        =              1
    Pruning alpha          =              1
    Radial Points          =             99
    Spherical Points       =           1202
    Total Points           =        1106055
    Total Blocks           =           7441
    Max Points             =            256
    Max Functions          =            170
    Weights Tolerance      =       1.00E-15

   => Loading Basis Set <=

    Name: (ANONYMOUS1EFA3BA7 AUX)
    Role: JKFIT
    Keyword: DF_BASIS_SCF
    atoms 1    entry N          line   258 file /opt/psi/4/master/share/psi4/basis/def2-universal-jkfit.gbs 
    atoms 2-5  entry C          line   198 file /opt/psi/4/master/share/psi4/basis/def2-universal-jkfit.gbs 
    atoms 6-10 entry H          line    18 file /opt/psi/4/master/share/psi4/basis/def2-universal-jkfit.gbs 

  ==> Integral Setup <==

  DFHelper Memory: AOs need 0.108 GiB; user supplied 5.262 GiB. Using in-core AOs.

  ==> MemDFJK: Density-Fitted J/K Matrices <==

    J tasked:                   Yes
    K tasked:                   Yes
    wK tasked:                   No
    OpenMP threads:               4
    Memory [MiB]:              5388
    Algorithm:                 Core
    Schwarz Cutoff:           1E-12
    Mask sparsity (%):       0.8166
    Fitting Condition:        1E-10

   => Auxiliary Basis Set <=

  Basis Set: (ANONYMOUS1EFA3BA7 AUX)
    Blend: DEF2-UNIVERSAL-JKFIT
    Number of shells: 155
    Number of basis function: 467
    Number of Cartesian functions: 549
    Spherical Harmonics?: true
    Max angular momentum: 4

  Cached 100.0% of DFT collocation blocks in 4.517 [GiB].

  Minimum eigenvalue in the overlap matrix is 3.1885964627E-04.
  Reciprocal condition number of the overlap matrix is 5.4350973289E-05.
    Using symmetric orthogonalization.

  ==> Pre-Iterations <==

  SCF Guess: Superposition of Atomic Densities via on-the-fly atomic UHF (no occupation information).

   -------------------------
    Irrep   Nso     Nmo    
   -------------------------
     A1        61      61 
     A2        25      25 
     B1        30      30 
     B2        54      54 
   -------------------------
    Total     170     170
   -------------------------

  ==> Iterations <==

                           Total Energy        Delta E     RMS |[F,P]|

   @DF-RKS iter SAD:  -209.88412581412476   -2.09884e+02   0.00000e+00 
   @DF-RKS iter   1:  -209.87257730535163    1.15485e-02   8.31398e-03 DIIS
   @DF-RKS iter   2:  -209.70944779851612    1.63130e-01   1.05777e-02 DIIS
   @DF-RKS iter   3:  -210.17999263982333   -4.70545e-01   8.82150e-04 DIIS
   @DF-RKS iter   4:  -210.18144288784333   -1.45025e-03   6.23273e-04 DIIS
   @DF-RKS iter   5:  -210.18298183050206   -1.53894e-03   1.91716e-04 DIIS
   @DF-RKS iter   6:  -210.18311517409154   -1.33344e-04   6.80052e-05 DIIS
   @DF-RKS iter   7:  -210.18313104386058   -1.58698e-05   4.65964e-06 DIIS
   @DF-RKS iter   8:  -210.18313112427012   -8.04095e-08   3.59890e-07 DIIS
   @DF-RKS iter   9:  -210.18313112488912   -6.18996e-10   1.18416e-07 DIIS
   @DF-RKS iter  10:  -210.18313112495639   -6.72742e-11   2.01162e-08 DIIS
   @DF-RKS iter  11:  -210.18313112495872   -2.33058e-12   2.28220e-09 DIIS
   @DF-RKS iter  12:  -210.18313112495866    5.68434e-14   5.21303e-10 DIIS
   @DF-RKS iter  13:  -210.18313112495838    2.84217e-13   7.25263e-11 DIIS
  Energy and wave function converged.


  ==> Post-Iterations <==

    Orbital Energies [Eh]
    ---------------------

    Doubly Occupied:                                                      

       1A1   -14.367958     1B2   -10.190536     2A1   -10.190481  
       3A1   -10.154720     2B2   -10.154387     4A1    -0.962417  
       5A1    -0.760122     3B2    -0.708923     6A1    -0.580090  
       4B2    -0.555000     7A1    -0.534714     8A1    -0.419792  
       5B2    -0.413623     1B1    -0.395291     6B2    -0.379500  
       9A1    -0.364261     2B1    -0.234347     1A2    -0.203366  

    Virtual:                                                              

       3B1     0.046511    10A1     0.074391     2A2     0.090519  
      11A1     0.133762     7B2     0.148005    12A1     0.157811  
       8B2     0.166807     9B2     0.230990    13A1     0.233444  
      14A1     0.305695    10B2     0.310315    15A1     0.383192  
      11B2     0.427366     4B1     0.446785    16A1     0.464012  
      12B2     0.483849    17A1     0.489867    18A1     0.496121  
      13B2     0.504337     3A2     0.530947     5B1     0.555032  
       6B1     0.574819    19A1     0.613719    14B2     0.618671  
       4A2     0.632667     7B1     0.660473    20A1     0.697080  
      15B2     0.704046     8B1     0.712216    16B2     0.729110  
       5A2     0.736872    21A1     0.752386     6A2     0.761700  
      22A1     0.783204    17B2     0.786481     9B1     0.790079  
      18B2     0.916592    23A1     0.931854    19B2     0.952082  
      10B1     0.972127    24A1     1.000096     7A2     1.047929  
      25A1     1.065161    11B1     1.099506    20B2     1.123547  
      26A1     1.129374    21B2     1.153451    12B1     1.158085  
       8A2     1.186376    27A1     1.204207     9A2     1.291775  
      13B1     1.292528    22B2     1.328740    23B2     1.341194  
      28A1     1.341590    29A1     1.374671    24B2     1.385549  
      30A1     1.468503    31A1     1.496682    10A2     1.501361  
      25B2     1.558266    32A1     1.592441    11A2     1.613236  
      26B2     1.623570    14B1     1.627120    33A1     1.652418  
      34A1     1.818546    27B2     1.823869    28B2     1.913659  
      29B2     2.130061    35A1     2.151804    36A1     2.205756  
      30B2     2.254349    31B2     2.436217    37A1     2.461595  
      15B1     2.605610    16B1     2.686870    38A1     2.692023  
      12A2     2.760835    39A1     2.796550    17B1     2.827081  
      32B2     2.868658    40A1     2.879653    13A2     2.949184  
      33B2     2.956552    18B1     3.009391    41A1     3.045635  
      14A2     3.061072    34B2     3.085966    19B1     3.101032  
      42A1     3.129207    35B2     3.182667    20B1     3.215463  
      43A1     3.231789    21B1     3.256308    15A2     3.272542  
      16A2     3.296457    36B2     3.308872    17A2     3.350008  
      44A1     3.353917    37B2     3.412743    38B2     3.440650  
      45A1     3.464087    46A1     3.466152    22B1     3.479676  
      39B2     3.518873    47A1     3.574629    18A2     3.612360  
      23B1     3.627110    40B2     3.698271    19A2     3.732768  
      48A1     3.764023    41B2     3.791213    24B1     3.797952  
      49A1     3.907744    42B2     3.934931    20A2     3.947425  
      25B1     4.065096    26B1     4.089486    50A1     4.095367  
      51A1     4.123562    43B2     4.147312    44B2     4.183695  
      21A2     4.230061    22A2     4.306520    27B1     4.306843  
      45B2     4.331105    52A1     4.359164    46B2     4.401254  
      28B1     4.430922    53A1     4.463423    54A1     4.543286  
      47B2     4.644079    23A2     4.673442    48B2     4.783988  
      29B1     4.810017    24A2     4.892282    55A1     4.917320  
      56A1     5.038567    49B2     5.046797    25A2     5.106404  
      30B1     5.125250    50B2     5.160085    57A1     5.172286  
      58A1     5.338996    51B2     5.554223    59A1     5.594195  
      60A1     5.605785    52B2     5.616367    53B2     5.919545  
      61A1     5.926564    54B2     6.105823  

    Final Occupation by Irrep:
             A1    A2    B1    B2 
    DOCC [     9,    1,    2,    6 ]

  @DF-RKS Final Energy:  -210.18313112495838

   => Energetics <=

    Nuclear Repulsion Energy =            160.6635388234906543
    One-Electron Energy =                -600.7965686192297881
    Two-Electron Energy =                 254.6510627685142651
    DFT Exchange-Correlation Energy =     -24.7011640977334821
    Empirical Dispersion Energy =           0.0000000000000000
    VV10 Nonlocal Energy =                  0.0000000000000000
    Total Energy =                       -210.1831311249583791

Computation Completed


Properties will be evaluated at   0.000000,   0.000000,   0.000000 [a0]

Properties computed using the SCF density matrix

  Nuclear Dipole Moment: [e a0]
     X:     0.0000      Y:     0.0000      Z:     0.0260

  Electronic Dipole Moment: [e a0]
     X:     0.0000      Y:     0.0000      Z:    -0.7456

  Dipole Moment: [e a0]
     X:     0.0000      Y:     0.0000      Z:    -0.7197     Total:     0.7197

  Dipole Moment: [D]
     X:     0.0000      Y:     0.0000      Z:    -1.8292     Total:     1.8292


*** tstop() called on n073 at Mon Nov 15 18:23:41 2021
Module time:
	user time   =      88.92 seconds =       1.48 minutes
	system time =       1.54 seconds =       0.03 minutes
	total time  =         24 seconds =       0.40 minutes
Total time:
	user time   =      88.92 seconds =       1.48 minutes
	system time =       1.54 seconds =       0.03 minutes
	total time  =         24 seconds =       0.40 minutes
Grab this energy -210.18313112495838
    Psi4 stopped on: Monday, 15 November 2021 06:23PM
    Psi4 wall time for execution: 0:00:23.30

*** Psi4 exiting successfully. Buy a developer a beer!
