
    -----------------------------------------------------------------------
          Psi4: An Open-Source Ab Initio Electronic Structure Package
                               Psi4 1.4a2.dev629 

                         Git: Rev {master} 2938fc2 dirty


    D. G. A. Smith, L. A. Burns, A. C. Simmonett, R. M. Parrish,
    M. C. Schieber, R. Galvelis, P. Kraus, H. Kruse, R. Di Remigio,
    A. Alenaizan, A. M. James, S. Lehtola, J. P. Misiewicz, M. Scheurer,
    R. A. Shaw, J. B. Schriber, Y. Xie, Z. L. Glick, D. A. Sirianni,
    J. S. O'Brien, J. M. Waldrop, A. Kumar, E. G. Hohenstein,
    B. P. Pritchard, B. R. Brooks, H. F. Schaefer III, A. Yu. Sokolov,
    K. Patkowski, A. E. DePrince III, U. Bozkaya, R. A. King,
    F. A. Evangelista, J. M. Turney, T. D. Crawford, C. D. Sherrill,
    J. Chem. Phys. 152(18) 184108 (2020). https://doi.org/10.1063/5.0006002

                            Additional Code Authors
    E. T. Seidl, C. L. Janssen, E. F. Valeev, M. L. Leininger,
    J. F. Gonthier, R. M. Richard, H. R. McAlexander, M. Saitow, X. Wang,
    P. Verma, and M. H. Lechner

             Previous Authors, Complete List of Code Contributors,
                       and Citations for Specific Modules
    https://github.com/psi4/psi4/blob/master/codemeta.json
    https://github.com/psi4/psi4/graphs/contributors
    http://psicode.org/psi4manual/master/introduction.html#citing-psifour

    -----------------------------------------------------------------------


    Psi4 started on: Monday, 15 November 2021 06:21PM

    Process ID: 23466
    Host:       n058
    PSIDATADIR: /opt/psi/4/master/share/psi4
    Memory:     500.0 MiB
    Threads:    4
    
  ==> Input File <==

--------------------------------------------------------------------------
import os
memory 14 GB 
 
molecule {
 N    0.0014050995    0.0000000000   -2.1178434203
 C    0.0015532018    2.1278329756   -0.6260809851
 C    0.0015532018   -2.1278329756   -0.6260809851
 C    0.0016397632   -1.3512027595    1.8590437555
 C    0.0016397632    1.3512027595    1.8590437555
 H   -0.0015005160    3.9865085563   -1.4467989446
 H   -0.0015005160   -3.9865085563   -1.4467989446
 H   -0.0016494435   -2.5740947171    3.4888632875
 H   -0.0016494435    2.5740947171    3.4888632875
 H   -0.0014911105    0.0000000000   -4.0170268263
units bohr
}

basis {

assign 6-31g_2dfp_

[ 6-31g_2dfp_ ]

spherical

!----------------------------------------------------------------------
! Basis Set Exchange
! Version v0.8.13
! https://www.basissetexchange.org
!----------------------------------------------------------------------
!   Basis set: 6-31G(2df,p)
! Description: 6-31G(2df,p)
!        Role: orbital
!     Version: 0  (Data from the original Basis Set Exchange)
!----------------------------------------------------------------------


****
H     0
S    3   1.00
     18.7311370              0.03349460
      2.8253937              0.23472695
      0.6401217              0.81375733
S    1   1.00
      0.1612778              1.00000000
P    1   1.00
      1.5000000              1.0000000
P    1   1.00
      0.3750000              1.0000000
****
B     0
S    6   1.00
   2068.8823000              0.0018663
    310.6495700              0.0142515
     70.6830330              0.0695516
     19.8610800              0.2325729
      6.2993048              0.4670787
      2.1270270              0.3634314
SP   3   1.00
      4.7279710             -0.1303938              0.0745976
      1.1903377             -0.1307889              0.3078467
      0.3594117              1.1309444              0.7434568
SP   1   1.00
      0.1267512              1.0000000              1.0000000
D    1   1.00
      0.8020000              1.0000000
D    1   1.00
      0.2005000              1.0000000
F    1   1.00
      0.5000000              1.0000000
****
C     0
S    6   1.00
   3047.5249000              0.0018347
    457.3695100              0.0140373
    103.9486900              0.0688426
     29.2101550              0.2321844
      9.2866630              0.4679413
      3.1639270              0.3623120
SP   3   1.00
      7.8682724             -0.1193324              0.0689991
      1.8812885             -0.1608542              0.3164240
      0.5442493              1.1434564              0.7443083
SP   1   1.00
      0.1687144              1.0000000              1.0000000
D    1   1.00
      1.2520000              1.0000000
D    1   1.00
      0.3130000              1.0000000
F    1   1.00
      0.8000000              1.0000000
****
N     0
S    6   1.00
   4173.5110000              0.0018348
    627.4579000              0.0139950
    142.9021000              0.0685870
     40.2343300              0.2322410
     12.8202100              0.4690700
      4.3904370              0.3604550
SP   3   1.00
     11.6263580             -0.1149610              0.0675800
      2.7162800             -0.1691180              0.3239070
      0.7722180              1.1458520              0.7408950
SP   1   1.00
      0.2120313              1.0000000              1.0000000
D    1   1.00
      1.8260000              1.0000000
D    1   1.00
      0.4565000              1.0000000
F    1   1.00
      1.0000000              1.0000000
****
O     0
S    6   1.00
   5484.6717000              0.0018311
    825.2349500              0.0139501
    188.0469600              0.0684451
     52.9645000              0.2327143
     16.8975700              0.4701930
      5.7996353              0.3585209
SP   3   1.00
     15.5396160             -0.1107775              0.0708743
      3.5999336             -0.1480263              0.3397528
      1.0137618              1.1307670              0.7271586
SP   1   1.00
      0.2700058              1.0000000              1.0000000
D    1   1.00
      2.5840000              1.0000000
D    1   1.00
      0.6460000              1.0000000
F    1   1.00
      1.4000000              1.0000000
****
F     0
S    6   1.00
   7001.7130900              0.0018196169
   1051.3660900              0.0139160796
    239.2856900              0.0684053245
     67.3974453              0.233185760
     21.5199573              0.471267439
      7.40310130             0.356618546
SP   3   1.00
     20.8479528             -0.108506975            0.0716287243
      4.80830834            -0.146451658            0.3459121030
      1.34406986             1.128688580            0.7224699570
SP   1   1.00
      0.358151393            1.0000000              1.0000000
D    1   1.00
      3.5000000              1.0000000
D    1   1.00
      0.8750000              1.0000000
F    1   1.00
      1.8500000              1.0000000
****
Al     0
S    6   1.00
  13983.1000000              0.00194267
   2098.7500000              0.0148599
    477.7050000              0.0728494
    134.3600000              0.2468300
     42.8709000              0.4872580
     14.5189000              0.3234960
SP   6   1.00
    239.6680000             -0.00292619             0.00460285
     57.4419000             -0.0374080              0.0331990
     18.2859000             -0.1144870              0.1362820
      6.5991400              0.1156350              0.3304760
      2.4904900              0.6125950              0.4491460
      0.9445400              0.3937990              0.2657040
SP   3   1.00
      1.2779000             -0.2276060             -0.0175130
      0.3975900              0.00144583             0.2445330
      0.1600950              1.0927900              0.8049340
SP   1   1.00
      0.0556577              1.0000000              1.0000000
D    1   1.00
      0.6500000              1.0000000
D    1   1.00
      0.1625000              1.0000000
F    1   1.00
      0.2500000              1.0000000
****
Si     0
S    6   1.00
  16115.9000000              0.00195948
   2425.5800000              0.01492880
    553.8670000              0.07284780
    156.3400000              0.24613000
     50.0683000              0.48591400
     17.0178000              0.32500200
SP   6   1.00
    292.7180000             -0.00278094             0.00443826
     69.8731000             -0.03571460             0.03266790
     22.3363000             -0.11498500             0.13472100
      8.1503900              0.09356340             0.32867800
      3.1345800              0.60301700             0.44964000
      1.2254300              0.41895900             0.26137200
SP   3   1.00
      1.7273800             -0.24463000            -0.01779510
      0.5729220              0.00431572             0.25353900
      0.2221920              1.09818000             0.80066900
SP   1   1.00
      0.0778369              1.00000000             1.00000000
D    1   1.00
      0.9000000              1.0000000
D    1   1.00
      0.2250000              1.0000000
F    1   1.00
      0.3200000              1.0000000
****
P     0
S    6   1.00
  19413.3000000              0.0018516
   2909.4200000              0.0142062
    661.3640000              0.0699995
    185.7590000              0.2400790
     59.1943000              0.4847620
     20.0310000              0.3352000
SP   6   1.00
    339.4780000             -0.00278217             0.00456462
     81.0101000             -0.0360499              0.03369360
     25.8780000             -0.1166310              0.13975500
      9.4522100              0.0968328              0.33936200
      3.6656600              0.6144180              0.45092100
      1.4674600              0.4037980              0.23858600
SP   3   1.00
      2.1562300             -0.2529230             -0.01776530
      0.7489970              0.0328517              0.27405800
      0.2831450              1.0812500              0.78542100
SP   1   1.00
      0.0998317              1.0000000              1.00000000
D    1   1.00
      1.1000000              1.0000000
D    1   1.00
      0.2750000              1.0000000
F    1   1.00
      0.4500000              1.0000000
****
S     0
S    6   1.00
  21917.1000000              0.0018690
   3301.4900000              0.0142300
    754.1460000              0.0696960
    212.7110000              0.2384870
     67.9896000              0.4833070
     23.0515000              0.3380740
SP   6   1.00
    423.7350000             -0.0023767              0.0040610
    100.7100000             -0.0316930              0.0306810
     32.1599000             -0.1133170              0.1304520
     11.8079000              0.0560900              0.3272050
      4.6311000              0.5922550              0.4528510
      1.8702500              0.4550060              0.2560420
SP   3   1.00
      2.6158400             -0.2503740             -0.0145110
      0.9221670              0.0669570              0.3102630
      0.3412870              1.0545100              0.7544830
SP   1   1.00
      0.1171670              1.0000000              1.0000000
D    1   1.00
      1.3000000              1.0000000
D    1   1.00
      0.3250000              1.0000000
F    1   1.00
      0.5500000              1.0000000
****
Cl     0
S    6   1.00
  25180.1000000              0.0018330
   3780.3500000              0.0140340
    860.4740000              0.0690970
    242.1450000              0.2374520
     77.3349000              0.4830340
     26.2470000              0.3398560
SP   6   1.00
    491.7650000             -0.0022974              0.0039894
    116.9840000             -0.0307140              0.0303180
     37.4153000             -0.1125280              0.1298800
     13.7834000              0.0450160              0.3279510
      5.4521500              0.5893530              0.4535270
      2.2258800              0.4652060              0.2521540
SP   3   1.00
      3.1864900             -0.2518300             -0.0142990
      1.1442700              0.0615890              0.3235720
      0.4203770              1.0601800              0.7435070
SP   1   1.00
      0.1426570              1.0000000              1.0000000
D    1   1.00
      1.5000000              1.0000000
D    1   1.00
      0.3750000              1.0000000
F    1   1.00
      0.7000000              1.0000000
****
}


set {
reference rhf                          
freeze_core true
e_convergence 10                       
d_convergence 10                      
dft_spherical_points 1202
dft_radial_points 99
}

e = energy('b3lyp')

print_out('Grab this energy {0}'.format(e))
--------------------------------------------------------------------------

  Memory set to  13.039 GiB by Python driver.

Scratch directory: /tmp/

*** tstart() called on n058
*** at Mon Nov 15 18:21:32 2021

   => Loading Basis Set <=

    Name: ANONYMOUSA8AF8400
    Role: ORBITAL
    Keyword: BASIS
    atoms 1    entry N          line    69 inputblock 6-31g_2dfp_ 
    atoms 2-5  entry C          line    48 inputblock 6-31g_2dfp_ 
    atoms 6-10 entry H          line    15 inputblock 6-31g_2dfp_ 


         ---------------------------------------------------------
                                   SCF
               by Justin Turney, Rob Parrish, Andy Simmonett
                          and Daniel G. A. Smith
                              RKS Reference
                        4 Threads,  13351 MiB Core
         ---------------------------------------------------------

  ==> Geometry <==

    Molecular point group: cs
    Full point group: Cs

    Geometry (in Bohr), charge = 0, multiplicity = 1:

       Center              X                  Y                   Z               Mass       
    ------------   -----------------  -----------------  -----------------  -----------------
         N           -0.000085708447    -2.117879446550     0.000000000000    14.003074004430
         C           -0.000233810747    -0.626117011350     2.127832975600    12.000000000000
         C           -0.000233810747    -0.626117011350    -2.127832975600    12.000000000000
         C           -0.000320372147     1.859007729250    -1.351202759500    12.000000000000
         C           -0.000320372147     1.859007729250     1.351202759500    12.000000000000
         H            0.002819907053    -1.446834970850     3.986508556300     1.007825032230
         H            0.002819907053    -1.446834970850    -3.986508556300     1.007825032230
         H            0.002968834553     3.488827261250    -2.574094717100     1.007825032230
         H            0.002968834553     3.488827261250     2.574094717100     1.007825032230
         H            0.002810501553    -4.017062852550     0.000000000000     1.007825032230

  Running in cs symmetry.

  Rotational constants: A =      0.30424  B =      0.30073  C =      0.15124 [cm^-1]
  Rotational constants: A =   9120.79622  B =   9015.73585  C =   4533.98190 [MHz]
  Nuclear repulsion =  160.763997650057149

  Charge       = 0
  Multiplicity = 1
  Electrons    = 36
  Nalpha       = 18
  Nbeta        = 18

  ==> Algorithm <==

  SCF Algorithm Type is DF.
  DIIS enabled.
  MOM disabled.
  Fractional occupation disabled.
  Guess Type is SAD.
  Energy threshold   = 1.00e-10
  Density threshold  = 1.00e-10
  Integral threshold = 0.00e+00

  ==> Primary Basis <==

  Basis Set: ANONYMOUSA8AF8400
    Blend: 6-31G_2DFP_
    Number of shells: 60
    Number of basis function: 170
    Number of Cartesian functions: 195
    Spherical Harmonics?: true
    Max angular momentum: 3

  ==> DFT Potential <==

   => Composite Functional: B3LYP <= 

    B3LYP Hyb-GGA Exchange-Correlation Functional

    P. J. Stephens, F. J. Devlin, C. F. Chabalowski, and M. J. Frisch, J. Phys. Chem. 98, 11623 (1994)

    Deriv               =              1
    GGA                 =           TRUE
    Meta                =          FALSE

    Exchange Hybrid     =           TRUE
    MP2 Hybrid          =          FALSE

   => Exchange Functionals <=

    0.0800   Slater exchange
    0.7200         Becke 88

   => Exact (HF) Exchange <=

    0.2000               HF 

   => Correlation Functionals <=

    0.1900   Vosko, Wilk & Nusair (VWN5_RPA)
    0.8100   Lee, Yang & Parr

   => Molecular Quadrature <=

    Radial Scheme          =       TREUTLER
    Pruning Scheme         =           NONE
    Nuclear Scheme         =       TREUTLER

    BS radius alpha        =              1
    Pruning alpha          =              1
    Radial Points          =             99
    Spherical Points       =           1202
    Total Points           =        1106045
    Total Blocks           =           7394
    Max Points             =            256
    Max Functions          =            170
    Weights Tolerance      =       1.00E-15

   => Loading Basis Set <=

    Name: (ANONYMOUSA8AF8400 AUX)
    Role: JKFIT
    Keyword: DF_BASIS_SCF
    atoms 1    entry N          line   258 file /opt/psi/4/master/share/psi4/basis/def2-universal-jkfit.gbs 
    atoms 2-5  entry C          line   198 file /opt/psi/4/master/share/psi4/basis/def2-universal-jkfit.gbs 
    atoms 6-10 entry H          line    18 file /opt/psi/4/master/share/psi4/basis/def2-universal-jkfit.gbs 

  ==> Integral Setup <==

  DFHelper Memory: AOs need 0.108 GiB; user supplied 5.257 GiB. Using in-core AOs.

  ==> MemDFJK: Density-Fitted J/K Matrices <==

    J tasked:                   Yes
    K tasked:                   Yes
    wK tasked:                   No
    OpenMP threads:               4
    Memory [MiB]:              5383
    Algorithm:                 Core
    Schwarz Cutoff:           1E-12
    Mask sparsity (%):       0.8028
    Fitting Condition:        1E-10

   => Auxiliary Basis Set <=

  Basis Set: (ANONYMOUSA8AF8400 AUX)
    Blend: DEF2-UNIVERSAL-JKFIT
    Number of shells: 155
    Number of basis function: 467
    Number of Cartesian functions: 549
    Spherical Harmonics?: true
    Max angular momentum: 4

  Cached 100.0% of DFT collocation blocks in 4.522 [GiB].

  Minimum eigenvalue in the overlap matrix is 3.1746139264E-04.
  Reciprocal condition number of the overlap matrix is 5.4141047548E-05.
    Using symmetric orthogonalization.

  ==> Pre-Iterations <==

  SCF Guess: Superposition of Atomic Densities via on-the-fly atomic UHF (no occupation information).

   -------------------------
    Irrep   Nso     Nmo    
   -------------------------
     A'        91      91 
     A"        79      79 
   -------------------------
    Total     170     170
   -------------------------

  ==> Iterations <==

                           Total Energy        Delta E     RMS |[F,P]|

   @DF-RKS iter SAD:  -209.89107949309314   -2.09891e+02   0.00000e+00 
   @DF-RKS iter   1:  -209.87101410498394    2.00654e-02   6.25082e-03 DIIS
   @DF-RKS iter   2:  -209.70483307907944    1.66181e-01   7.97349e-03 DIIS
   @DF-RKS iter   3:  -210.18018902693564   -4.75356e-01   6.51552e-04 DIIS
   @DF-RKS iter   4:  -210.18161597245847   -1.42695e-03   4.54921e-04 DIIS
   @DF-RKS iter   5:  -210.18306237096419   -1.44640e-03   1.45085e-04 DIIS
   @DF-RKS iter   6:  -210.18319932860012   -1.36958e-04   5.09675e-05 DIIS
   @DF-RKS iter   7:  -210.18321518942147   -1.58608e-05   3.48249e-06 DIIS
   @DF-RKS iter   8:  -210.18321526887115   -7.94497e-08   2.66697e-07 DIIS
   @DF-RKS iter   9:  -210.18321526946301   -5.91854e-10   8.64885e-08 DIIS
   @DF-RKS iter  10:  -210.18321526952587   -6.28688e-11   1.45046e-08 DIIS
   @DF-RKS iter  11:  -210.18321526952778   -1.90425e-12   1.95165e-09 DIIS
   @DF-RKS iter  12:  -210.18321526952823   -4.54747e-13   6.68624e-10 DIIS
   @DF-RKS iter  13:  -210.18321526952798    2.55795e-13   1.65833e-10 DIIS
   @DF-RKS iter  14:  -210.18321526952778    1.98952e-13   1.74262e-11 DIIS
  Energy and wave function converged.


  ==> Post-Iterations <==

    Orbital Energies [Eh]
    ---------------------

    Doubly Occupied:                                                      

       1Ap   -14.367731     1App  -10.190156     2Ap   -10.190101  
       3Ap   -10.154718     2App  -10.154388     4Ap    -0.963034  
       5Ap    -0.760000     3App   -0.709657     6Ap    -0.579257  
       4App   -0.554597     7Ap    -0.535206     8Ap    -0.419076  
       5App   -0.414112     9Ap    -0.395772     6App   -0.379428  
      10Ap    -0.363741    11Ap    -0.234092     7App   -0.203933  

    Virtual:                                                              

      12Ap     0.047162    13Ap     0.074080     8App    0.091004  
      14Ap     0.133567     9App    0.148106    15Ap     0.157300  
      10App    0.166265    11App    0.230955    16Ap     0.234040  
      17Ap     0.306072    12App    0.309917    18Ap     0.383360  
      13App    0.427952    19Ap     0.446368    20Ap     0.464066  
      14App    0.483717    21Ap     0.490556    22Ap     0.496067  
      15App    0.505208    16App    0.530456    23Ap     0.554620  
      24Ap     0.574983    25Ap     0.613075    17App    0.618054  
      18App    0.631876    26Ap     0.660557    27Ap     0.697922  
      19App    0.703514    28Ap     0.712618    20App    0.729026  
      21App    0.737235    29Ap     0.752454    22App    0.761713  
      30Ap     0.783674    23App    0.786958    31Ap     0.790432  
      24App    0.916899    32Ap     0.931356    25App    0.951819  
      33Ap     0.971788    34Ap     1.000259    26App    1.047825  
      35Ap     1.064920    36Ap     1.100149    27App    1.123464  
      37Ap     1.129268    28App    1.152595    38Ap     1.158215  
      29App    1.185977    39Ap     1.203989    40Ap     1.292422  
      30App    1.292877    31App    1.329162    32App    1.341292  
      41Ap     1.343153    42Ap     1.375570    33App    1.385874  
      43Ap     1.468368    44Ap     1.497054    34App    1.500208  
      35App    1.558117    45Ap     1.592756    36App    1.613886  
      37App    1.621191    46Ap     1.627456    47Ap     1.652996  
      48Ap     1.815872    38App    1.824660    39App    1.914186  
      40App    2.128937    49Ap     2.150173    50Ap     2.204998  
      41App    2.255439    42App    2.438290    51Ap     2.466086  
      52Ap     2.606160    53Ap     2.687111    54Ap     2.692869  
      43App    2.761387    55Ap     2.796640    56Ap     2.826035  
      44App    2.867251    57Ap     2.880677    45App    2.948281  
      46App    2.956892    58Ap     3.008754    59Ap     3.041224  
      47App    3.062405    48App    3.085612    60Ap     3.101839  
      61Ap     3.128936    49App    3.180352    62Ap     3.214793  
      63Ap     3.234376    64Ap     3.255663    50App    3.269665  
      51App    3.295559    52App    3.309130    53App    3.350413  
      65Ap     3.354399    54App    3.414708    55App    3.441611  
      66Ap     3.464971    67Ap     3.467266    68Ap     3.480762  
      56App    3.516874    69Ap     3.575213    57App    3.614368  
      70Ap     3.628618    58App    3.697840    59App    3.733395  
      71Ap     3.764888    60App    3.792565    72Ap     3.799812  
      73Ap     3.907116    61App    3.935831    62App    3.949567  
      74Ap     4.067366    75Ap     4.087720    76Ap     4.096906  
      77Ap     4.126681    63App    4.147686    64App    4.185549  
      65App    4.228947    78Ap     4.304479    66App    4.308204  
      67App    4.329924    79Ap     4.359805    68App    4.403175  
      80Ap     4.431882    81Ap     4.465207    82Ap     4.543674  
      69App    4.644456    70App    4.669674    71App    4.787567  
      83Ap     4.813000    72App    4.895840    84Ap     4.916228  
      85Ap     5.032790    73App    5.043635    74App    5.107007  
      86Ap     5.124986    75App    5.167481    87Ap     5.173029  
      88Ap     5.334229    76App    5.552155    89Ap     5.598207  
      90Ap     5.612828    77App    5.619229    78App    5.921795  
      91Ap     5.924766    79App    6.108251  

    Final Occupation by Irrep:
             Ap   App 
    DOCC [    11,    7 ]

  @DF-RKS Final Energy:  -210.18321526952778

   => Energetics <=

    Nuclear Repulsion Energy =            160.7639976500571493
    One-Electron Energy =                -600.9982504920428710
    Two-Electron Energy =                 254.7529426378494861
    DFT Exchange-Correlation Energy =     -24.7019050653915357
    Empirical Dispersion Energy =           0.0000000000000000
    VV10 Nonlocal Energy =                  0.0000000000000000
    Total Energy =                       -210.1832152695277784

Computation Completed


Properties will be evaluated at   0.000000,   0.000000,   0.000000 [a0]

Properties computed using the SCF density matrix

  Nuclear Dipole Moment: [e a0]
     X:     0.0071      Y:     0.0365      Z:     0.0000

  Electronic Dipole Moment: [e a0]
     X:    -0.0045      Y:    -0.7573      Z:     0.0000

  Dipole Moment: [e a0]
     X:     0.0026      Y:    -0.7208      Z:     0.0000     Total:     0.7208

  Dipole Moment: [D]
     X:     0.0067      Y:    -1.8322      Z:     0.0000     Total:     1.8322


*** tstop() called on n058 at Mon Nov 15 18:21:57 2021
Module time:
	user time   =      96.76 seconds =       1.61 minutes
	system time =       1.31 seconds =       0.02 minutes
	total time  =         25 seconds =       0.42 minutes
Total time:
	user time   =      96.76 seconds =       1.61 minutes
	system time =       1.31 seconds =       0.02 minutes
	total time  =         25 seconds =       0.42 minutes
Grab this energy -210.18321526952778
    Psi4 stopped on: Monday, 15 November 2021 06:21PM
    Psi4 wall time for execution: 0:00:25.13

*** Psi4 exiting successfully. Buy a developer a beer!
