
 Primary working directories    : /tmp/1051568.139.gen6.q
 Secondary working directories  : /tmp/1051568.139.gen6.q
 Wavefunction directory         : /home/vulcan/mel64643/wfu/
 Main file repository           : /tmp/1051568.139.gen6.q/

 ARCHNAME  : Linux/x86_64
 FC        : /opt/intel/compilers_and_libraries_2016.1.150/linux/bin/intel64/ifort
 FCVERSION : 16.0.1
 BLASLIB   : -mkl
 id        : ccgc

 Nodes     nprocs
 n083         1
 ga_uses_ma=false, calling ma_init with nominal heap.
 GA-space will be limited to   8.0 MW (determined by -G option)

 Using customized tuning parameters: mindgm=10; mindgv=16; mindgc=4; mindgr=1; noblas=0; mincuda=1000; minvec=7
 default implementation of scratch files=df  

 ***,Optimization of min3
 memory,1000,m
 gthresh,energy=1.0d-12,orbital=1.0d-10,oneint=1.0d-16,twoint=1.0d-16,optgrad=1.0d-6,compress=1.0d-13
 geomtyp=xyz
 
 
 
  bohr
  geometry = {
  C    0.0018400647   -0.0000000000   -2.6767519265
  C    0.0051567391    2.2637024581   -1.3267794379
  C    0.0051567391   -2.2637024581   -1.3267794379
  C   -0.0000116037    2.1576948443    1.3105153724
  C   -0.0000116037   -2.1576948443    1.3105153724
  N   -0.0081274760   -0.0000000000    2.6431646138
  H   -0.0031877695   -0.0000000000   -4.7232107702
  H   -0.0028799897    4.0719663417   -2.2822092598
  H   -0.0028799897   -4.0719663417   -2.2822092598
  H    0.0024724447    3.8871580741    2.4105654668
  H    0.0024724447   -3.8871580741    2.4105654668
 }
 
 basis=cc-pvdz
 {rhf;maxit,200}
 {mp4}

 Variables initialized (661), CPU time= 0.00 sec
 Commands  initialized (458), CPU time= 0.00 sec, 486 directives.
 Default parameters read. Elapsed time= 0.04 sec

 Checking input...
 Passed
1


                                         ***  PROGRAM SYSTEM MOLPRO  ***
                         Copyright, University College Cardiff Consultants Limited, 2008

                                    Version 2010.1 linked May 16 2016 07:17:05


 **********************************************************************************************************************************
 LABEL *   Optimization of min3                                                          
 Linux-4.4.3/n083(x86_64) 64 bit mpp version                                             DATE: 14-Apr-24          TIME: 15:23:51  
 **********************************************************************************************************************************

 SHA1:             9e8077add272b0f3cad6f7df79ec5211205f459d
 **********************************************************************************************************************************

 THRESHOLDS:

 ZERO    =  1.00D-12  ONEINT  =  1.00D-16  TWOINT  =  1.00D-16  PREFAC  =  1.00D-14  LOCALI  =  1.00D-09  EORDER  =  1.00D-04
 ENERGY  =  1.00D-12  ETEST   =  0.00D+00  EDENS   =  0.00D+00  THRDEDEF=  1.00D-06  GRADIENT=  1.00D-02  STEP    =  1.00D-03
 ORBITAL =  1.00D-10  CIVEC   =  1.00D-05  COEFF   =  1.00D-04  PRINTCI =  5.00D-02  PUNCHCI =  9.90D+01  OPTGRAD =  1.00D-06
 OPTENERG=  1.00D-06  OPTSTEP =  3.00D-04  THRGRAD =  1.00D-10  COMPRESS=  1.00D-13  VARMIN  =  1.00D-07  VARMAX  =  1.00D-03
 THRDOUB =  0.00D+00  THRDIV  =  1.00D-05  THRRED  =  1.00D-07  THRPSP  =  1.00D+00  THRDC   =  1.00D-10  THRCS   =  1.00D-10
 THRNRM  =  1.00D-08  THREQ   =  0.00D+00  THRDE   =  1.00D+00  THRREF  =  1.00D-05  SPARFAC =  1.00D+00  THRDLP  =  1.00D-07
 THRDIA  =  1.00D-10  THRDLS  =  1.00D-07  THRGPS  =  0.00D+00  THRKEX  =  0.00D+00  THRDIS  =  2.00D-01  THRVAR  =  1.00D-10
 THRLOC  =  1.00D-06  THRGAP  =  1.00D-06  THRLOCT = -1.00D+00  THRGAPT = -1.00D+00  THRORB  =  1.00D-06  THRMLTP =  0.00D+00
 THRCPQCI=  1.00D-10  KEXTA   =  0.00D+00  THRCOARS=  0.00D+00  SYMTOL  =  1.00D-06  GRADTOL =  1.00D-06  THROVL  =  1.00D-08
 THRORTH =  1.00D-08  GRID    =  1.00D-06  GRIDMAX =  1.00D-03  DTMAX   =  0.00D+00

 SETTING GEOMTYP        =    XYZ
 ZUNIT=BOHR
 

 Variable memory set to 1000000000 words,  buffer space   230000 words

 SETTING BASIS          =    CC-PVDZ


 Recomputing integrals since basis changed


 Using spherical harmonics

 Library entry C      S cc-pVDZ              selected for orbital group  1
 Library entry C      P cc-pVDZ              selected for orbital group  1
 Library entry C      D cc-pVDZ              selected for orbital group  1
 Library entry N      S cc-pVDZ              selected for orbital group  2
 Library entry N      P cc-pVDZ              selected for orbital group  2
 Library entry N      D cc-pVDZ              selected for orbital group  2
 Library entry H      S cc-pVDZ              selected for orbital group  3
 Library entry H      P cc-pVDZ              selected for orbital group  3

1PROGRAM * SEWARD (Integral evaluation for generally contracted gaussian basis sets)     Author: Roland Lindh, 1990

 Geometry written to block  1 of record 700


 Point group  Cs  



 ATOMIC COORDINATES

 NR  ATOM    CHARGE       X              Y              Z

   1  C       6.00    0.001840065    0.000000000   -2.676751927
   2  C       6.00    0.005156739    2.263702458   -1.326779438
   3  C       6.00    0.005156739   -2.263702458   -1.326779438
   4  C       6.00   -0.000011604    2.157694844    1.310515372
   5  C       6.00   -0.000011604   -2.157694844    1.310515372
   6  N       7.00   -0.008127476    0.000000000    2.643164614
   7  H       1.00   -0.003187770    0.000000000   -4.723210770
   8  H       1.00   -0.002879990    4.071966342   -2.282209260
   9  H       1.00   -0.002879990   -4.071966342   -2.282209260
  10  H       1.00    0.002472445    3.887158074    2.410565467
  11  H       1.00    0.002472445   -3.887158074    2.410565467

 Bond lengths in Bohr (Angstrom)

 1-2  2.635675538  1-3  2.635675538  1-7  2.046465020  2-4  2.639429530  2-8  2.045172121
     ( 1.394739425)     ( 1.394739425)     ( 1.082942648)     ( 1.396725952)     ( 1.082258475)

  3- 5  2.639429530   3- 9  2.045172121   4- 6  2.536073128   4-10  2.049673009   5- 6  2.536073128
       ( 1.396725952)       ( 1.082258475)       ( 1.342032100)       ( 1.084640242)       ( 1.342032100)

  5-11  2.049673009
       ( 1.084640242)

 Bond angles

  1-2-4  118.50794636   1-2-8  121.33881592   1-3-5  118.50794636   1-3-9  121.33881592

  2- 1- 3  118.37986847   2- 1- 7  120.81006577   2- 4- 6  124.00253121   2- 4-10  120.15694597

  3- 1- 7  120.81006577   3- 5- 6  124.00253121   3- 5-11  120.15694597   4- 2- 8  120.15153339

  4- 6- 5  116.59790646   5- 3- 9  120.15153339   6- 4-10  115.84052282   6- 5-11  115.84052282

 NUCLEAR CHARGE:                   42
 NUMBER OF PRIMITIVE AOS:         197
 NUMBER OF SYMMETRY AOS:          191
 NUMBER OF CONTRACTIONS:          109   (  62A'  +  47A"  )
 NUMBER OF CORE ORBITALS:           6   (   4A'  +   2A"  )
 NUMBER OF VALENCE ORBITALS:       29   (  17A'  +  12A"  )


 NUCLEAR REPULSION ENERGY  205.78031672


 Eigenvalues of metric

         1 0.713E-03 0.379E-02 0.585E-02 0.153E-01 0.188E-01 0.245E-01 0.257E-01 0.287E-01
         2 0.239E-02 0.279E-02 0.730E-02 0.152E-01 0.233E-01 0.306E-01 0.336E-01 0.519E-01


 Contracted 2-electron integrals neglected if value below      1.0D-16
 AO integral compression algorithm  1   Integral accuracy      1.0D-16

     81.789 MB (compressed) written to integral file ( 94.5%)

     Node minimum: 81.789 MB, node maximum: 81.789 MB


 NUMBER OF SORTED TWO-ELECTRON INTEGRALS:    9153789.     BUFFER LENGTH:  32768
 NUMBER OF SEGMENTS:   1  SEGMENT LENGTH:    9153789      RECORD LENGTH: 524288

 Memory used in sort:       9.71 MW

 SORT1 READ    10844786. AND WROTE     9081292. INTEGRALS IN     26 RECORDS. CPU TIME:     0.11 SEC, REAL TIME:     0.16 SEC
 SORT2 READ     9081292. AND WROTE     9153789. INTEGRALS IN    312 RECORDS. CPU TIME:     0.10 SEC, REAL TIME:     0.14 SEC

 FILE SIZES:   FILE 1:    73.2 MBYTE,  FILE 4:   109.1 MBYTE,   TOTAL:    182.3 MBYTE

 OPERATOR DM      FOR CENTER  0  COORDINATES:    0.000000    0.000000    0.000000


 **********************************************************************************************************************************
 DATASETS  * FILE   NREC   LENGTH (MB)   RECORD NAMES
              1      19       73.31       500      610      700      900      950      970     1000      129      960     1100   
                                          VAR    BASINP    GEOM    SYMINP    ZMAT    AOBASIS   BASIS     P2S    ABASIS      S 
                                         1400     1410     1200     1210     1080     1600     1650     1300     1700   
                                           T        V       H0       H01     AOSYM     SMH    MOLCAS    ERIS     OPER   

 PROGRAMS   *        TOTAL       INT
 CPU TIMES  *         1.30      1.26
 REAL TIME  *         1.62 SEC
 DISK USED  *       264.93 MB      
 GA USED    *         0.00 MB       (max)       0.00 MB       (current)
 **********************************************************************************************************************************

1PROGRAM * RHF-SCF (CLOSED SHELL)       Authors: W. Meyer, H.-J. Werner


 NUMBER OF ELECTRONS:      21+   21-
 CONVERGENCE THRESHOLDS:    1.00E-10 (Density)    1.00E-13 (Energy)
 MAX. NUMBER OF ITERATIONS:      200
 INTERPOLATION TYPE:            DIIS
 INTERPOLATION STEPS:              2 (START)      1 (STEP)
 LEVEL SHIFTS:                  0.00 (CLOSED)  0.00 (OPEN) 



 Orbital guess generated from atomic densities. Full valence occupancy:   21  14

 Molecular orbital dump at record        2100.2

 Initial alpha occupancy:  13   8
 Initial beta  occupancy:  13   8
 Wave function symmetry:    1

 ITERATION    DDIFF          GRAD             ENERGY        2-EL.EN.            DIPOLE MOMENTS         DIIS
    1      0.000D+00      0.000D+00      -246.66538285    576.445654    0.00117    0.00000   -1.02426    0
    2      0.000D+00      0.640D-02      -246.70997148    575.032651    0.00049    0.00000   -0.90079    1
    3      0.131D-01      0.200D-02      -246.71386491    575.841732    0.00035    0.00000   -0.85342    2
    4      0.417D-02      0.837D-03      -246.71450313    575.605780    0.00032    0.00000   -0.88216    3
    5      0.159D-02      0.118D-03      -246.71451971    575.593572    0.00032    0.00000   -0.87458    4
    6      0.258D-03      0.392D-04      -246.71452195    575.602645    0.00030    0.00000   -0.87521    5
    7      0.838D-04      0.141D-04      -246.71452241    575.600959    0.00030    0.00000   -0.87497    6
    8      0.378D-04      0.557D-05      -246.71452253    575.600467    0.00029    0.00000   -0.87447    7
    9      0.219D-04      0.243D-05      -246.71452255    575.600829    0.00029    0.00000   -0.87469    7
   10      0.793D-05      0.138D-05      -246.71452256    575.600717    0.00029    0.00000   -0.87456    8
   11      0.410D-05      0.405D-06      -246.71452256    575.600634    0.00029    0.00000   -0.87457    8
   12      0.157D-05      0.142D-06      -246.71452256    575.600693    0.00029    0.00000   -0.87457    8
   13      0.431D-06      0.408D-07      -246.71452256    575.600677    0.00029    0.00000   -0.87457    9
   14      0.127D-06      0.730D-08      -246.71452256    575.600678    0.00029    0.00000   -0.87457    9
   15      0.229D-07      0.251D-08      -246.71452256    575.600678    0.00029    0.00000   -0.87457    8
   16      0.925D-08      0.735D-09      -246.71452256    575.600678    0.00029    0.00000   -0.87457    8
   17      0.188D-08      0.208D-09      -246.71452256    575.600678    0.00029    0.00000   -0.87457    7
   18      0.477D-09      0.539D-10      -246.71452256    575.600678    0.00029    0.00000   -0.87457    7
   19      0.197D-09      0.229D-10      -246.71452256    575.600678    0.00029    0.00000   -0.87457    7
   20      0.541D-10      0.776D-11      -246.71452256    575.600678    0.00029    0.00000   -0.87457    7
   21      0.215D-10      0.391D-11      -246.71452256    575.600678    0.00029    0.00000   -0.87457    8
   22      0.113D-10      0.120D-11      -246.71452256    575.600678    0.00029    0.00000   -0.87457    8
   23      0.344D-11      0.540D-12      -246.71452256    575.600678    0.00029    0.00000   -0.87457    8
   24      0.173D-11      0.187D-12      -246.71452256    575.600678    0.00029    0.00000   -0.87457    8
   25      0.128D-11      0.703D-13      -246.71452256    575.600678    0.00029    0.00000   -0.87457    9
   26      0.536D-12      0.338D-13      -246.71452256    575.600678    0.00029    0.00000   -0.87457    9
   27      0.238D-12      0.345D-13      -246.71452256    575.600678    0.00029    0.00000   -0.87457    9
   28      0.197D-12      0.279D-13      -246.71452256    575.600678    0.00029    0.00000   -0.87457    9
   29      0.139D-12      0.278D-13      -246.71452256    575.600678    0.00029    0.00000   -0.87457    9
   30      0.924D-13      0.197D-13      -246.71452256    575.600678    0.00029    0.00000   -0.87457    0

 Final occupancy:  13   8

 !RHF STATE 1.1 Energy               -246.714522556974
 Nuclear energy                       205.78031672
 One-electron energy                 -740.29517838
 Two-electron energy                  287.80033910
 Virial quotient                       -1.00137374
 !RHF STATE 1.1 Dipole moment           0.00029058     0.00000000    -0.87457012
 Dipole moment /Debye                   0.00073852     0.00000000    -2.22278991

 Orbital energies:

         1.1          2.1          3.1          4.1          5.1          6.1          7.1          8.1          9.1         10.1
    -15.567562   -11.278301   -11.264124   -11.246211    -1.253880    -1.087391    -0.856369    -0.717428    -0.652034    -0.573379

        11.1         12.1         13.1         14.1         15.1
     -0.536177    -0.415625    -0.379682     0.115620     0.182884

         1.2          2.2          3.2          4.2          5.2          6.2          7.2          8.2          9.2         10.2
    -11.278316   -11.246258    -1.031039    -0.853033    -0.655468    -0.594557    -0.516050    -0.344367     0.130312     0.214458


 **********************************************************************************************************************************
 DATASETS  * FILE   NREC   LENGTH (MB)   RECORD NAMES
              1      19       73.31       500      610      700      900      950      970     1000      129      960     1100   
                                          VAR    BASINP    GEOM    SYMINP    ZMAT    AOBASIS   BASIS     P2S    ABASIS      S 
                                         1400     1410     1200     1210     1080     1600     1650     1300     1700   
                                           T        V       H0       H01     AOSYM     SMH    MOLCAS    ERIS     OPER   

              2       3        0.57       700     1000     2100   
                                         GEOM     BASIS     RHF  

 PROGRAMS   *        TOTAL       RHF       INT
 CPU TIMES  *         2.49      1.19      1.26
 REAL TIME  *         3.03 SEC
 DISK USED  *       264.93 MB      
 GA USED    *         0.00 MB       (max)       0.00 MB       (current)
 **********************************************************************************************************************************


1PROGRAM * MP4 (Closed-shell)     Authors: C. Hampel, H.-J. Werner, 1991, M. Deegan, P.J. Knowles, 1992


 Convergence thresholds:  THRVAR = 1.00D-08  THRDEN = 1.00D-12

 MP4(T)     terms to be evaluated (factor= 0.000)


 Number of core orbitals:           6 (   4   2 )
 Number of closed-shell orbitals:  15 (   9   6 )
 Number of external orbitals:      88 (  49  39 )

 Molecular orbitals read from record     2100.2  Type=RHF/CANONICAL (state 1.1)

 Number of N-1 electron functions:              15
 Number of N-2 electron functions:             120
 Number of singly external CSFs:               675
 Number of doubly external CSFs:            436485
 Total number of CSFs:                      437161

 Length of J-op  integral file:               0.00 MB
 Length of K-op  integral file:               0.45 MB

 Memory could be reduced to 7.22 Mwords without degradation in triples

 Integral transformation finished. Total CPU:   0.28 sec, npass=  1  Memory used:   4.54 MW

 Reference energy:                   -246.71452256

                        CORR.ENERGY   TOTAL ENERGY   ENERGY CHANGE
 MP2:                   -0.80901824  -247.52354079    -0.80901824

 SCS-MP2 correlation energy:           -0.78377892   (PS=  1.200000  PT=  0.333333)
 SCS-MP2 total energy:               -247.49830148

 MP3(D):                -0.83543408  -247.54995664    -0.02641584
 MP4(DQ):               -0.83411334  -247.54863590     0.00132074
 MP4(SDQ):              -0.84099083  -247.55551338    -0.00687749

 Norm of t1 vector:      0.07227714      S-energy:    -0.00687749      T1 diagnostic:  0.00933094


 Total CPU time for triples:      6.23 sec


 RESULTS
 =======

  Reference energy                   -246.714522556975
  MP4(SDQ) singlet pair energy         -0.538039850816
  MP4(SDQ) triplet pair energy         -0.296073490607
  MP4(SDQ) correlation energy          -0.840990827432

  Triples (T) contribution             -0.040822390408
  Total correlation energy             -0.881813217840

  MP4(SDTQ) total energy             -247.555513384406
 !MP4(SDTQ(T) total energy           -247.596335774815

 Timing summary (sec):

 STEP                 CPU(USER)    SYS     CPU(TOT)    WALL
 Transformation          0.28      0.06      0.34      0.34
 CCSD iterations         0.63      0.01      0.64      0.66
 Triples                 6.23      0.23      6.46      6.45

 Program statistics:

 Available memory in ccsd:               999999000
 Min. memory needed in ccsd:               1182101
 Max. memory used in ccsd:                 1557731
 Max. memory used in cckext:               1695802 ( 1 integral passes)



 **********************************************************************************************************************************
 DATASETS  * FILE   NREC   LENGTH (MB)   RECORD NAMES
              1      20      102.79       500      610      700      900      950      970     1000      129      960     1100   
                                          VAR    BASINP    GEOM    SYMINP    ZMAT    AOBASIS   BASIS     P2S    ABASIS      S 
                                         1400     1410     1200     1210     1080     1600     1650     1300     1700     1380   
                                           T        V       H0       H01     AOSYM     SMH    MOLCAS    ERIS     OPER     JKOP   

              2       3        0.57       700     1000     2100   
                                         GEOM     BASIS     RHF  

 PROGRAMS   *        TOTAL       MP4       RHF       INT
 CPU TIMES  *         9.64      7.15      1.19      1.26
 REAL TIME  *        10.51 SEC
 DISK USED  *       264.93 MB      
 GA USED    *         0.00 MB       (max)       0.00 MB       (current)
 **********************************************************************************************************************************

        MP4             RHF-SCF 
   -247.59633577   -246.71452256
 **********************************************************************************************************************************
 Variable memory released
