
 Primary working directories    : /tmp/985636.65.gen4.q
 Secondary working directories  : /tmp/985636.65.gen4.q
 Wavefunction directory         : /home/vulcan/jj04645/wfu/
 Main file repository           : /tmp/985636.65.gen4.q/

 ARCHNAME  : Linux/x86_64
 FC        : /opt/intel/compilers_and_libraries_2016.1.150/linux/bin/intel64/ifort
 FCVERSION : 16.0.1
 BLASLIB   : -mkl
 id        : ccgc

 Nodes     nprocs
 n067         1
 ga_uses_ma=false, calling ma_init with nominal heap.
 GA-space will be limited to   8.0 MW (determined by -G option)

 Using customized tuning parameters: mindgm=10; mindgv=16; mindgc=4; mindgr=1; noblas=0; mincuda=1000; minvec=7
 default implementation of scratch files=df  

 ***,Optimization of tetrahydrothiopyran
 memory,1000,m
 gthresh,energy=1.0d-12,orbital=1.0d-10,oneint=1.0d-16,twoint=1.0d-16,optgrad=1.0d-6,compress=1.0d-13
 geomtyp=xyz
 
 bohr
 geometry = {
  S    0.3520169313    2.6952642680   -0.0000000000
  C   -0.3307187733   -3.3616078543   -0.0000000000
  C   -0.6625445472    0.6669557289   -2.5780006622
  C   -0.6625445472    0.6669557289    2.5780006622
  C    0.4701833989   -1.9800727624   -2.4106125999
  C    0.4701833989   -1.9800727624    2.4106125999
  H   -2.7288087267    0.5691270971   -2.5817582653
  H   -2.7288087267    0.5691270971    2.5817582653
  H   -0.0732350545    1.6218454180   -4.3084733980
  H   -0.0732350545    1.6218454180    4.3084733980
  H    2.5322975383   -1.8387696014   -2.4831551850
  H    2.5322975383   -1.8387696014    2.4831551850
  H   -0.1235865847   -3.0737123168   -4.0640254289
  H   -0.1235865847   -3.0737123168    4.0640254289
  H    0.4645493847   -5.2684612507   -0.0000000000
  H   -2.3931946074   -3.5757637068    0.0000000000
 }
 
 basis=VDZ
 {rhf;maxit,200}
 {ccsd(t);maxit,200}

 Variables initialized (661), CPU time= 0.00 sec
 Commands  initialized (458), CPU time= 0.01 sec, 486 directives.
 Default parameters read. Elapsed time= 0.04 sec

 Checking input...
 Passed
1


                                         ***  PROGRAM SYSTEM MOLPRO  ***
                         Copyright, University College Cardiff Consultants Limited, 2008

                                    Version 2010.1 linked May 16 2016 07:17:05


 **********************************************************************************************************************************
 LABEL *   Optimization of tetrahydrothiopyran                                           
 Linux-4.4.3/n067(x86_64) 64 bit mpp version                                             DATE: 26-Jan-24          TIME: 10:23:00  
 **********************************************************************************************************************************

 SHA1:             9e8077add272b0f3cad6f7df79ec5211205f459d
 **********************************************************************************************************************************

 THRESHOLDS:

 ZERO    =  1.00D-12  ONEINT  =  1.00D-16  TWOINT  =  1.00D-16  PREFAC  =  1.00D-14  LOCALI  =  1.00D-09  EORDER  =  1.00D-04
 ENERGY  =  1.00D-12  ETEST   =  0.00D+00  EDENS   =  0.00D+00  THRDEDEF=  1.00D-06  GRADIENT=  1.00D-02  STEP    =  1.00D-03
 ORBITAL =  1.00D-10  CIVEC   =  1.00D-05  COEFF   =  1.00D-04  PRINTCI =  5.00D-02  PUNCHCI =  9.90D+01  OPTGRAD =  1.00D-06
 OPTENERG=  1.00D-06  OPTSTEP =  3.00D-04  THRGRAD =  1.00D-10  COMPRESS=  1.00D-13  VARMIN  =  1.00D-07  VARMAX  =  1.00D-03
 THRDOUB =  0.00D+00  THRDIV  =  1.00D-05  THRRED  =  1.00D-07  THRPSP  =  1.00D+00  THRDC   =  1.00D-10  THRCS   =  1.00D-10
 THRNRM  =  1.00D-08  THREQ   =  0.00D+00  THRDE   =  1.00D+00  THRREF  =  1.00D-05  SPARFAC =  1.00D+00  THRDLP  =  1.00D-07
 THRDIA  =  1.00D-10  THRDLS  =  1.00D-07  THRGPS  =  0.00D+00  THRKEX  =  0.00D+00  THRDIS  =  2.00D-01  THRVAR  =  1.00D-10
 THRLOC  =  1.00D-06  THRGAP  =  1.00D-06  THRLOCT = -1.00D+00  THRGAPT = -1.00D+00  THRORB  =  1.00D-06  THRMLTP =  0.00D+00
 THRCPQCI=  1.00D-10  KEXTA   =  0.00D+00  THRCOARS=  0.00D+00  SYMTOL  =  1.00D-06  GRADTOL =  1.00D-06  THROVL  =  1.00D-08
 THRORTH =  1.00D-08  GRID    =  1.00D-06  GRIDMAX =  1.00D-03  DTMAX   =  0.00D+00

 SETTING GEOMTYP        =    XYZ
 ZUNIT=BOHR
 

 Variable memory set to 1000000000 words,  buffer space   230000 words

 SETTING BASIS          =    VDZ


 Recomputing integrals since basis changed


 Using spherical harmonics

 Library entry S      S cc-pVDZ              selected for orbital group  1
 Library entry S      P cc-pVDZ              selected for orbital group  1
 Library entry S      D cc-pVDZ              selected for orbital group  1
 Library entry C      S cc-pVDZ              selected for orbital group  2
 Library entry C      P cc-pVDZ              selected for orbital group  2
 Library entry C      D cc-pVDZ              selected for orbital group  2
 Library entry H      S cc-pVDZ              selected for orbital group  3
 Library entry H      P cc-pVDZ              selected for orbital group  3

1PROGRAM * SEWARD (Integral evaluation for generally contracted gaussian basis sets)     Author: Roland Lindh, 1990

 Geometry written to block  1 of record 700


 Point group  Cs  



 ATOMIC COORDINATES

 NR  ATOM    CHARGE       X              Y              Z

   1  S      16.00    0.352016931    2.695264268    0.000000000
   2  C       6.00   -0.330718773   -3.361607854    0.000000000
   3  C       6.00   -0.662544547    0.666955729   -2.578000662
   4  C       6.00   -0.662544547    0.666955729    2.578000662
   5  C       6.00    0.470183399   -1.980072762   -2.410612600
   6  C       6.00    0.470183399   -1.980072762    2.410612600
   7  H       1.00   -2.728808727    0.569127097   -2.581758265
   8  H       1.00   -2.728808727    0.569127097    2.581758265
   9  H       1.00   -0.073235054    1.621845418   -4.308473398
  10  H       1.00   -0.073235054    1.621845418    4.308473398
  11  H       1.00    2.532297538   -1.838769601   -2.483155185
  12  H       1.00    2.532297538   -1.838769601    2.483155185
  13  H       1.00   -0.123586585   -3.073712317   -4.064025429
  14  H       1.00   -0.123586585   -3.073712317    4.064025429
  15  H       1.00    0.464549385   -5.268461251    0.000000000
  16  H       1.00   -2.393194607   -3.575763707    0.000000000

 Bond lengths in Bohr (Angstrom)

  1- 3  3.433578008   1- 4  3.433578008   2- 5  2.891563004   2- 6  2.891563004   2-15  2.066044849
       ( 1.816971227)       ( 1.816971227)       ( 1.530149240)       ( 1.530149240)       ( 1.093303847)

  2-16  2.073564394   3- 5  2.884068515   3- 7  2.068582176   3- 9  2.062434456   4- 6  2.884068515
       ( 1.097283019)       ( 1.526183327)       ( 1.094646543)       ( 1.091393309)       ( 1.526183327)

  4- 8  2.068582176   4-10  2.062434456   5-11  2.068222361   5-13  2.069392242   6-12  2.068222361
       ( 1.094646543)       ( 1.091393309)       ( 1.094456137)       ( 1.095075211)       ( 1.094456137)

  6-14  2.069392242
       ( 1.095075211)

 Bond angles

  1-3-5  112.49156112   1-3-7  108.93238302   1-3-9  105.78568586   1-4-6  112.49156112

  1- 4- 8  108.93238302   1- 4-10  105.78568586   2- 5- 3  112.21688954   2- 5-11  109.75777215

  2- 5-13  109.51887992   2- 6- 4  112.21688954   2- 6-12  109.75777215   2- 6-14  109.51887992

  3- 1- 4   97.32299962   3- 5-11  109.07781770   3- 5-13  109.02513428   4- 6-12  109.07781770

  4- 6-14  109.02513428   5- 2- 6  112.95543955   5- 2-15  109.53314828   5- 2-16  108.95604194

  5- 3- 7  110.42696694   5- 3- 9  111.18695446   6- 2-15  109.53314828   6- 2-16  108.95604194

  6- 4- 8  110.42696694   6- 4-10  111.18695446   7- 3- 9  107.80549688   8- 4-10  107.80549688

 11- 5-13  107.10744527  12- 6-14  107.10744527  15- 2-16  106.71093253

 NUCLEAR CHARGE:                   56
 NUMBER OF PRIMITIVE AOS:         247
 NUMBER OF SYMMETRY AOS:          241
 NUMBER OF CONTRACTIONS:          138   (  79A'  +  59A"  )
 NUMBER OF CORE ORBITALS:          10   (   7A'  +   3A"  )
 NUMBER OF VALENCE ORBITALS:       34   (  20A'  +  14A"  )


 NUCLEAR REPULSION ENERGY  312.44891188


 Eigenvalues of metric

         1 0.304E-02 0.424E-02 0.630E-02 0.156E-01 0.197E-01 0.237E-01 0.283E-01 0.342E-01
         2 0.284E-02 0.700E-02 0.151E-01 0.195E-01 0.219E-01 0.342E-01 0.351E-01 0.357E-01


 Contracted 2-electron integrals neglected if value below      1.0D-16
 AO integral compression algorithm  1   Integral accuracy      1.0D-16

     207.094 MB (compressed) written to integral file ( 97.7%)

     Node minimum: 207.094 MB, node maximum: 207.094 MB


 NUMBER OF SORTED TWO-ELECTRON INTEGRALS:   23341315.     BUFFER LENGTH:  32768
 NUMBER OF SEGMENTS:   2  SEGMENT LENGTH:   15994315      RECORD LENGTH: 524288

 Memory used in sort:      16.55 MW

 SORT1 READ    26508670. AND WROTE    23262058. INTEGRALS IN     68 RECORDS. CPU TIME:     0.33 SEC, REAL TIME:     0.47 SEC
 SORT2 READ    23262058. AND WROTE    23341315. INTEGRALS IN    790 RECORDS. CPU TIME:     0.24 SEC, REAL TIME:     0.35 SEC

 FILE SIZES:   FILE 1:   188.0 MBYTE,  FILE 4:   285.2 MBYTE,   TOTAL:    473.2 MBYTE

 OPERATOR DM      FOR CENTER  0  COORDINATES:    0.000000    0.000000    0.000000


 **********************************************************************************************************************************
 DATASETS  * FILE   NREC   LENGTH (MB)   RECORD NAMES
              1      19      188.07       500      610      700      900      950      970     1000      129      960     1100   
                                          VAR    BASINP    GEOM    SYMINP    ZMAT    AOBASIS   BASIS     P2S    ABASIS      S 
                                         1400     1410     1200     1210     1080     1600     1650     1300     1700   
                                           T        V       H0       H01     AOSYM     SMH    MOLCAS    ERIS     OPER   

 PROGRAMS   *        TOTAL       INT
 CPU TIMES  *         3.63      3.59
 REAL TIME  *         4.17 SEC
 DISK USED  *       681.29 MB      
 GA USED    *         0.00 MB       (max)       0.00 MB       (current)
 **********************************************************************************************************************************

1PROGRAM * RHF-SCF (CLOSED SHELL)       Authors: W. Meyer, H.-J. Werner


 NUMBER OF ELECTRONS:      28+   28-
 CONVERGENCE THRESHOLDS:    1.00E-10 (Density)    1.00E-13 (Energy)
 MAX. NUMBER OF ITERATIONS:      200
 INTERPOLATION TYPE:            DIIS
 INTERPOLATION STEPS:              2 (START)      1 (STEP)
 LEVEL SHIFTS:                  0.00 (CLOSED)  0.00 (OPEN) 



 Orbital guess generated from atomic densities. Full valence occupancy:   27  17

 Molecular orbital dump at record        2100.2

 Initial alpha occupancy:  18  10
 Initial beta  occupancy:  18  10
 Wave function symmetry:    1

 ITERATION    DDIFF          GRAD             ENERGY        2-EL.EN.            DIPOLE MOMENTS         DIIS
    1      0.000D+00      0.000D+00      -592.64367930   1057.490542   -0.40561   -0.80437    0.00000    0
    2      0.000D+00      0.553D-02      -592.70485721   1054.850732   -0.20687   -0.73887    0.00000    1
    3      0.109D-01      0.186D-02      -592.71082645   1056.315042   -0.27852   -0.67551    0.00000    2
    4      0.377D-02      0.758D-03      -592.71184958   1055.685551   -0.25198   -0.70868    0.00000    3
    5      0.131D-02      0.109D-03      -592.71187572   1055.750261   -0.24789   -0.70019    0.00000    4
    6      0.254D-03      0.378D-04      -592.71187831   1055.719174   -0.24967   -0.70042    0.00000    5
    7      0.714D-04      0.866D-05      -592.71187852   1055.722211   -0.24900   -0.70031    0.00000    6
    8      0.232D-04      0.243D-05      -592.71187854   1055.721365   -0.24899   -0.70018    0.00000    7
    9      0.757D-05      0.635D-06      -592.71187855   1055.721243   -0.24897   -0.70013    0.00000    7
   10      0.178D-05      0.226D-06      -592.71187855   1055.721283   -0.24896   -0.70013    0.00000    7
   11      0.672D-06      0.479D-07      -592.71187855   1055.721268   -0.24896   -0.70013    0.00000    7
   12      0.159D-06      0.964D-08      -592.71187855   1055.721274   -0.24896   -0.70013    0.00000    7
   13      0.255D-07      0.404D-08      -592.71187855   1055.721271   -0.24896   -0.70013    0.00000    7
   14      0.889D-08      0.118D-08      -592.71187855   1055.721272   -0.24896   -0.70013    0.00000    7
   15      0.315D-08      0.386D-09      -592.71187855   1055.721272   -0.24896   -0.70013    0.00000    7
   16      0.929D-09      0.118D-09      -592.71187855   1055.721272   -0.24896   -0.70013    0.00000    8
   17      0.287D-09      0.255D-10      -592.71187855   1055.721272   -0.24896   -0.70013    0.00000    7
   18      0.674D-10      0.746D-11      -592.71187855   1055.721272   -0.24896   -0.70013    0.00000    7
   19      0.234D-10      0.247D-11      -592.71187855   1055.721272   -0.24896   -0.70013    0.00000    8
   20      0.695D-11      0.718D-12      -592.71187855   1055.721272   -0.24896   -0.70013    0.00000    7
   21      0.215D-11      0.240D-12      -592.71187855   1055.721272   -0.24896   -0.70013    0.00000    7
   22      0.835D-12      0.897D-13      -592.71187855   1055.721272   -0.24896   -0.70013    0.00000    8
   23      0.331D-12      0.429D-13      -592.71187855   1055.721272   -0.24896   -0.70013    0.00000    8
   24      0.181D-12      0.292D-13      -592.71187855   1055.721272   -0.24896   -0.70013    0.00000    8
   25      0.997D-13      0.276D-13      -592.71187855   1055.721272   -0.24896   -0.70013    0.00000    0

 Final occupancy:  18  10

 !RHF STATE 1.1 Energy               -592.711878546153
 Nuclear energy                       312.44891188
 One-electron energy                -1433.02142622
 Two-electron energy                  527.86063579
 Virial quotient                       -1.00015717
 !RHF STATE 1.1 Dipole moment          -0.24896227    -0.70012887     0.00000000
 Dipole moment /Debye                  -0.63275753    -1.77943353     0.00000000

 Orbital energies:

         1.1          2.1          3.1          4.1          5.1          6.1          7.1          8.1          9.1         10.1
    -91.929561   -11.254648   -11.230640   -11.228792    -8.933550    -6.614014    -6.611809    -1.120635    -1.007147    -0.836023

        11.1         12.1         13.1         14.1         15.1         16.1         17.1         18.1         19.1         20.1
     -0.755716    -0.647442    -0.609500    -0.578785    -0.495807    -0.472825    -0.411796    -0.328634     0.176923     0.200959

         1.2          2.2          3.2          4.2          5.2          6.2          7.2          8.2          9.2         10.2
    -11.254661   -11.230552    -6.615450    -1.020599    -0.842607    -0.614617    -0.547304    -0.524280    -0.497908    -0.434775

        11.2         12.2
      0.190531     0.223087


 **********************************************************************************************************************************
 DATASETS  * FILE   NREC   LENGTH (MB)   RECORD NAMES
              1      19      188.07       500      610      700      900      950      970     1000      129      960     1100   
                                          VAR    BASINP    GEOM    SYMINP    ZMAT    AOBASIS   BASIS     P2S    ABASIS      S 
                                         1400     1410     1200     1210     1080     1600     1650     1300     1700   
                                           T        V       H0       H01     AOSYM     SMH    MOLCAS    ERIS     OPER   

              2       3        0.73       700     1000     2100   
                                         GEOM     BASIS     RHF  

 PROGRAMS   *        TOTAL       RHF       INT
 CPU TIMES  *         6.46      2.83      3.59
 REAL TIME  *         7.55 SEC
 DISK USED  *       681.29 MB      
 GA USED    *         0.00 MB       (max)       0.00 MB       (current)
 **********************************************************************************************************************************


1PROGRAM * CCSD (Closed-shell coupled cluster)     Authors: C. Hampel, H.-J. Werner, 1991, M. Deegan, P.J. Knowles, 1992


 Convergence thresholds:  THRVAR = 1.00D-08  THRDEN = 1.00D-12

 CCSD(T)     terms to be evaluated (factor= 1.000)


 Number of core orbitals:          10 (   7   3 )
 Number of closed-shell orbitals:  18 (  11   7 )
 Number of external orbitals:     110 (  61  49 )

 Molecular orbitals read from record     2100.2  Type=RHF/CANONICAL (state 1.1)

 Number of N-1 electron functions:              18
 Number of N-2 electron functions:             171
 Number of singly external CSFs:              1014
 Number of doubly external CSFs:            981666
 Total number of CSFs:                      982681

 Length of J-op  integral file:               0.00 MB
 Length of K-op  integral file:               0.70 MB
 Length of 3-ext integral record:             0.00 MB

 Memory could be reduced to 16.31 Mwords without degradation in triples

 Integral transformation finished. Total CPU:   0.94 sec, npass=  1  Memory used:  10.63 MW

 Reference energy:                   -592.71187855

 MP2 singlet pair energy:              -0.53931870
 MP2 triplet pair energy:              -0.30444716
 MP2 correlation energy:               -0.84376586
 MP2 total energy:                   -593.55564440

 SCS-MP2 correlation energy:           -0.83661623   (PS=  1.200000  PT=  0.333333)
 SCS-MP2 total energy:               -593.54849477

 ITER.      SQ.NORM     CORR.ENERGY   TOTAL ENERGY   ENERGY CHANGE        DEN1      VAR(S)    VAR(P)  DIIS     TIME
   1      1.33941119    -0.91069157  -593.62257011    -0.06692571    -0.04298774  0.26D-02  0.55D-02  1  1     2.78
   2      1.36636071    -0.91602799  -593.62790654    -0.00533642    -0.02575400  0.69D-04  0.46D-03  2  2     4.70
   3      1.37167763    -0.91615487  -593.62803341    -0.00012687    -0.00303065  0.16D-04  0.28D-04  3  3     6.62
   4      1.37316424    -0.91621273  -593.62809128    -0.00005787    -0.00059169  0.76D-06  0.20D-05  4  4     8.54
   5      1.37340332    -0.91621927  -593.62809781    -0.00000653    -0.00007044  0.17D-06  0.16D-06  5  5    10.47
   6      1.37344865    -0.91621484  -593.62809338     0.00000443    -0.00001384  0.30D-07  0.14D-07  6  6    12.42
   7      1.37345618    -0.91621473  -593.62809327     0.00000011     0.00000064  0.53D-08  0.23D-08  6  2    14.35
   8      1.37346223    -0.91621442  -593.62809296     0.00000031    -0.00000124  0.73D-09  0.26D-09  6  1    16.28
   9      1.37346305    -0.91621435  -593.62809290     0.00000006     0.00000050  0.66D-10  0.44D-10  6  4    18.21
  10      1.37346393    -0.91621432  -593.62809287     0.00000003    -0.00000011  0.48D-11  0.35D-11  6  3    20.14
  11      1.37346394    -0.91621432  -593.62809287    -0.00000000     0.00000004  0.12D-11  0.53D-12  6  5    22.08
  12      1.37346391    -0.91621433  -593.62809287    -0.00000000     0.00000002  0.17D-12  0.77D-13  6  6    24.01
  13      1.37346386    -0.91621433  -593.62809287    -0.00000000     0.00000002  0.23D-13  0.10D-13  6  1    25.93
  14      1.37346385    -0.91621433  -593.62809287    -0.00000000     0.00000000  0.30D-14  0.12D-14  6  2    27.86
  15      1.37346385    -0.91621433  -593.62809287     0.00000000    -0.00000000  0.65D-15  0.30D-15  6  4    29.79
  16      1.37346385    -0.91621433  -593.62809287     0.00000000    -0.00000000  0.31D-16  0.22D-16  6  5    31.72
  17      1.37346385    -0.91621433  -593.62809287     0.00000000    -0.00000000  0.54D-17  0.23D-17  6  3    33.64
  18      1.37346385    -0.91621433  -593.62809287     0.00000000    -0.00000000  0.17D-17  0.47D-18  6  6    35.58
  19      1.37346385    -0.91621433  -593.62809287     0.00000000    -0.00000000  0.36D-18  0.11D-18  6  1    37.50
  20      1.37346385    -0.91621433  -593.62809287     0.00000000     0.00000000  0.44D-19  0.17D-19  6  2    39.43
  21      1.37346385    -0.91621433  -593.62809287    -0.00000000     0.00000000  0.78D-20  0.33D-20  6  4    41.35

 Norm of t1 vector:      0.07009879      S-energy:    -0.00000000      T1 diagnostic:  0.00826122
                                                                       D1 diagnostic:  0.02100847


 Total CPU time for triples:     38.00 sec


 RESULTS
 =======

  Reference energy                   -592.711878546154
  CCSD singlet pair energy             -0.633983826489
  CCSD triplet pair energy             -0.282230500651
  CCSD correlation energy              -0.916214327140

  Triples (T) contribution             -0.029832391960
  Total correlation energy             -0.946046719100

  CCSD total energy                  -593.628092873295
  CCSD[T] energy                     -593.658543430108
  CCSD-T energy                      -593.657615038975
 !CCSD(T) total energy               -593.657925265254

 Timing summary (sec):

 STEP                 CPU(USER)    SYS     CPU(TOT)    WALL
 Transformation          0.97      0.10      1.07      1.08
 CCSD iterations        40.39      1.49     41.88     41.94
 Triples                38.00      1.12     39.12     39.13

 Program statistics:

 Available memory in ccsd:               999998604
 Min. memory needed in ccsd:               2548392
 Max. memory used in ccsd:                 3412984
 Max. memory used in cckext:               3730705 (21 integral passes)



 **********************************************************************************************************************************
 DATASETS  * FILE   NREC   LENGTH (MB)   RECORD NAMES
              1      20      256.24       500      610      700      900      950      970     1000      129      960     1100   
                                          VAR    BASINP    GEOM    SYMINP    ZMAT    AOBASIS   BASIS     P2S    ABASIS      S 
                                         1400     1410     1200     1210     1080     1600     1650     1300     1700     1380   
                                           T        V       H0       H01     AOSYM     SMH    MOLCAS    ERIS     OPER     JKOP   

              2       3        0.73       700     1000     2100   
                                         GEOM     BASIS     RHF  

 PROGRAMS   *        TOTAL   CCSD(T)       RHF       INT
 CPU TIMES  *        85.84     79.38      2.83      3.59
 REAL TIME  *        89.73 SEC
 DISK USED  *       681.29 MB      
 GA USED    *         0.00 MB       (max)       0.00 MB       (current)
 **********************************************************************************************************************************

        CCSD(T)         RHF-SCF 
   -593.65792527   -592.71187855
 **********************************************************************************************************************************
 Variable memory released
