
 Primary working directories    : /tmp/943448.489.gen6.q
 Secondary working directories  : /tmp/943448.489.gen6.q
 Wavefunction directory         : /home/vulcan/mel64643/wfu/
 Main file repository           : /tmp/943448.489.gen6.q/

 ARCHNAME  : Linux/x86_64
 FC        : /opt/intel/compilers_and_libraries_2016.1.150/linux/bin/intel64/ifort
 FCVERSION : 16.0.1
 BLASLIB   : -mkl
 id        : ccgc

 Nodes     nprocs
 n086         1
 ga_uses_ma=false, calling ma_init with nominal heap.
 GA-space will be limited to   8.0 MW (determined by -G option)

 Using customized tuning parameters: mindgm=10; mindgv=16; mindgc=4; mindgr=1; noblas=0; mincuda=1000; minvec=7
 default implementation of scratch files=df  

 ***,Optimization of nh3_nitrosmethane
 memory,1000,m
 gthresh,energy=1.0d-12,orbital=1.0d-10,oneint=1.0d-16,twoint=1.0d-16,optgrad=1.0d-6,compress=1.0d-13
 geomtyp=xyz
 
 bohr
 geometry = {
  N   -5.2248227197   -0.1837361607   -0.0041599681
  H   -6.2970531679    0.2427582420   -1.5367918753
  H   -3.7606823807    1.0595337708    0.0072573201
  H   -6.3013784023    0.2196731878    1.5316866819
  H   -0.9267640144   -2.3986492868    0.0075988344
  H    1.8825586097   -3.4392661289   -1.6607864384
  H    1.8923604740   -3.4343583459    1.6624493730
  C    1.1337239160   -2.4694547772    0.0016260040
  N    2.2647606300    0.0981062219   -0.0055017776
  O    0.7014155453    1.7824502860   -0.0033781541
 }
 
 basis=aug-cc-pvdz
 {rhf;maxit,200}
 {ccsd(t);maxit,200}

 Variables initialized (661), CPU time= 0.00 sec
 Commands  initialized (458), CPU time= 0.01 sec, 486 directives.
 Default parameters read. Elapsed time= 0.04 sec

 Checking input...
 Passed
1


                                         ***  PROGRAM SYSTEM MOLPRO  ***
                         Copyright, University College Cardiff Consultants Limited, 2008

                                    Version 2010.1 linked May 16 2016 07:17:05


 **********************************************************************************************************************************
 LABEL *   Optimization of nh3_nitrosmethane                                             
 Linux-4.4.3/n086(x86_64) 64 bit mpp version                                             DATE: 26-Oct-23          TIME: 14:55:03  
 **********************************************************************************************************************************

 SHA1:             9e8077add272b0f3cad6f7df79ec5211205f459d
 **********************************************************************************************************************************

 THRESHOLDS:

 ZERO    =  1.00D-12  ONEINT  =  1.00D-16  TWOINT  =  1.00D-16  PREFAC  =  1.00D-14  LOCALI  =  1.00D-09  EORDER  =  1.00D-04
 ENERGY  =  1.00D-12  ETEST   =  0.00D+00  EDENS   =  0.00D+00  THRDEDEF=  1.00D-06  GRADIENT=  1.00D-02  STEP    =  1.00D-03
 ORBITAL =  1.00D-10  CIVEC   =  1.00D-05  COEFF   =  1.00D-04  PRINTCI =  5.00D-02  PUNCHCI =  9.90D+01  OPTGRAD =  1.00D-06
 OPTENERG=  1.00D-06  OPTSTEP =  3.00D-04  THRGRAD =  1.00D-10  COMPRESS=  1.00D-13  VARMIN  =  1.00D-07  VARMAX  =  1.00D-03
 THRDOUB =  0.00D+00  THRDIV  =  1.00D-05  THRRED  =  1.00D-07  THRPSP  =  1.00D+00  THRDC   =  1.00D-10  THRCS   =  1.00D-10
 THRNRM  =  1.00D-08  THREQ   =  0.00D+00  THRDE   =  1.00D+00  THRREF  =  1.00D-05  SPARFAC =  1.00D+00  THRDLP  =  1.00D-07
 THRDIA  =  1.00D-10  THRDLS  =  1.00D-07  THRGPS  =  0.00D+00  THRKEX  =  0.00D+00  THRDIS  =  2.00D-01  THRVAR  =  1.00D-10
 THRLOC  =  1.00D-06  THRGAP  =  1.00D-06  THRLOCT = -1.00D+00  THRGAPT = -1.00D+00  THRORB  =  1.00D-06  THRMLTP =  0.00D+00
 THRCPQCI=  1.00D-10  KEXTA   =  0.00D+00  THRCOARS=  0.00D+00  SYMTOL  =  1.00D-06  GRADTOL =  1.00D-06  THROVL  =  1.00D-08
 THRORTH =  1.00D-08  GRID    =  1.00D-06  GRIDMAX =  1.00D-03  DTMAX   =  0.00D+00

 SETTING GEOMTYP        =    XYZ
 ZUNIT=BOHR
 

 Variable memory set to 1000000000 words,  buffer space   230000 words

 SETTING BASIS          =    AUG-CC-PVDZ


 Recomputing integrals since basis changed


 Using spherical harmonics

 Library entry N      S aug-cc-pVDZ          selected for orbital group  1
 Library entry N      P aug-cc-pVDZ          selected for orbital group  1
 Library entry N      D aug-cc-pVDZ          selected for orbital group  1
 Library entry H      S aug-cc-pVDZ          selected for orbital group  2
 Library entry H      P aug-cc-pVDZ          selected for orbital group  2
 Library entry C      S aug-cc-pVDZ          selected for orbital group  3
 Library entry C      P aug-cc-pVDZ          selected for orbital group  3
 Library entry C      D aug-cc-pVDZ          selected for orbital group  3
 Library entry O      S aug-cc-pVDZ          selected for orbital group  5
 Library entry O      P aug-cc-pVDZ          selected for orbital group  5
 Library entry O      D aug-cc-pVDZ          selected for orbital group  5

1PROGRAM * SEWARD (Integral evaluation for generally contracted gaussian basis sets)     Author: Roland Lindh, 1990

 Geometry written to block  1 of record 700


 Point group  C1  



 ATOMIC COORDINATES

 NR  ATOM    CHARGE       X              Y              Z

   1  N       7.00   -5.224822720   -0.183736161   -0.004159968
   2  H       1.00   -6.297053168    0.242758242   -1.536791875
   3  H       1.00   -3.760682381    1.059533771    0.007257320
   4  H       1.00   -6.301378402    0.219673188    1.531686682
   5  H       1.00   -0.926764014   -2.398649287    0.007598834
   6  H       1.00    1.882558610   -3.439266129   -1.660786438
   7  H       1.00    1.892360474   -3.434358346    1.662449373
   8  C       6.00    1.133723916   -2.469454777    0.001626004
   9  N       7.00    2.264760630    0.098106222   -0.005501778
  10  O       8.00    0.701415545    1.782450286   -0.003378154

 Bond lengths in Bohr (Angstrom)

 1-2  1.918472354  1-3  1.920822066  1-4  1.918472354  5-8  2.061712784  6-8  2.065164058
     ( 1.015211846)     ( 1.016455260)     ( 1.015211846)     ( 1.091011417)     ( 1.092837752)

  7- 8  2.065164058   8- 9  2.805648648   9-10  2.298057286
       ( 1.092837752)       ( 1.484685321)       ( 1.216079541)

 Bond angles

  2-1-3  106.67095379   2-1-4  106.21107417   3-1-4  106.67095379   5-8-6  112.38617564

  5-8-7  112.38617565   5-8-9  111.80615632   6-8-7  107.14290661   6-8-9  106.35175774

  7- 8- 9  106.35175772   8- 9-10  113.35946297

 NUCLEAR CHARGE:                   34
 NUMBER OF PRIMITIVE AOS:         214
 NUMBER OF SYMMETRY AOS:          206
 NUMBER OF CONTRACTIONS:          146   ( 146A   )
 NUMBER OF CORE ORBITALS:           4   (   4A   )
 NUMBER OF VALENCE ORBITALS:       22   (  22A   )


 NUCLEAR REPULSION ENERGY  117.38796514


 Eigenvalues of metric

         1 0.324E-03 0.519E-03 0.620E-03 0.672E-03 0.106E-02 0.118E-02 0.126E-02 0.186E-02


 Contracted 2-electron integrals neglected if value below      1.0D-16
 AO integral compression algorithm  1   Integral accuracy      1.0D-16

     493.093 MB (compressed) written to integral file ( 91.9%)

     Node minimum: 493.093 MB, node maximum: 493.093 MB


 NUMBER OF SORTED TWO-ELECTRON INTEGRALS:   57582546.     BUFFER LENGTH:  32768
 NUMBER OF SEGMENTS:   4  SEGMENT LENGTH:   15999503      RECORD LENGTH: 524288

 Memory used in sort:      16.56 MW

 SORT1 READ    67015859. AND WROTE    57255085. INTEGRALS IN    166 RECORDS. CPU TIME:     0.55 SEC, REAL TIME:     0.91 SEC
 SORT2 READ    57255085. AND WROTE    57582546. INTEGRALS IN   1881 RECORDS. CPU TIME:     0.42 SEC, REAL TIME:     0.63 SEC

 FILE SIZES:   FILE 1:   433.1 MBYTE,  FILE 4:   696.3 MBYTE,   TOTAL:   1129.4 MBYTE

 OPERATOR DM      FOR CENTER  0  COORDINATES:    0.000000    0.000000    0.000000


 **********************************************************************************************************************************
 DATASETS  * FILE   NREC   LENGTH (MB)   RECORD NAMES
              1      19      433.39       500      610      700      900      950      970     1000      129      960     1100   
                                          VAR    BASINP    GEOM    SYMINP    ZMAT    AOBASIS   BASIS     P2S    ABASIS      S 
                                         1400     1410     1200     1210     1080     1600     1650     1300     1700   
                                           T        V       H0       H01     AOSYM     SMH    MOLCAS    ERIS     OPER   

 PROGRAMS   *        TOTAL       INT
 CPU TIMES  *         2.94      2.90
 REAL TIME  *         3.91 SEC
 DISK USED  *         1.62 GB      
 GA USED    *         0.00 MB       (max)       0.00 MB       (current)
 **********************************************************************************************************************************

1PROGRAM * RHF-SCF (CLOSED SHELL)       Authors: W. Meyer, H.-J. Werner


 NUMBER OF ELECTRONS:      17+   17-    SPACE SYMMETRY=1    SPIN SYMMETRY: Singlet 
 CONVERGENCE THRESHOLDS:    1.00E-10 (Density)    1.00E-13 (Energy)
 MAX. NUMBER OF ITERATIONS:      200
 INTERPOLATION TYPE:            DIIS
 INTERPOLATION STEPS:              2 (START)      1 (STEP)
 LEVEL SHIFTS:                  0.00 (CLOSED)  0.00 (OPEN) 



 Orbital guess generated from atomic densities. Full valence occupancy:   26

 Molecular orbital dump at record        2100.2

 ITERATION    DDIFF          GRAD             ENERGY        2-EL.EN.            DIPOLE MOMENTS         DIIS
    1      0.000D+00      0.000D+00      -224.96618689    393.089355    0.07421   -0.58258    0.00701    0
    2      0.000D+00      0.594D-02      -225.02698929    392.705473   -0.57575   -0.38684    0.00567    1
    3      0.111D-01      0.415D-02      -225.06088155    393.257243   -0.23165   -0.56450    0.00551    2
    4      0.480D-02      0.830D-03      -225.06314381    393.092343   -0.30965   -0.46692    0.00578    3
    5      0.121D-02      0.329D-03      -225.06356854    393.103915   -0.30731   -0.49665    0.00576    4
    6      0.540D-03      0.800D-04      -225.06361157    393.131342   -0.31277   -0.49367    0.00578    5
    7      0.180D-03      0.305D-04      -225.06361769    393.115134   -0.31440   -0.49372    0.00579    6
    8      0.749D-04      0.124D-04      -225.06361869    393.121601   -0.31541   -0.49362    0.00579    7
    9      0.285D-04      0.532D-05      -225.06361890    393.120464   -0.31569   -0.49332    0.00579    8
   10      0.160D-04      0.163D-05      -225.06361893    393.120172   -0.31578   -0.49314    0.00579    8
   11      0.484D-05      0.547D-06      -225.06361893    393.120278   -0.31580   -0.49305    0.00579    8
   12      0.162D-05      0.167D-06      -225.06361893    393.120241   -0.31580   -0.49302    0.00579    8
   13      0.581D-06      0.525D-07      -225.06361893    393.120235   -0.31580   -0.49302    0.00579    8
   14      0.145D-06      0.268D-07      -225.06361893    393.120238   -0.31580   -0.49302    0.00579    9
   15      0.659D-07      0.385D-08      -225.06361893    393.120238   -0.31580   -0.49302    0.00579    8
   16      0.962D-08      0.244D-08      -225.06361893    393.120238   -0.31580   -0.49302    0.00579    7
   17      0.943D-08      0.164D-08      -225.06361893    393.120238   -0.31580   -0.49302    0.00579    7
   18      0.120D-07      0.765D-09      -225.06361893    393.120238   -0.31580   -0.49302    0.00579    8
   19      0.724D-08      0.216D-09      -225.06361893    393.120238   -0.31580   -0.49302    0.00579    9
   20      0.130D-08      0.541D-10      -225.06361893    393.120238   -0.31580   -0.49302    0.00579    9
   21      0.232D-09      0.198D-10      -225.06361893    393.120238   -0.31580   -0.49302    0.00579    9
   22      0.468D-10      0.598D-11      -225.06361893    393.120238   -0.31580   -0.49302    0.00579    9
   23      0.181D-10      0.175D-11      -225.06361893    393.120238   -0.31580   -0.49302    0.00579    9
   24      0.611D-11      0.721D-12      -225.06361893    393.120238   -0.31580   -0.49302    0.00579    0

 Final occupancy:  17

 !RHF STATE 1.1 Energy               -225.063618928525
 Nuclear energy                       117.38796514
 One-electron energy                 -539.01170300
 Two-electron energy                  196.56011893
 Virial quotient                       -1.00217732
 !RHF STATE 1.1 Dipole moment          -0.31579858    -0.49301941     0.00579317
 Dipole moment /Debye                  -0.80262736    -1.25304827     0.01472381

 Orbital energies:

         1.1          2.1          3.1          4.1          5.1          6.1          7.1          8.1          9.1         10.1
    -20.640472   -15.714920   -15.548600   -11.270902    -1.515074    -1.140412    -1.076200    -0.862443    -0.691675    -0.676004

        11.1         12.1         13.1         14.1         15.1         16.1         17.1         18.1         19.1
     -0.635859    -0.624275    -0.623700    -0.556426    -0.534075    -0.428505    -0.406190     0.034980     0.046199


 **********************************************************************************************************************************
 DATASETS  * FILE   NREC   LENGTH (MB)   RECORD NAMES
              1      19      433.39       500      610      700      900      950      970     1000      129      960     1100   
                                          VAR    BASINP    GEOM    SYMINP    ZMAT    AOBASIS   BASIS     P2S    ABASIS      S 
                                         1400     1410     1200     1210     1080     1600     1650     1300     1700   
                                           T        V       H0       H01     AOSYM     SMH    MOLCAS    ERIS     OPER   

              2       3        0.86       700     1000     2100   
                                         GEOM     BASIS     RHF  

 PROGRAMS   *        TOTAL       RHF       INT
 CPU TIMES  *        11.48      8.54      2.90
 REAL TIME  *        13.47 SEC
 DISK USED  *         1.62 GB      
 GA USED    *         0.00 MB       (max)       0.00 MB       (current)
 **********************************************************************************************************************************


1PROGRAM * CCSD (Closed-shell coupled cluster)     Authors: C. Hampel, H.-J. Werner, 1991, M. Deegan, P.J. Knowles, 1992


 Convergence thresholds:  THRVAR = 1.00D-08  THRDEN = 1.00D-12

 CCSD(T)     terms to be evaluated (factor= 1.000)


 Number of core orbitals:           4 (   4 )
 Number of closed-shell orbitals:  13 (  13 )
 Number of external orbitals:     129 ( 129 )

 Molecular orbitals read from record     2100.2  Type=RHF/CANONICAL (state 1.1)

 Number of N-1 electron functions:              13
 Number of N-2 electron functions:              91
 Number of singly external CSFs:              1677
 Number of doubly external CSFs:           1407003
 Total number of CSFs:                     1408681

 Length of J-op  integral file:               0.00 MB
 Length of K-op  integral file:               1.50 MB
 Length of 3-ext integral record:             0.00 MB

 Memory could be reduced to 37.23 Mwords without degradation in triples

 Integral transformation finished. Total CPU:   1.92 sec, npass=  1  Memory used:  25.63 MW

 Reference energy:                   -225.06361893

 MP2 singlet pair energy:              -0.45131006
 MP2 triplet pair energy:              -0.26574960
 MP2 correlation energy:               -0.71705966
 MP2 total energy:                   -225.78067859

 SCS-MP2 correlation energy:           -0.70692738   (PS=  1.200000  PT=  0.333333)
 SCS-MP2 total energy:               -225.77054631

 ITER.      SQ.NORM     CORR.ENERGY   TOTAL ENERGY   ENERGY CHANGE        DEN1      VAR(S)    VAR(P)  DIIS     TIME
   1      1.24223222    -0.75080181  -225.81442074    -0.03374215    -0.00983630  0.53D-02  0.49D-02  1  1     6.00
   2      1.26409610    -0.75385898  -225.81747791    -0.00305717    -0.02116151  0.17D-03  0.87D-03  2  2    10.11
   3      1.27420305    -0.75456744  -225.81818637    -0.00070846    -0.00465247  0.12D-03  0.62D-04  3  3    14.22
   4      1.27839206    -0.75453175  -225.81815068     0.00003569    -0.00138536  0.11D-04  0.11D-04  4  4    18.33
   5      1.28007158    -0.75454974  -225.81816867    -0.00001799    -0.00036606  0.20D-05  0.17D-05  5  5    22.46
   6      1.28053883    -0.75451941  -225.81813834     0.00003033    -0.00005584  0.17D-06  0.34D-06  6  6    26.58
   7      1.28064428    -0.75451598  -225.81813490     0.00000344    -0.00000438  0.37D-07  0.92D-07  6  2    30.70
   8      1.28067141    -0.75451679  -225.81813572    -0.00000081    -0.00000065  0.53D-08  0.22D-07  6  1    34.82
   9      1.28067765    -0.75451614  -225.81813507     0.00000065     0.00000234  0.20D-08  0.33D-08  6  3    38.94
  10      1.28067232    -0.75451710  -225.81813602    -0.00000096     0.00000151  0.47D-09  0.64D-09  6  5    43.05
  11      1.28067171    -0.75451728  -225.81813621    -0.00000018     0.00000058  0.14D-09  0.68D-10  6  4    47.16
  12      1.28067074    -0.75451732  -225.81813625    -0.00000004     0.00000018  0.40D-10  0.13D-10  6  6    51.29
  13      1.28067009    -0.75451737  -225.81813630    -0.00000005     0.00000007  0.92D-11  0.35D-11  6  2    55.40
  14      1.28066957    -0.75451738  -225.81813631    -0.00000001     0.00000007  0.25D-11  0.79D-12  6  1    59.52
  15      1.28066928    -0.75451739  -225.81813632    -0.00000001     0.00000005  0.43D-12  0.21D-12  6  5    63.64
  16      1.28066911    -0.75451740  -225.81813633    -0.00000001     0.00000003  0.13D-12  0.38D-13  6  3    67.77
  17      1.28066907    -0.75451740  -225.81813633    -0.00000000     0.00000001  0.80D-13  0.13D-13  6  4    71.88
  18      1.28066905    -0.75451740  -225.81813633    -0.00000000     0.00000000  0.53D-13  0.70D-14  6  6    76.00
  19      1.28066904    -0.75451740  -225.81813633     0.00000000    -0.00000000  0.28D-13  0.36D-14  6  2    80.13
  20      1.28066905    -0.75451740  -225.81813633     0.00000000     0.00000000  0.93D-14  0.20D-14  6  1    84.24
  21      1.28066905    -0.75451740  -225.81813633     0.00000000    -0.00000000  0.24D-14  0.10D-14  6  3    88.35
  22      1.28066905    -0.75451740  -225.81813633    -0.00000000     0.00000000  0.34D-15  0.34D-15  6  5    92.48
  23      1.28066905    -0.75451740  -225.81813633     0.00000000    -0.00000000  0.56D-16  0.96D-16  6  6    96.59
  24      1.28066906    -0.75451740  -225.81813633    -0.00000000    -0.00000000  0.43D-17  0.20D-16  6  4   100.71
  25      1.28066906    -0.75451740  -225.81813633     0.00000000    -0.00000000  0.11D-17  0.26D-17  6  2   104.83
  26      1.28066906    -0.75451740  -225.81813633     0.00000000    -0.00000000  0.49D-18  0.85D-18  6  1   108.96
  27      1.28066906    -0.75451740  -225.81813633     0.00000000    -0.00000000  0.24D-18  0.24D-18  6  3   113.07
  28      1.28066906    -0.75451740  -225.81813633     0.00000000    -0.00000000  0.16D-18  0.60D-19  6  5   117.20
  29      1.28066906    -0.75451740  -225.81813633     0.00000000    -0.00000000  0.12D-18  0.22D-19  6  6   121.31
  30      1.28066906    -0.75451740  -225.81813633     0.00000000    -0.00000000  0.77D-19  0.96D-20  6  4   125.42

 Norm of t1 vector:      0.11186506      S-energy:     0.00000000      T1 diagnostic:  0.01551289
                                                                       D1 diagnostic:  0.04954598

 Doubles amplitudes (print threshold =  0.500E-01):

         I         J         SYM. A    SYM. B    A         B      T(IJ, AB)

         7         7         1         1         7         7     -0.05278921
        11         7         1         1         7         7     -0.05301697
        11        11         1         1         7         7     -0.07479889


 Total CPU time for triples:     65.27 sec


 RESULTS
 =======

  Reference energy                   -225.063618928525
  CCSD singlet pair energy             -0.519374504930
  CCSD triplet pair energy             -0.235142896212
  CCSD correlation energy              -0.754517401139

  Triples (T) contribution             -0.026870933176
  Total correlation energy             -0.781388334315

  CCSD total energy                  -225.818136329664
  CCSD[T] energy                     -225.846637217672
  CCSD-T energy                      -225.844496433193
 !CCSD(T) total energy               -225.845007262840

 Timing summary (sec):

 STEP                 CPU(USER)    SYS     CPU(TOT)    WALL
 Transformation          1.99      0.21      2.20      2.20
 CCSD iterations       123.43      3.29    126.72    126.81
 Triples                65.27      1.24     66.51     66.51

 Program statistics:

 Available memory in ccsd:               999999224
 Min. memory needed in ccsd:               3720021
 Max. memory used in ccsd:                 4957023
 Max. memory used in cckext:               4136268 (30 integral passes)



 **********************************************************************************************************************************
 DATASETS  * FILE   NREC   LENGTH (MB)   RECORD NAMES
              1      20      569.67       500      610      700      900      950      970     1000      129      960     1100   
                                          VAR    BASINP    GEOM    SYMINP    ZMAT    AOBASIS   BASIS     P2S    ABASIS      S 
                                         1400     1410     1200     1210     1080     1600     1650     1300     1700     1380   
                                           T        V       H0       H01     AOSYM     SMH    MOLCAS    ERIS     OPER     JKOP   

              2       3        0.86       700     1000     2100   
                                         GEOM     BASIS     RHF  

 PROGRAMS   *        TOTAL   CCSD(T)       RHF       INT
 CPU TIMES  *       202.17    190.69      8.54      2.90
 REAL TIME  *       209.03 SEC
 DISK USED  *         1.62 GB      
 GA USED    *         0.00 MB       (max)       0.00 MB       (current)
 **********************************************************************************************************************************

        CCSD(T)         RHF-SCF 
   -225.84500726   -225.06361893
 **********************************************************************************************************************************
 Variable memory released
