
 Primary working directories    : /tmp/1049102.1508.gen6.q
 Secondary working directories  : /tmp/1049102.1508.gen6.q
 Wavefunction directory         : /home/vulcan/mel64643/wfu/
 Main file repository           : /tmp/1049102.1508.gen6.q/

 ARCHNAME  : Linux/x86_64
 FC        : /opt/intel/compilers_and_libraries_2016.1.150/linux/bin/intel64/ifort
 FCVERSION : 16.0.1
 BLASLIB   : -mkl
 id        : ccgc

 Nodes     nprocs
 n074         1
 ga_uses_ma=false, calling ma_init with nominal heap.
 GA-space will be limited to   8.0 MW (determined by -G option)

 Using customized tuning parameters: mindgm=10; mindgv=16; mindgc=4; mindgr=1; noblas=0; mincuda=1000; minvec=7
 default implementation of scratch files=df  

 ***,Optimization of h2o_3
 memory,1000,m
 gthresh,energy=1.0d-12,orbital=1.0d-10,oneint=1.0d-16,twoint=1.0d-16,optgrad=1.0d-6,compress=1.0d-13
 geomtyp=xyz
 
 
 
 bohr
 geometry = {
  C    0.9242211680    1.4069265610   -2.2776095915
  C    0.7383845557    2.7090342118    0.0140459519
  C    0.9873439831    1.4040266335    2.2982125707
  C    1.4205418643   -1.2031410096    2.2907179509
  C    1.6071055297   -2.5047571392   -0.0008919239
  C    1.3582036658   -1.1995260557   -2.2848540045
  H    0.7221594169    2.4173996364   -4.0475636733
  H    0.3871407079    4.7265263124    0.0198293779
  H    0.8380661935    2.4127297404    4.0746336175
  H    1.6108667593   -2.2146778095    4.0617803729
  H    1.9408434379   -4.5256979975   -0.0067454544
  H    1.5003917439   -2.2088444400   -4.0617932954
  N   -5.4438079648   -0.3587088735   -0.0566921892
  H   -5.5884839736   -1.5670440034   -1.5400293163
  H   -6.0595629567   -1.3117203478    1.4904844156
  H   -3.5624822638   -0.0743150174    0.2065528683
 }
 
 basis=aug-cc-pvdz, H=cc-pvdz
 {rhf;maxit,200}
 {ccsd(t)}

 Variables initialized (661), CPU time= 0.00 sec
 Commands  initialized (458), CPU time= 0.00 sec, 486 directives.
 Default parameters read. Elapsed time= 0.05 sec

 Checking input...
 Passed
1


                                         ***  PROGRAM SYSTEM MOLPRO  ***
                         Copyright, University College Cardiff Consultants Limited, 2008

                                    Version 2010.1 linked May 16 2016 07:17:05


 **********************************************************************************************************************************
 LABEL *   Optimization of h2o_3                                                         
 Linux-4.4.3/n074(x86_64) 64 bit mpp version                                             DATE: 21-Mar-24          TIME: 06:49:37  
 **********************************************************************************************************************************

 SHA1:             9e8077add272b0f3cad6f7df79ec5211205f459d
 **********************************************************************************************************************************

 THRESHOLDS:

 ZERO    =  1.00D-12  ONEINT  =  1.00D-16  TWOINT  =  1.00D-16  PREFAC  =  1.00D-14  LOCALI  =  1.00D-09  EORDER  =  1.00D-04
 ENERGY  =  1.00D-12  ETEST   =  0.00D+00  EDENS   =  0.00D+00  THRDEDEF=  1.00D-06  GRADIENT=  1.00D-02  STEP    =  1.00D-03
 ORBITAL =  1.00D-10  CIVEC   =  1.00D-05  COEFF   =  1.00D-04  PRINTCI =  5.00D-02  PUNCHCI =  9.90D+01  OPTGRAD =  1.00D-06
 OPTENERG=  1.00D-06  OPTSTEP =  3.00D-04  THRGRAD =  1.00D-10  COMPRESS=  1.00D-13  VARMIN  =  1.00D-07  VARMAX  =  1.00D-03
 THRDOUB =  0.00D+00  THRDIV  =  1.00D-05  THRRED  =  1.00D-07  THRPSP  =  1.00D+00  THRDC   =  1.00D-10  THRCS   =  1.00D-10
 THRNRM  =  1.00D-08  THREQ   =  0.00D+00  THRDE   =  1.00D+00  THRREF  =  1.00D-05  SPARFAC =  1.00D+00  THRDLP  =  1.00D-07
 THRDIA  =  1.00D-10  THRDLS  =  1.00D-07  THRGPS  =  0.00D+00  THRKEX  =  0.00D+00  THRDIS  =  2.00D-01  THRVAR  =  1.00D-10
 THRLOC  =  1.00D-06  THRGAP  =  1.00D-06  THRLOCT = -1.00D+00  THRGAPT = -1.00D+00  THRORB  =  1.00D-06  THRMLTP =  0.00D+00
 THRCPQCI=  1.00D-10  KEXTA   =  0.00D+00  THRCOARS=  0.00D+00  SYMTOL  =  1.00D-06  GRADTOL =  1.00D-06  THROVL  =  1.00D-08
 THRORTH =  1.00D-08  GRID    =  1.00D-06  GRIDMAX =  1.00D-03  DTMAX   =  0.00D+00

 SETTING GEOMTYP        =    XYZ
 ZUNIT=BOHR
 

 Variable memory set to 1000000000 words,  buffer space   230000 words

 SETTING BASIS          =    AUG-CC-PVDZ,H=CC-PVDZ


 Recomputing integrals since basis changed


 Using spherical harmonics

 Library entry C      S aug-cc-pVDZ          selected for orbital group  1
 Library entry C      P aug-cc-pVDZ          selected for orbital group  1
 Library entry C      D aug-cc-pVDZ          selected for orbital group  1
 Library entry H      S cc-pVDZ              selected for orbital group  2
 Library entry H      P cc-pVDZ              selected for orbital group  2
 Library entry N      S aug-cc-pVDZ          selected for orbital group  3
 Library entry N      P aug-cc-pVDZ          selected for orbital group  3
 Library entry N      D aug-cc-pVDZ          selected for orbital group  3

1PROGRAM * SEWARD (Integral evaluation for generally contracted gaussian basis sets)     Author: Roland Lindh, 1990

 Geometry written to block  1 of record 700


 Point group  C1  



 ATOMIC COORDINATES

 NR  ATOM    CHARGE       X              Y              Z

   1  C       6.00    0.924221168    1.406926561   -2.277609592
   2  C       6.00    0.738384556    2.709034212    0.014045952
   3  C       6.00    0.987343983    1.404026634    2.298212571
   4  C       6.00    1.420541864   -1.203141010    2.290717951
   5  C       6.00    1.607105530   -2.504757139   -0.000891924
   6  C       6.00    1.358203666   -1.199526056   -2.284854005
   7  H       1.00    0.722159417    2.417399636   -4.047563673
   8  H       1.00    0.387140708    4.726526312    0.019829378
   9  H       1.00    0.838066194    2.412729740    4.074633617
  10  H       1.00    1.610866759   -2.214677809    4.061780373
  11  H       1.00    1.940843438   -4.525697998   -0.006745454
  12  H       1.00    1.500391744   -2.208844440   -4.061793295
  13  N       7.00   -5.443807965   -0.358708874   -0.056692189
  14  H       1.00   -5.588483974   -1.567044003   -1.540029316
  15  H       1.00   -6.059562957   -1.311720348    1.490484416
  16  H       1.00   -3.562482264   -0.074315017    0.206552868

 Bond lengths in Bohr (Angstrom)

 1-2  2.642291564  1-6  2.642345271  1-7  2.048077694  2-3  2.642431214  2-8  2.047847666
     ( 1.398240475)     ( 1.398268896)     ( 1.083796038)     ( 1.398314375)     ( 1.083674313)

  3- 4  2.642922567   3- 9  2.048276727   4- 5  2.642061008   4-10  2.048436566   5- 6  2.642359382
       ( 1.398574387)       ( 1.083901362)       ( 1.398118470)       ( 1.083985945)       ( 1.398276363)

  5-11  2.048320582   6-12  2.048524907  13-14  1.918669843  13-15  1.918629857  13-16  1.920823839
       ( 1.083924569)       ( 1.084032693)       ( 1.015316352)       ( 1.015295193)       ( 1.016456198)

 Bond angles

  1- 2- 3  119.98067269   1- 2- 8  120.00017337   1- 6- 5  120.02353235   1- 6-12  119.98613466

  2-1-6  120.00199110   2-1-7  119.96358319   2-3-4  120.01167874   2-3-9  119.97429908

  3- 2- 8  120.01747693   3- 4- 5  120.00136300   3- 4-10  119.99378372   4- 3- 9  120.01369046

  4- 5- 6  119.98073418   4- 5-11  120.00333289   5- 4-10  120.00484857   5- 6-12  119.99031845

  6- 1- 7  120.03368581   6- 5-11  120.01581893  14-13-15  106.64322830  14-13-16  105.84585941

 15-13-16  106.10288289

 NUCLEAR CHARGE:                   52
 NUMBER OF PRIMITIVE AOS:         322
 NUMBER OF SYMMETRY AOS:          308
 NUMBER OF CONTRACTIONS:          206   ( 206A   )
 NUMBER OF CORE ORBITALS:           7   (   7A   )
 NUMBER OF VALENCE ORBITALS:       37   (  37A   )


 NUCLEAR REPULSION ENERGY  273.71772127


 Eigenvalues of metric

         1 0.861E-05 0.184E-04 0.228E-04 0.532E-04 0.643E-04 0.644E-04 0.107E-03 0.107E-03


 Contracted 2-electron integrals neglected if value below      1.0D-16
 AO integral compression algorithm  1   Integral accuracy      1.0D-16

     1892.680 MB (compressed) written to integral file ( 94.5%)

     Node minimum: 1892.680 MB, node maximum: 1892.680 MB


 NUMBER OF SORTED TWO-ELECTRON INTEGRALS:  227303181.     BUFFER LENGTH:  32768
 NUMBER OF SEGMENTS:  15  SEGMENT LENGTH:   15999503      RECORD LENGTH: 524288

 Memory used in sort:      16.56 MW

 SORT1 READ   250230724. AND WROTE   226406960. INTEGRALS IN    654 RECORDS. CPU TIME:     2.18 SEC, REAL TIME:     3.96 SEC
 SORT2 READ   226406960. AND WROTE   227303181. INTEGRALS IN   7220 RECORDS. CPU TIME:     1.50 SEC, REAL TIME:     2.34 SEC

 FILE SIZES:   FILE 1:  1743.3 MBYTE,  FILE 4:  2743.1 MBYTE,   TOTAL:   4486.4 MBYTE

 OPERATOR DM      FOR CENTER  0  COORDINATES:    0.000000    0.000000    0.000000


 **********************************************************************************************************************************
 DATASETS  * FILE   NREC   LENGTH (MB)   RECORD NAMES
              1      19     1743.77       500      610      700      900      950      970     1000      129      960     1100   
                                          VAR    BASINP    GEOM    SYMINP    ZMAT    AOBASIS   BASIS     P2S    ABASIS      S 
                                         1400     1410     1200     1210     1080     1600     1650     1300     1700   
                                           T        V       H0       H01     AOSYM     SMH    MOLCAS    ERIS     OPER   

 PROGRAMS   *        TOTAL       INT
 CPU TIMES  *        12.59     12.56
 REAL TIME  *        16.63 SEC
 DISK USED  *         6.38 GB      
 GA USED    *         0.01 MB       (max)       0.00 MB       (current)
 **********************************************************************************************************************************

1PROGRAM * RHF-SCF (CLOSED SHELL)       Authors: W. Meyer, H.-J. Werner


 NUMBER OF ELECTRONS:      26+   26-    SPACE SYMMETRY=1    SPIN SYMMETRY: Singlet 
 CONVERGENCE THRESHOLDS:    1.00E-10 (Density)    1.00E-13 (Energy)
 MAX. NUMBER OF ITERATIONS:      200
 INTERPOLATION TYPE:            DIIS
 INTERPOLATION STEPS:              2 (START)      1 (STEP)
 LEVEL SHIFTS:                  0.00 (CLOSED)  0.00 (OPEN) 



 Orbital guess generated from atomic densities. Full valence occupancy:   44

 Molecular orbital dump at record        2100.2

 ITERATION    DDIFF          GRAD             ENERGY        2-EL.EN.            DIPOLE MOMENTS         DIIS
    1      0.000D+00      0.000D+00      -286.85324268    740.893522    0.52424   -0.76532    0.13576    0
    2      0.000D+00      0.322D-02      -286.92079788    735.107572    0.43784   -0.38305    0.06118    1
    3      0.826D-02      0.133D-02      -286.93012229    737.737184    0.45479   -0.52099    0.09178    2
    4      0.218D-02      0.381D-03      -286.93133993    737.217912    0.45335   -0.49436    0.08367    3
    5      0.783D-03      0.526D-04      -286.93136375    737.206559    0.45914   -0.50442    0.08778    4
    6      0.135D-03      0.177D-04      -286.93136618    737.221488    0.45801   -0.49894    0.08560    5
    7      0.511D-04      0.554D-05      -286.93136646    737.218402    0.45866   -0.50114    0.08638    6
    8      0.150D-04      0.129D-05      -286.93136648    737.217396    0.45881   -0.50079    0.08623    7
    9      0.417D-05      0.542D-06      -286.93136648    737.217854    0.45885   -0.50088    0.08626    7
   10      0.148D-05      0.143D-06      -286.93136648    737.217803    0.45885   -0.50088    0.08626    7
   11      0.516D-06      0.410D-07      -286.93136648    737.217788    0.45886   -0.50088    0.08626    7
   12      0.143D-06      0.176D-07      -286.93136648    737.217802    0.45886   -0.50088    0.08626    8
   13      0.621D-07      0.774D-08      -286.93136648    737.217797    0.45886   -0.50088    0.08626    8
   14      0.350D-07      0.368D-08      -286.93136648    737.217799    0.45886   -0.50088    0.08626    8
   15      0.208D-07      0.139D-08      -286.93136648    737.217798    0.45886   -0.50088    0.08626    8
   16      0.721D-08      0.456D-09      -286.93136648    737.217798    0.45886   -0.50088    0.08626    9
   17      0.213D-08      0.124D-09      -286.93136648    737.217798    0.45886   -0.50088    0.08626    9
   18      0.405D-09      0.377D-10      -286.93136648    737.217798    0.45886   -0.50088    0.08626    8
   19      0.258D-09      0.158D-10      -286.93136648    737.217798    0.45886   -0.50088    0.08626    9
   20      0.191D-09      0.823D-11      -286.93136648    737.217798    0.45886   -0.50088    0.08626    9
   21      0.108D-09      0.395D-11      -286.93136648    737.217798    0.45886   -0.50088    0.08626    9
   22      0.193D-09      0.128D-11      -286.93136648    737.217798    0.45886   -0.50088    0.08626    9
   23      0.143D-09      0.682D-12      -286.93136648    737.217798    0.45886   -0.50088    0.08626    9
   24      0.772D-10      0.546D-12      -286.93136648    737.217798    0.45886   -0.50088    0.08626    9
   25      0.598D-10      0.515D-12      -286.93136648    737.217798    0.45886   -0.50088    0.08626    9
   26      0.323D-10      0.498D-12      -286.93136648    737.217798    0.45886   -0.50088    0.08626    9
   27      0.282D-10      0.451D-12      -286.93136648    737.217798    0.45886   -0.50088    0.08626    0

 Final occupancy:  26

 !RHF STATE 1.1 Energy               -286.931366479783
 Nuclear energy                       273.71772127
 One-electron energy                 -929.25798690
 Two-electron energy                  368.60889915
 Virial quotient                       -1.00146531
 !RHF STATE 1.1 Dipole moment           0.45885841    -0.50088390     0.08625953
 Dipole moment /Debye                   1.16622537    -1.27303651     0.21923550

 Orbital energies:

         1.1          2.1          3.1          4.1          5.1          6.1          7.1          8.1          9.1         10.1
    -15.534974   -11.250654   -11.250052   -11.249696   -11.248825   -11.248686   -11.247855    -1.157526    -1.125537    -1.022081

        11.1         12.1         13.1         14.1         15.1         16.1         17.1         18.1         19.1         20.1
     -1.021972    -0.830661    -0.830562    -0.714525    -0.650479    -0.623945    -0.611315    -0.610184    -0.593603    -0.593477

        21.1         22.1         23.1         24.1         25.1         26.1         27.1         28.1
     -0.504883    -0.500125    -0.500048    -0.413422    -0.343005    -0.342002     0.063887     0.066399


 **********************************************************************************************************************************
 DATASETS  * FILE   NREC   LENGTH (MB)   RECORD NAMES
              1      19     1743.77       500      610      700      900      950      970     1000      129      960     1100   
                                          VAR    BASINP    GEOM    SYMINP    ZMAT    AOBASIS   BASIS     P2S    ABASIS      S 
                                         1400     1410     1200     1210     1080     1600     1650     1300     1700   
                                           T        V       H0       H01     AOSYM     SMH    MOLCAS    ERIS     OPER   

              2       3        1.40       700     1000     2100   
                                         GEOM     BASIS     RHF  

 PROGRAMS   *        TOTAL       RHF       INT
 CPU TIMES  *        53.15     40.55     12.56
 REAL TIME  *        61.58 SEC
 DISK USED  *         6.38 GB      
 GA USED    *         0.01 MB       (max)       0.00 MB       (current)
 **********************************************************************************************************************************


1PROGRAM * CCSD (Closed-shell coupled cluster)     Authors: C. Hampel, H.-J. Werner, 1991, M. Deegan, P.J. Knowles, 1992


 Convergence thresholds:  THRVAR = 1.00D-08  THRDEN = 1.00D-12

 CCSD(T)     terms to be evaluated (factor= 1.000)


 Number of core orbitals:           7 (   7 )
 Number of closed-shell orbitals:  19 (  19 )
 Number of external orbitals:     180 ( 180 )

 Molecular orbitals read from record     2100.2  Type=RHF/CANONICAL (state 1.1)

 Number of N-1 electron functions:              19
 Number of N-2 electron functions:             190
 Number of singly external CSFs:              3420
 Number of doubly external CSFs:           5849910
 Total number of CSFs:                     5853331

 Length of J-op  integral file:               0.00 MB
 Length of K-op  integral file:               2.96 MB
 Length of 3-ext integral record:             0.00 MB

 Memory could be reduced to 140.12 Mwords without degradation in triples

 Integral transformation finished. Total CPU:  10.55 sec, npass=  1  Memory used: 101.90 MW

 Reference energy:                   -286.93136648

 MP2 singlet pair energy:              -0.62063227
 MP2 triplet pair energy:              -0.38983708
 MP2 correlation energy:               -1.01046935
 MP2 total energy:                   -287.94183583

 SCS-MP2 correlation energy:           -0.98732402   (PS=  1.200000  PT=  0.333333)
 SCS-MP2 total energy:               -287.91869050

 ITER.      SQ.NORM     CORR.ENERGY   TOTAL ENERGY   ENERGY CHANGE        DEN1      VAR(S)    VAR(P)  DIIS     TIME
   1      1.38488228    -1.05476057  -287.98612705    -0.04429121    -0.01721254  0.36D-02  0.80D-02  1  1    43.66
   2      1.41439523    -1.06062307  -287.99198955    -0.00586250    -0.02705323  0.63D-04  0.10D-02  2  2    77.09
   3      1.42352601    -1.06071871  -287.99208519    -0.00009564    -0.00464321  0.27D-04  0.84D-04  3  3   110.58
   4      1.42746273    -1.06088744  -287.99225392    -0.00016874    -0.00121389  0.22D-05  0.11D-04  4  4   144.06
   5      1.42867609    -1.06091840  -287.99228488    -0.00003096    -0.00027314  0.27D-06  0.13D-05  5  5   177.57
   6      1.42897890    -1.06090816  -287.99227464     0.00001024    -0.00004355  0.23D-07  0.79D-07  6  6   211.04
   7      1.42901970    -1.06090979  -287.99227627    -0.00000163    -0.00000106  0.35D-08  0.82D-08  6  2   244.53
   8      1.42902889    -1.06090965  -287.99227613     0.00000014    -0.00000118  0.75D-09  0.76D-09  6  1   278.05
   9      1.42902872    -1.06090978  -287.99227626    -0.00000013     0.00000123  0.21D-09  0.92D-10  6  4   311.54
  10      1.42902991    -1.06090979  -287.99227627    -0.00000001    -0.00000018  0.57D-10  0.15D-10  6  3   345.04
  11      1.42902985    -1.06090981  -287.99227629    -0.00000002     0.00000013  0.14D-10  0.36D-11  6  5   378.51
  12      1.42902981    -1.06090981  -287.99227629    -0.00000000     0.00000003  0.15D-11  0.10D-11  6  6   412.00
  13      1.42902964    -1.06090982  -287.99227630    -0.00000000     0.00000006  0.69D-13  0.20D-12  6  2   445.51
  14      1.42902954    -1.06090982  -287.99227630    -0.00000000     0.00000002  0.81D-14  0.40D-13  6  1   479.01
  15      1.42902948    -1.06090982  -287.99227630    -0.00000000     0.00000001  0.89D-15  0.53D-14  6  3   512.51
  16      1.42902946    -1.06090982  -287.99227630    -0.00000000     0.00000000  0.12D-15  0.37D-15  6  4   546.02
  17      1.42902945    -1.06090982  -287.99227630    -0.00000000     0.00000000  0.32D-16  0.44D-16  6  5   579.52
  18      1.42902945    -1.06090982  -287.99227630    -0.00000000     0.00000000  0.85D-17  0.71D-17  6  6   613.02
  19      1.42902945    -1.06090982  -287.99227630    -0.00000000     0.00000000  0.25D-17  0.80D-18  6  2   646.52
  20      1.42902945    -1.06090982  -287.99227630    -0.00000000     0.00000000  0.82D-18  0.20D-18  6  1   680.01
  21      1.42902945    -1.06090982  -287.99227630    -0.00000000     0.00000000  0.31D-18  0.83D-19  6  3   713.51
  22      1.42902945    -1.06090982  -287.99227630    -0.00000000     0.00000000  0.12D-18  0.39D-19  6  4   747.00
  23      1.42902945    -1.06090982  -287.99227630    -0.00000000     0.00000000  0.57D-19  0.22D-19  6  6   780.51

 Norm of t1 vector:      0.08385610      S-energy:    -0.00000000      T1 diagnostic:  0.00961895
                                                                       D1 diagnostic:  0.02620090

 Doubles amplitudes (print threshold =  0.500E-01):

         I         J         SYM. A    SYM. B    A         B      T(IJ, AB)

        18        18         1         1         6         6     -0.05129695
        19        19         1         1         7         7     -0.05441876


 Total CPU time for triples:    679.70 sec


 RESULTS
 =======

  Reference energy                   -286.931366479784
  CCSD singlet pair energy             -0.711155424679
  CCSD triplet pair energy             -0.349754394031
  CCSD correlation energy              -1.060909818711

  Triples (T) contribution             -0.045603487819
  Total correlation energy             -1.106513306529

  CCSD total energy                  -287.992276298494
  CCSD[T] energy                     -288.038750010625
  CCSD-T energy                      -288.037491234001
 !CCSD(T) total energy               -288.037879786313

 Timing summary (sec):

 STEP                 CPU(USER)    SYS     CPU(TOT)    WALL
 Transformation         10.89      0.76     11.65     11.65
 CCSD iterations       769.64     11.60    781.24    782.11
 Triples               679.70     10.56    690.26    690.35

 Program statistics:

 Available memory in ccsd:               999998456
 Min. memory needed in ccsd:              14392275
 Max. memory used in ccsd:                19775697
 Max. memory used in cckext:              16737545 (23 integral passes)



 **********************************************************************************************************************************
 DATASETS  * FILE   NREC   LENGTH (MB)   RECORD NAMES
              1      20     2287.38       500      610      700      900      950      970     1000      129      960     1100   
                                          VAR    BASINP    GEOM    SYMINP    ZMAT    AOBASIS   BASIS     P2S    ABASIS      S 
                                         1400     1410     1200     1210     1080     1600     1650     1300     1700     1380   
                                           T        V       H0       H01     AOSYM     SMH    MOLCAS    ERIS     OPER     JKOP   

              2       3        1.40       700     1000     2100   
                                         GEOM     BASIS     RHF  

 PROGRAMS   *        TOTAL   CCSD(T)       RHF       INT
 CPU TIMES  *      1513.39   1460.24     40.55     12.56
 REAL TIME  *      1545.79 SEC
 DISK USED  *         6.38 GB      
 GA USED    *         0.01 MB       (max)       0.00 MB       (current)
 **********************************************************************************************************************************

        CCSD(T)         RHF-SCF 
   -288.03787979   -286.93136648
 **********************************************************************************************************************************
 Variable memory released
