
 Primary working directories    : /tmp/944438.370.gen4.q
 Secondary working directories  : /tmp/944438.370.gen4.q
 Wavefunction directory         : /home/vulcan/mel64643/wfu/
 Main file repository           : /tmp/944438.370.gen4.q/

 ARCHNAME  : Linux/x86_64
 FC        : /opt/intel/compilers_and_libraries_2016.1.150/linux/bin/intel64/ifort
 FCVERSION : 16.0.1
 BLASLIB   : -mkl
 id        : ccgc

 Nodes     nprocs
 n056         1
 ga_uses_ma=false, calling ma_init with nominal heap.
 GA-space will be limited to   8.0 MW (determined by -G option)

 Using customized tuning parameters: mindgm=10; mindgv=16; mindgc=4; mindgr=1; noblas=0; mincuda=1000; minvec=7
 default implementation of scratch files=df  

 ***,Optimization of min3
 memory,1000,m
 gthresh,energy=1.0d-12,orbital=1.0d-10,oneint=1.0d-16,twoint=1.0d-16,optgrad=1.0d-6,compress=1.0d-13
 geomtyp=xyz
 
 
 
  bohr
  geometry = {
  C   -0.2892003235    2.4007261006   -2.1316774414
  C    0.7653527340   -0.0003818302   -0.8938473026
  C    0.1924837744   -0.0013976447    1.8340442892
  N   -0.2959773026   -0.0022103102    3.9773414581
  H    2.8247483867    0.0004489958   -1.0648581907
  C   -0.2873796743   -2.4015634822   -2.1330833777
  H   -2.3391676043   -2.4492279226   -1.9682648789
  H    0.4749899397   -4.0944321763   -1.2487542902
  H    0.2079194333   -2.4189258153   -4.1310760034
  H   -2.3478206592    2.4546096420   -1.9524045055
  H    0.1945299815    2.4120385005   -4.1409451528
  H    0.4868053441    4.1003159426   -1.2530945166
 }
 
 basis=cc-pvdz
 {rhf;maxit,200}
 {ccsd(t);maxit,200}

 Variables initialized (661), CPU time= 0.00 sec
 Commands  initialized (458), CPU time= 0.00 sec, 486 directives.
 Default parameters read. Elapsed time= 0.05 sec

 Checking input...
 Passed
1


                                         ***  PROGRAM SYSTEM MOLPRO  ***
                         Copyright, University College Cardiff Consultants Limited, 2008

                                    Version 2010.1 linked May 16 2016 07:17:05


 **********************************************************************************************************************************
 LABEL *   Optimization of min3                                                          
 Linux-4.4.3/n056(x86_64) 64 bit mpp version                                             DATE: 27-Oct-23          TIME: 10:56:34  
 **********************************************************************************************************************************

 SHA1:             9e8077add272b0f3cad6f7df79ec5211205f459d
 **********************************************************************************************************************************

 THRESHOLDS:

 ZERO    =  1.00D-12  ONEINT  =  1.00D-16  TWOINT  =  1.00D-16  PREFAC  =  1.00D-14  LOCALI  =  1.00D-09  EORDER  =  1.00D-04
 ENERGY  =  1.00D-12  ETEST   =  0.00D+00  EDENS   =  0.00D+00  THRDEDEF=  1.00D-06  GRADIENT=  1.00D-02  STEP    =  1.00D-03
 ORBITAL =  1.00D-10  CIVEC   =  1.00D-05  COEFF   =  1.00D-04  PRINTCI =  5.00D-02  PUNCHCI =  9.90D+01  OPTGRAD =  1.00D-06
 OPTENERG=  1.00D-06  OPTSTEP =  3.00D-04  THRGRAD =  1.00D-10  COMPRESS=  1.00D-13  VARMIN  =  1.00D-07  VARMAX  =  1.00D-03
 THRDOUB =  0.00D+00  THRDIV  =  1.00D-05  THRRED  =  1.00D-07  THRPSP  =  1.00D+00  THRDC   =  1.00D-10  THRCS   =  1.00D-10
 THRNRM  =  1.00D-08  THREQ   =  0.00D+00  THRDE   =  1.00D+00  THRREF  =  1.00D-05  SPARFAC =  1.00D+00  THRDLP  =  1.00D-07
 THRDIA  =  1.00D-10  THRDLS  =  1.00D-07  THRGPS  =  0.00D+00  THRKEX  =  0.00D+00  THRDIS  =  2.00D-01  THRVAR  =  1.00D-10
 THRLOC  =  1.00D-06  THRGAP  =  1.00D-06  THRLOCT = -1.00D+00  THRGAPT = -1.00D+00  THRORB  =  1.00D-06  THRMLTP =  0.00D+00
 THRCPQCI=  1.00D-10  KEXTA   =  0.00D+00  THRCOARS=  0.00D+00  SYMTOL  =  1.00D-06  GRADTOL =  1.00D-06  THROVL  =  1.00D-08
 THRORTH =  1.00D-08  GRID    =  1.00D-06  GRIDMAX =  1.00D-03  DTMAX   =  0.00D+00

 SETTING GEOMTYP        =    XYZ
 ZUNIT=BOHR
 

 Variable memory set to 1000000000 words,  buffer space   230000 words

 SETTING BASIS          =    CC-PVDZ


 Recomputing integrals since basis changed


 Using spherical harmonics

 Library entry C      S cc-pVDZ              selected for orbital group  1
 Library entry C      P cc-pVDZ              selected for orbital group  1
 Library entry C      D cc-pVDZ              selected for orbital group  1
 Library entry N      S cc-pVDZ              selected for orbital group  2
 Library entry N      P cc-pVDZ              selected for orbital group  2
 Library entry N      D cc-pVDZ              selected for orbital group  2
 Library entry H      S cc-pVDZ              selected for orbital group  3
 Library entry H      P cc-pVDZ              selected for orbital group  3

1PROGRAM * SEWARD (Integral evaluation for generally contracted gaussian basis sets)     Author: Roland Lindh, 1990

 Geometry written to block  1 of record 700


 Point group  C1  



 ATOMIC COORDINATES

 NR  ATOM    CHARGE       X              Y              Z

   1  C       6.00   -0.289200324    2.400726101   -2.131677441
   2  C       6.00    0.765352734   -0.000381830   -0.893847303
   3  C       6.00    0.192483774   -0.001397645    1.834044289
   4  N       7.00   -0.295977303   -0.002210310    3.977341458
   5  H       1.00    2.824748387    0.000448996   -1.064858191
   6  C       6.00   -0.287379674   -2.401563482   -2.133083378
   7  H       1.00   -2.339167604   -2.449227923   -1.968264879
   8  H       1.00    0.474989940   -4.094432176   -1.248754290
   9  H       1.00    0.207919433   -2.418925815   -4.131076003
  10  H       1.00   -2.347820659    2.454609642   -1.952404506
  11  H       1.00    0.194529982    2.412038501   -4.140945153
  12  H       1.00    0.486805344    4.100315943   -1.253094517

 Bond lengths in Bohr (Angstrom)

  1- 2  2.899935327   1-10  2.067113908   1-11  2.066707457   1-12  2.064630326   2- 3  2.787395274
       ( 1.534579682)       ( 1.093869568)       ( 1.093654484)       ( 1.092555314)       ( 1.475026051)

 2-5  2.066483939  2-6  2.899935327  3-4  2.198253315  6-7  2.058948942  6-8  2.056465360
     ( 1.093536203)     ( 1.534579682)     ( 1.163265554)     ( 1.089548855)     ( 1.088234600)

 6-9  2.058542491
     ( 1.089333770)

 Bond angles

  1- 2- 3  110.07805269   1- 2- 5  109.07122528   1- 2- 6  111.78757140   2- 1-10  110.28665566

  2- 1-11  109.53615401   2- 1-12  111.30134564   2- 3- 4  179.02148592   2- 6- 7  110.28665567

  2-6-8  111.30134563   2-6-9  109.53615402   3-2-5  106.60693501   3-2-6  110.07805269

  5-2-6  109.07122528   7-6-8  108.41810806   7-6-9  108.49789747   8-6-9  108.73761288

 10- 1-11  108.49789746  10- 1-12  108.41810806  11- 1-12  108.73761288

 NUCLEAR CHARGE:                   38
 NUMBER OF PRIMITIVE AOS:         184
 NUMBER OF SYMMETRY AOS:          179
 NUMBER OF CONTRACTIONS:          105   ( 105A   )
 NUMBER OF CORE ORBITALS:           5   (   5A   )
 NUMBER OF VALENCE ORBITALS:       27   (  27A   )


 NUCLEAR REPULSION ENERGY  158.94543006


 Eigenvalues of metric

         1 0.197E-02 0.463E-02 0.573E-02 0.601E-02 0.167E-01 0.195E-01 0.210E-01 0.265E-01


 Contracted 2-electron integrals neglected if value below      1.0D-16
 AO integral compression algorithm  1   Integral accuracy      1.0D-16

     130.023 MB (compressed) written to integral file ( 94.9%)

     Node minimum: 130.023 MB, node maximum: 130.023 MB


 NUMBER OF SORTED TWO-ELECTRON INTEGRALS:   15487395.     BUFFER LENGTH:  32768
 NUMBER OF SEGMENTS:   1  SEGMENT LENGTH:   15487395      RECORD LENGTH: 524288

 Memory used in sort:      16.04 MW

 SORT1 READ    17101285. AND WROTE    15442558. INTEGRALS IN     45 RECORDS. CPU TIME:     0.15 SEC, REAL TIME:     0.24 SEC
 SORT2 READ    15442558. AND WROTE    15487395. INTEGRALS IN    496 RECORDS. CPU TIME:     0.13 SEC, REAL TIME:     0.22 SEC

 FILE SIZES:   FILE 1:   120.7 MBYTE,  FILE 4:   188.8 MBYTE,   TOTAL:    309.5 MBYTE

 OPERATOR DM      FOR CENTER  0  COORDINATES:    0.000000    0.000000    0.000000


 **********************************************************************************************************************************
 DATASETS  * FILE   NREC   LENGTH (MB)   RECORD NAMES
              1      19      120.87       500      610      700      900      950      970     1000      129      960     1100   
                                          VAR    BASINP    GEOM    SYMINP    ZMAT    AOBASIS   BASIS     P2S    ABASIS      S 
                                         1400     1410     1200     1210     1080     1600     1650     1300     1700   
                                           T        V       H0       H01     AOSYM     SMH    MOLCAS    ERIS     OPER   

 PROGRAMS   *        TOTAL       INT
 CPU TIMES  *         1.88      1.84
 REAL TIME  *         2.31 SEC
 DISK USED  *       440.39 MB      
 GA USED    *         0.00 MB       (max)       0.00 MB       (current)
 **********************************************************************************************************************************

1PROGRAM * RHF-SCF (CLOSED SHELL)       Authors: W. Meyer, H.-J. Werner


 NUMBER OF ELECTRONS:      19+   19-    SPACE SYMMETRY=1    SPIN SYMMETRY: Singlet 
 CONVERGENCE THRESHOLDS:    1.00E-10 (Density)    1.00E-13 (Energy)
 MAX. NUMBER OF ITERATIONS:      200
 INTERPOLATION TYPE:            DIIS
 INTERPOLATION STEPS:              2 (START)      1 (STEP)
 LEVEL SHIFTS:                  0.00 (CLOSED)  0.00 (OPEN) 



 Orbital guess generated from atomic densities. Full valence occupancy:   32

 Molecular orbital dump at record        2100.2

 ITERATION    DDIFF          GRAD             ENERGY        2-EL.EN.            DIPOLE MOMENTS         DIIS
    1      0.000D+00      0.000D+00      -209.94376429    457.115609    0.48579    0.00310   -2.25192    0
    2      0.000D+00      0.590D-02      -209.98971952    456.669736    0.15070   -0.00073   -1.29399    1
    3      0.124D-01      0.414D-02      -210.01005319    456.354468    0.30680   -0.00053   -1.70243    2
    4      0.554D-02      0.106D-02      -210.01230047    456.681678    0.29344   -0.00079   -1.61421    3
    5      0.196D-02      0.235D-03      -210.01241855    456.522078    0.28712   -0.00103   -1.62544    4
    6      0.425D-03      0.579D-04      -210.01242793    456.541095    0.28734   -0.00106   -1.62351    5
    7      0.169D-03      0.160D-04      -210.01242848    456.539091    0.28770   -0.00107   -1.62482    6
    8      0.307D-04      0.501D-05      -210.01242853    456.538762    0.28756   -0.00107   -1.62493    7
    9      0.110D-04      0.107D-05      -210.01242854    456.538697    0.28759   -0.00107   -1.62493    7
   10      0.263D-05      0.382D-06      -210.01242854    456.538794    0.28759   -0.00107   -1.62495    7
   11      0.961D-06      0.202D-06      -210.01242854    456.538761    0.28759   -0.00107   -1.62495    7
   12      0.684D-06      0.925D-07      -210.01242854    456.538778    0.28759   -0.00107   -1.62495    7
   13      0.434D-06      0.239D-07      -210.01242854    456.538772    0.28759   -0.00107   -1.62495    8
   14      0.114D-06      0.462D-08      -210.01242854    456.538771    0.28759   -0.00107   -1.62495    8
   15      0.145D-07      0.184D-08      -210.01242854    456.538772    0.28759   -0.00107   -1.62495    8
   16      0.353D-08      0.526D-09      -210.01242854    456.538771    0.28759   -0.00107   -1.62495    8
   17      0.112D-08      0.103D-09      -210.01242854    456.538771    0.28759   -0.00107   -1.62495    8
   18      0.232D-09      0.251D-10      -210.01242854    456.538771    0.28759   -0.00107   -1.62495    7
   19      0.590D-10      0.807D-11      -210.01242854    456.538771    0.28759   -0.00107   -1.62495    7
   20      0.190D-10      0.291D-11      -210.01242854    456.538771    0.28759   -0.00107   -1.62495    7
   21      0.757D-11      0.108D-11      -210.01242854    456.538771    0.28759   -0.00107   -1.62495    0

 Final occupancy:  19

 !RHF STATE 1.1 Energy               -210.012428539312
 Nuclear energy                       158.94543006
 One-electron energy                 -597.22724433
 Two-electron energy                  228.26938573
 Virial quotient                       -1.00163713
 !RHF STATE 1.1 Dipole moment           0.28758740    -0.00107443    -1.62495060
 Dipole moment /Debye                   0.73092638    -0.00273075    -4.12994194

 Orbital energies:

         1.1          2.1          3.1          4.1          5.1          6.1          7.1          8.1          9.1         10.1
    -15.572623   -11.290172   -11.274784   -11.250836   -11.249452    -1.212656    -1.107766    -0.960716    -0.876342    -0.704118

        11.1         12.1         13.1         14.1         15.1         16.1         17.1         18.1         19.1         20.1
     -0.642661    -0.596909    -0.572514    -0.563745    -0.530462    -0.523499    -0.520247    -0.447385    -0.447351     0.155230

        21.1
      0.190291


 **********************************************************************************************************************************
 DATASETS  * FILE   NREC   LENGTH (MB)   RECORD NAMES
              1      19      120.87       500      610      700      900      950      970     1000      129      960     1100   
                                          VAR    BASINP    GEOM    SYMINP    ZMAT    AOBASIS   BASIS     P2S    ABASIS      S 
                                         1400     1410     1200     1210     1080     1600     1650     1300     1700   
                                           T        V       H0       H01     AOSYM     SMH    MOLCAS    ERIS     OPER   

              2       3        0.68       700     1000     2100   
                                         GEOM     BASIS     RHF  

 PROGRAMS   *        TOTAL       RHF       INT
 CPU TIMES  *         4.31      2.43      1.84
 REAL TIME  *         5.06 SEC
 DISK USED  *       440.39 MB      
 GA USED    *         0.00 MB       (max)       0.00 MB       (current)
 **********************************************************************************************************************************


1PROGRAM * CCSD (Closed-shell coupled cluster)     Authors: C. Hampel, H.-J. Werner, 1991, M. Deegan, P.J. Knowles, 1992


 Convergence thresholds:  THRVAR = 1.00D-08  THRDEN = 1.00D-12

 CCSD(T)     terms to be evaluated (factor= 1.000)


 Number of core orbitals:           5 (   5 )
 Number of closed-shell orbitals:  14 (  14 )
 Number of external orbitals:      86 (  86 )

 Molecular orbitals read from record     2100.2  Type=RHF/CANONICAL (state 1.1)

 Number of N-1 electron functions:              14
 Number of N-2 electron functions:             105
 Number of singly external CSFs:              1204
 Number of doubly external CSFs:            725410
 Total number of CSFs:                      726615

 Length of J-op  integral file:               0.00 MB
 Length of K-op  integral file:               0.79 MB
 Length of 3-ext integral record:             0.00 MB

 Memory could be reduced to 12.72 Mwords without degradation in triples

 Integral transformation finished. Total CPU:   0.74 sec, npass=  1  Memory used:  10.92 MW

 Reference energy:                   -210.01242854

 MP2 singlet pair energy:              -0.45163463
 MP2 triplet pair energy:              -0.25975875
 MP2 correlation energy:               -0.71139337
 MP2 total energy:                   -210.72382191

 SCS-MP2 correlation energy:           -0.70358921   (PS=  1.200000  PT=  0.333333)
 SCS-MP2 total energy:               -210.71601775

 ITER.      SQ.NORM     CORR.ENERGY   TOTAL ENERGY   ENERGY CHANGE        DEN1      VAR(S)    VAR(P)  DIIS     TIME
   1      1.27015989    -0.75346893  -210.76589747    -0.04207556    -0.01887878  0.35D-02  0.56D-02  1  1     2.59
   2      1.29282087    -0.75712631  -210.76955485    -0.00365738    -0.02204575  0.58D-04  0.76D-03  2  2     4.49
   3      1.30020245    -0.75750298  -210.76993152    -0.00037667    -0.00407623  0.27D-04  0.55D-04  3  3     6.38
   4      1.30276734    -0.75759971  -210.77002825    -0.00009674    -0.00100781  0.13D-05  0.65D-05  4  4     8.28
   5      1.30333472    -0.75760828  -210.77003682    -0.00000857    -0.00016823  0.16D-06  0.78D-06  5  5    10.18
   6      1.30345738    -0.75760272  -210.77003126     0.00000557    -0.00003126  0.97D-08  0.53D-07  6  6    12.09
   7      1.30347551    -0.75760511  -210.77003365    -0.00000240    -0.00000404  0.15D-08  0.48D-08  6  2    14.00
   8      1.30347695    -0.75760504  -210.77003358     0.00000008    -0.00000004  0.14D-09  0.42D-09  6  1    15.91
   9      1.30347731    -0.75760502  -210.77003356     0.00000002     0.00000023  0.16D-10  0.36D-10  6  3    17.81
  10      1.30347757    -0.75760503  -210.77003357    -0.00000001    -0.00000006  0.17D-11  0.33D-11  6  4    19.71
  11      1.30347719    -0.75760506  -210.77003360    -0.00000002     0.00000022  0.35D-12  0.34D-12  6  6    21.61
  12      1.30347712    -0.75760507  -210.77003360    -0.00000001     0.00000004  0.44D-13  0.27D-13  6  5    23.52
  13      1.30347709    -0.75760507  -210.77003361    -0.00000000     0.00000002  0.51D-14  0.45D-14  6  2    25.42
  14      1.30347708    -0.75760507  -210.77003361     0.00000000     0.00000000  0.15D-14  0.64D-15  6  1    27.33
  15      1.30347708    -0.75760507  -210.77003361     0.00000000    -0.00000000  0.98D-16  0.10D-15  6  4    29.23
  16      1.30347708    -0.75760507  -210.77003361     0.00000000    -0.00000000  0.15D-16  0.70D-17  6  3    31.14
  17      1.30347708    -0.75760507  -210.77003361     0.00000000    -0.00000000  0.32D-17  0.15D-17  6  6    33.04
  18      1.30347708    -0.75760507  -210.77003361    -0.00000000    -0.00000000  0.53D-18  0.25D-18  6  5    34.95
  19      1.30347708    -0.75760507  -210.77003361     0.00000000     0.00000000  0.59D-19  0.41D-19  6  2    36.84
  20      1.30347708    -0.75760507  -210.77003361     0.00000000    -0.00000000  0.63D-20  0.39D-20  6  4    38.74

 Norm of t1 vector:      0.07770510      S-energy:    -0.00000000      T1 diagnostic:  0.01038378
                                                                       D1 diagnostic:  0.02936015


 Total CPU time for triples:     24.71 sec


 RESULTS
 =======

  Reference energy                   -210.012428539312
  CCSD singlet pair energy             -0.527325852079
  CCSD triplet pair energy             -0.230279215439
  CCSD correlation energy              -0.757605067519

  Triples (T) contribution             -0.026790951119
  Total correlation energy             -0.784396018637

  CCSD total energy                  -210.770033606831
  CCSD[T] energy                     -210.797833922119
  CCSD-T energy                      -210.796354699161
 !CCSD(T) total energy               -210.796824557949

 Timing summary (sec):

 STEP                 CPU(USER)    SYS     CPU(TOT)    WALL
 Transformation          0.77      0.10      0.87      0.87
 CCSD iterations        37.97      1.03     39.00     39.10
 Triples                24.71      0.50     25.21     25.22

 Program statistics:

 Available memory in ccsd:               999999116
 Min. memory needed in ccsd:               1995783
 Max. memory used in ccsd:                 2628247
 Max. memory used in cckext:               2458865 (20 integral passes)



 **********************************************************************************************************************************
 DATASETS  * FILE   NREC   LENGTH (MB)   RECORD NAMES
              1      20      171.02       500      610      700      900      950      970     1000      129      960     1100   
                                          VAR    BASINP    GEOM    SYMINP    ZMAT    AOBASIS   BASIS     P2S    ABASIS      S 
                                         1400     1410     1200     1210     1080     1600     1650     1300     1700     1380   
                                           T        V       H0       H01     AOSYM     SMH    MOLCAS    ERIS     OPER     JKOP   

              2       3        0.68       700     1000     2100   
                                         GEOM     BASIS     RHF  

 PROGRAMS   *        TOTAL   CCSD(T)       RHF       INT
 CPU TIMES  *        67.77     63.46      2.43      1.84
 REAL TIME  *        70.28 SEC
 DISK USED  *       440.39 MB      
 GA USED    *         0.00 MB       (max)       0.00 MB       (current)
 **********************************************************************************************************************************

        CCSD(T)         RHF-SCF 
   -210.79682456   -210.01242854
 **********************************************************************************************************************************
 Variable memory released
