
 Primary working directories    : /tmp/1049102.1357.gen6.q
 Secondary working directories  : /tmp/1049102.1357.gen6.q
 Wavefunction directory         : /home/vulcan/mel64643/wfu/
 Main file repository           : /tmp/1049102.1357.gen6.q/

 ARCHNAME  : Linux/x86_64
 FC        : /opt/intel/compilers_and_libraries_2016.1.150/linux/bin/intel64/ifort
 FCVERSION : 16.0.1
 BLASLIB   : -mkl
 id        : ccgc

 Nodes     nprocs
 n074         1
 ga_uses_ma=false, calling ma_init with nominal heap.
 GA-space will be limited to   8.0 MW (determined by -G option)

 Using customized tuning parameters: mindgm=10; mindgv=16; mindgc=4; mindgr=1; noblas=0; mincuda=1000; minvec=7
 default implementation of scratch files=df  

 ***,Optimization of h2o_3
 memory,1000,m
 gthresh,energy=1.0d-12,orbital=1.0d-10,oneint=1.0d-16,twoint=1.0d-16,optgrad=1.0d-6,compress=1.0d-13
 geomtyp=xyz
 
 
 
 bohr
 geometry = {
  C    0.9154590080    1.4037985122   -2.2741213720
  C    0.7402987524    2.7077909599    0.0173033576
  C    0.9992104204    1.4045471414    2.3013705668
  C    1.4316841617   -1.2027411138    2.2940145987
  C    1.6075717981   -2.5062421973    0.0026318648
  C    1.3487186741   -1.2027747257   -2.2812312474
  H    0.7045759997    2.4200406707   -4.0397381116
  H    0.3896924425    4.7253778149    0.0272312086
  H    0.8575773868    2.4182815653    4.0755521114
  H    1.6286125739   -2.2057557011    4.0691972102
  H    1.9408232195   -4.5272712114    0.0010755155
  H    1.4819958875   -2.2099798590   -4.0600593161
  N   -5.4431748297   -0.3573951926   -0.0666942067
  H   -5.5819509540   -1.5651474354   -1.5510693887
  H   -6.0783310165   -1.3199213269    1.4666878702
  H   -3.5618316575   -0.0743974990    0.1979270157
 }
 
 basis=aug-cc-pvdz, H=cc-pvdz
 {rhf;maxit,200}
 {ccsd(t)}

 Variables initialized (661), CPU time= 0.00 sec
 Commands  initialized (458), CPU time= 0.00 sec, 486 directives.
 Default parameters read. Elapsed time= 0.04 sec

 Checking input...
 Passed
1


                                         ***  PROGRAM SYSTEM MOLPRO  ***
                         Copyright, University College Cardiff Consultants Limited, 2008

                                    Version 2010.1 linked May 16 2016 07:17:05


 **********************************************************************************************************************************
 LABEL *   Optimization of h2o_3                                                         
 Linux-4.4.3/n074(x86_64) 64 bit mpp version                                             DATE: 20-Mar-24          TIME: 23:49:22  
 **********************************************************************************************************************************

 SHA1:             9e8077add272b0f3cad6f7df79ec5211205f459d
 **********************************************************************************************************************************

 THRESHOLDS:

 ZERO    =  1.00D-12  ONEINT  =  1.00D-16  TWOINT  =  1.00D-16  PREFAC  =  1.00D-14  LOCALI  =  1.00D-09  EORDER  =  1.00D-04
 ENERGY  =  1.00D-12  ETEST   =  0.00D+00  EDENS   =  0.00D+00  THRDEDEF=  1.00D-06  GRADIENT=  1.00D-02  STEP    =  1.00D-03
 ORBITAL =  1.00D-10  CIVEC   =  1.00D-05  COEFF   =  1.00D-04  PRINTCI =  5.00D-02  PUNCHCI =  9.90D+01  OPTGRAD =  1.00D-06
 OPTENERG=  1.00D-06  OPTSTEP =  3.00D-04  THRGRAD =  1.00D-10  COMPRESS=  1.00D-13  VARMIN  =  1.00D-07  VARMAX  =  1.00D-03
 THRDOUB =  0.00D+00  THRDIV  =  1.00D-05  THRRED  =  1.00D-07  THRPSP  =  1.00D+00  THRDC   =  1.00D-10  THRCS   =  1.00D-10
 THRNRM  =  1.00D-08  THREQ   =  0.00D+00  THRDE   =  1.00D+00  THRREF  =  1.00D-05  SPARFAC =  1.00D+00  THRDLP  =  1.00D-07
 THRDIA  =  1.00D-10  THRDLS  =  1.00D-07  THRGPS  =  0.00D+00  THRKEX  =  0.00D+00  THRDIS  =  2.00D-01  THRVAR  =  1.00D-10
 THRLOC  =  1.00D-06  THRGAP  =  1.00D-06  THRLOCT = -1.00D+00  THRGAPT = -1.00D+00  THRORB  =  1.00D-06  THRMLTP =  0.00D+00
 THRCPQCI=  1.00D-10  KEXTA   =  0.00D+00  THRCOARS=  0.00D+00  SYMTOL  =  1.00D-06  GRADTOL =  1.00D-06  THROVL  =  1.00D-08
 THRORTH =  1.00D-08  GRID    =  1.00D-06  GRIDMAX =  1.00D-03  DTMAX   =  0.00D+00

 SETTING GEOMTYP        =    XYZ
 ZUNIT=BOHR
 

 Variable memory set to 1000000000 words,  buffer space   230000 words

 SETTING BASIS          =    AUG-CC-PVDZ,H=CC-PVDZ


 Recomputing integrals since basis changed


 Using spherical harmonics

 Library entry C      S aug-cc-pVDZ          selected for orbital group  1
 Library entry C      P aug-cc-pVDZ          selected for orbital group  1
 Library entry C      D aug-cc-pVDZ          selected for orbital group  1
 Library entry H      S cc-pVDZ              selected for orbital group  2
 Library entry H      P cc-pVDZ              selected for orbital group  2
 Library entry N      S aug-cc-pVDZ          selected for orbital group  3
 Library entry N      P aug-cc-pVDZ          selected for orbital group  3
 Library entry N      D aug-cc-pVDZ          selected for orbital group  3

1PROGRAM * SEWARD (Integral evaluation for generally contracted gaussian basis sets)     Author: Roland Lindh, 1990

 Geometry written to block  1 of record 700


 Point group  C1  



 ATOMIC COORDINATES

 NR  ATOM    CHARGE       X              Y              Z

   1  C       6.00    0.915459008    1.403798512   -2.274121372
   2  C       6.00    0.740298752    2.707790960    0.017303358
   3  C       6.00    0.999210420    1.404547141    2.301370567
   4  C       6.00    1.431684162   -1.202741114    2.294014599
   5  C       6.00    1.607571798   -2.506242197    0.002631865
   6  C       6.00    1.348718674   -1.202774726   -2.281231247
   7  H       1.00    0.704576000    2.420040671   -4.039738112
   8  H       1.00    0.389692443    4.725377815    0.027231209
   9  H       1.00    0.857577387    2.418281565    4.075552111
  10  H       1.00    1.628612574   -2.205755701    4.069197210
  11  H       1.00    1.940823219   -4.527271211    0.001075515
  12  H       1.00    1.481995888   -2.209979859   -4.060059316
  13  N       7.00   -5.443174830   -0.357395193   -0.066694207
  14  H       1.00   -5.581950954   -1.565147435   -1.551069389
  15  H       1.00   -6.078331016   -1.319921327    1.466687870
  16  H       1.00   -3.561831657   -0.074397499    0.197927016

 Bond lengths in Bohr (Angstrom)

 1-2  2.642291564  1-6  2.642345271  1-7  2.048077694  2-3  2.642431214  2-8  2.047847666
     ( 1.398240475)     ( 1.398268896)     ( 1.083796038)     ( 1.398314375)     ( 1.083674312)

  3- 4  2.642922567   3- 9  2.048276727   4- 5  2.642061008   4-10  2.048436566   5- 6  2.642359382
       ( 1.398574387)       ( 1.083901362)       ( 1.398118470)       ( 1.083985945)       ( 1.398276363)

  5-11  2.048320582   6-12  2.048524907  13-14  1.918669845  13-15  1.918629859  13-16  1.920823838
       ( 1.083924569)       ( 1.084032693)       ( 1.015316353)       ( 1.015295194)       ( 1.016456198)

 Bond angles

  1- 2- 3  119.98067261   1- 2- 8  120.11712793   1- 6- 5  120.02353238   1- 6-12  119.86918013

  2-1-6  120.00199115   2-1-7  119.72967412   2-3-4  120.01167879   2-3-9  119.85734454

  3- 2- 8  119.90052244   3- 4- 5  120.00136302   3- 4-10  119.75987467   4- 3- 9  120.13064495

  4- 5- 6  119.98073412   4- 5-11  119.88637840   5- 4-10  120.23875760   5- 6-12  120.10727296

  6- 1- 7  120.26759481   6- 5-11  120.13277348  14-13-15  106.17487634  14-13-16  105.67409303

 15-13-16  106.74139335

 NUCLEAR CHARGE:                   52
 NUMBER OF PRIMITIVE AOS:         322
 NUMBER OF SYMMETRY AOS:          308
 NUMBER OF CONTRACTIONS:          206   ( 206A   )
 NUMBER OF CORE ORBITALS:           7   (   7A   )
 NUMBER OF VALENCE ORBITALS:       37   (  37A   )


 NUCLEAR REPULSION ENERGY  273.70925638


 Eigenvalues of metric

         1 0.861E-05 0.184E-04 0.228E-04 0.532E-04 0.642E-04 0.644E-04 0.107E-03 0.107E-03


 Contracted 2-electron integrals neglected if value below      1.0D-16
 AO integral compression algorithm  1   Integral accuracy      1.0D-16

     1891.893 MB (compressed) written to integral file ( 94.5%)

     Node minimum: 1891.893 MB, node maximum: 1891.893 MB


 NUMBER OF SORTED TWO-ELECTRON INTEGRALS:  227303181.     BUFFER LENGTH:  32768
 NUMBER OF SEGMENTS:  15  SEGMENT LENGTH:   15999503      RECORD LENGTH: 524288

 Memory used in sort:      16.56 MW

 SORT1 READ   250230130. AND WROTE   226406521. INTEGRALS IN    654 RECORDS. CPU TIME:     2.16 SEC, REAL TIME:     3.83 SEC
 SORT2 READ   226406521. AND WROTE   227303181. INTEGRALS IN   7217 RECORDS. CPU TIME:     1.56 SEC, REAL TIME:     2.35 SEC

 FILE SIZES:   FILE 1:  1742.8 MBYTE,  FILE 4:  2743.1 MBYTE,   TOTAL:   4485.9 MBYTE

 OPERATOR DM      FOR CENTER  0  COORDINATES:    0.000000    0.000000    0.000000


 **********************************************************************************************************************************
 DATASETS  * FILE   NREC   LENGTH (MB)   RECORD NAMES
              1      19     1743.30       500      610      700      900      950      970     1000      129      960     1100   
                                          VAR    BASINP    GEOM    SYMINP    ZMAT    AOBASIS   BASIS     P2S    ABASIS      S 
                                         1400     1410     1200     1210     1080     1600     1650     1300     1700   
                                           T        V       H0       H01     AOSYM     SMH    MOLCAS    ERIS     OPER   

 PROGRAMS   *        TOTAL       INT
 CPU TIMES  *        12.65     12.61
 REAL TIME  *        16.17 SEC
 DISK USED  *         6.38 GB      
 GA USED    *         0.01 MB       (max)       0.00 MB       (current)
 **********************************************************************************************************************************

1PROGRAM * RHF-SCF (CLOSED SHELL)       Authors: W. Meyer, H.-J. Werner


 NUMBER OF ELECTRONS:      26+   26-    SPACE SYMMETRY=1    SPIN SYMMETRY: Singlet 
 CONVERGENCE THRESHOLDS:    1.00E-10 (Density)    1.00E-13 (Energy)
 MAX. NUMBER OF ITERATIONS:      200
 INTERPOLATION TYPE:            DIIS
 INTERPOLATION STEPS:              2 (START)      1 (STEP)
 LEVEL SHIFTS:                  0.00 (CLOSED)  0.00 (OPEN) 



 Orbital guess generated from atomic densities. Full valence occupancy:   44

 Molecular orbital dump at record        2100.2

 ITERATION    DDIFF          GRAD             ENERGY        2-EL.EN.            DIPOLE MOMENTS         DIIS
    1      0.000D+00      0.000D+00      -286.85323652    740.878986    0.51988   -0.76735    0.13305    0
    2      0.000D+00      0.322D-02      -286.92079148    735.090040    0.43520   -0.38210    0.06361    1
    3      0.826D-02      0.133D-02      -286.93011923    737.721177    0.45193   -0.52187    0.09147    2
    4      0.218D-02      0.381D-03      -286.93133731    737.201662    0.45043   -0.49456    0.08451    3
    5      0.783D-03      0.527D-04      -286.93136115    737.190307    0.45629   -0.50494    0.08814    4
    6      0.135D-03      0.177D-04      -286.93136360    737.205225    0.45513   -0.49931    0.08624    5
    7      0.512D-04      0.555D-05      -286.93136388    737.202171    0.45578   -0.50154    0.08693    6
    8      0.150D-04      0.129D-05      -286.93136390    737.201158    0.45594   -0.50119    0.08681    7
    9      0.417D-05      0.542D-06      -286.93136390    737.201616    0.45597   -0.50127    0.08683    7
   10      0.148D-05      0.143D-06      -286.93136390    737.201565    0.45597   -0.50128    0.08683    7
   11      0.517D-06      0.410D-07      -286.93136390    737.201551    0.45598   -0.50128    0.08683    7
   12      0.142D-06      0.174D-07      -286.93136390    737.201564    0.45598   -0.50128    0.08683    8
   13      0.611D-07      0.761D-08      -286.93136390    737.201559    0.45598   -0.50128    0.08683    8
   14      0.338D-07      0.363D-08      -286.93136390    737.201561    0.45598   -0.50128    0.08683    8
   15      0.202D-07      0.138D-08      -286.93136390    737.201561    0.45598   -0.50128    0.08683    8
   16      0.715D-08      0.456D-09      -286.93136390    737.201561    0.45598   -0.50128    0.08683    9
   17      0.212D-08      0.125D-09      -286.93136390    737.201561    0.45598   -0.50128    0.08683    9
   18      0.429D-09      0.381D-10      -286.93136390    737.201561    0.45598   -0.50128    0.08683    8
   19      0.257D-09      0.152D-10      -286.93136390    737.201561    0.45598   -0.50128    0.08683    9
   20      0.242D-09      0.808D-11      -286.93136390    737.201561    0.45598   -0.50128    0.08683    9
   21      0.130D-09      0.410D-11      -286.93136390    737.201561    0.45598   -0.50128    0.08683    9
   22      0.194D-09      0.125D-11      -286.93136390    737.201561    0.45598   -0.50128    0.08683    9
   23      0.117D-09      0.750D-12      -286.93136390    737.201561    0.45598   -0.50128    0.08683    9
   24      0.741D-10      0.690D-12      -286.93136390    737.201561    0.45598   -0.50128    0.08683    9
   25      0.622D-10      0.582D-12      -286.93136390    737.201561    0.45598   -0.50128    0.08683    9
   26      0.585D-10      0.575D-12      -286.93136390    737.201561    0.45598   -0.50128    0.08683    9
   27      0.246D-10      0.471D-12      -286.93136390    737.201561    0.45598   -0.50128    0.08683    9
   28      0.344D-10      0.534D-12      -286.93136390    737.201561    0.45598   -0.50128    0.08683    0

 Final occupancy:  26

 !RHF STATE 1.1 Energy               -286.931363902342
 Nuclear energy                       273.70925638
 One-electron energy                 -929.24140061
 Two-electron energy                  368.60078033
 Virial quotient                       -1.00146528
 !RHF STATE 1.1 Dipole moment           0.45598016    -0.50128016     0.08683304
 Dipole moment /Debye                   1.15891005    -1.27404363     0.22069312

 Orbital energies:

         1.1          2.1          3.1          4.1          5.1          6.1          7.1          8.1          9.1         10.1
    -15.535000   -11.250712   -11.250074   -11.249648   -11.248850   -11.248653   -11.247756    -1.157515    -1.125560    -1.022067

        11.1         12.1         13.1         14.1         15.1         16.1         17.1         18.1         19.1         20.1
     -1.021963    -0.830647    -0.830551    -0.714514    -0.650460    -0.623937    -0.612451    -0.609022    -0.593590    -0.593467

        21.1         22.1         23.1         24.1         25.1         26.1         27.1         28.1
     -0.504926    -0.500105    -0.500033    -0.413432    -0.342986    -0.342003     0.063903     0.066423


 **********************************************************************************************************************************
 DATASETS  * FILE   NREC   LENGTH (MB)   RECORD NAMES
              1      19     1743.30       500      610      700      900      950      970     1000      129      960     1100   
                                          VAR    BASINP    GEOM    SYMINP    ZMAT    AOBASIS   BASIS     P2S    ABASIS      S 
                                         1400     1410     1200     1210     1080     1600     1650     1300     1700   
                                           T        V       H0       H01     AOSYM     SMH    MOLCAS    ERIS     OPER   

              2       3        1.40       700     1000     2100   
                                         GEOM     BASIS     RHF  

 PROGRAMS   *        TOTAL       RHF       INT
 CPU TIMES  *        54.71     42.06     12.61
 REAL TIME  *        62.74 SEC
 DISK USED  *         6.38 GB      
 GA USED    *         0.01 MB       (max)       0.00 MB       (current)
 **********************************************************************************************************************************


1PROGRAM * CCSD (Closed-shell coupled cluster)     Authors: C. Hampel, H.-J. Werner, 1991, M. Deegan, P.J. Knowles, 1992


 Convergence thresholds:  THRVAR = 1.00D-08  THRDEN = 1.00D-12

 CCSD(T)     terms to be evaluated (factor= 1.000)


 Number of core orbitals:           7 (   7 )
 Number of closed-shell orbitals:  19 (  19 )
 Number of external orbitals:     180 ( 180 )

 Molecular orbitals read from record     2100.2  Type=RHF/CANONICAL (state 1.1)

 Number of N-1 electron functions:              19
 Number of N-2 electron functions:             190
 Number of singly external CSFs:              3420
 Number of doubly external CSFs:           5849910
 Total number of CSFs:                     5853331

 Length of J-op  integral file:               0.00 MB
 Length of K-op  integral file:               2.96 MB
 Length of 3-ext integral record:             0.00 MB

 Memory could be reduced to 140.12 Mwords without degradation in triples

 Integral transformation finished. Total CPU:  10.51 sec, npass=  1  Memory used: 101.90 MW

 Reference energy:                   -286.93136390

 MP2 singlet pair energy:              -0.62063154
 MP2 triplet pair energy:              -0.38983436
 MP2 correlation energy:               -1.01046590
 MP2 total energy:                   -287.94182980

 SCS-MP2 correlation energy:           -0.98732145   (PS=  1.200000  PT=  0.333333)
 SCS-MP2 total energy:               -287.91868535

 ITER.      SQ.NORM     CORR.ENERGY   TOTAL ENERGY   ENERGY CHANGE        DEN1      VAR(S)    VAR(P)  DIIS     TIME
   1      1.38488208    -1.05475788  -287.98612178    -0.04429198    -0.01721350  0.36D-02  0.80D-02  1  1    43.59
   2      1.41439523    -1.06062052  -287.99198443    -0.00586265    -0.02705328  0.63D-04  0.10D-02  2  2    77.01
   3      1.42352601    -1.06071619  -287.99208009    -0.00009566    -0.00464317  0.27D-04  0.84D-04  3  3   110.47
   4      1.42746272    -1.06088495  -287.99224885    -0.00016876    -0.00121387  0.22D-05  0.11D-04  4  4   143.99
   5      1.42867610    -1.06091590  -287.99227980    -0.00003095    -0.00027315  0.27D-06  0.13D-05  5  5   177.46
   6      1.42897889    -1.06090566  -287.99226957     0.00001024    -0.00004354  0.23D-07  0.79D-07  6  6   210.99
   7      1.42901969    -1.06090729  -287.99227120    -0.00000163    -0.00000105  0.35D-08  0.82D-08  6  2   244.51
   8      1.42902888    -1.06090715  -287.99227105     0.00000014    -0.00000118  0.76D-09  0.76D-09  6  1   278.03
   9      1.42902871    -1.06090728  -287.99227119    -0.00000013     0.00000123  0.21D-09  0.92D-10  6  4   311.58
  10      1.42902991    -1.06090730  -287.99227120    -0.00000001    -0.00000018  0.57D-10  0.15D-10  6  3   345.09
  11      1.42902985    -1.06090731  -287.99227121    -0.00000002     0.00000013  0.14D-10  0.37D-11  6  5   378.61
  12      1.42902981    -1.06090732  -287.99227122    -0.00000000     0.00000003  0.15D-11  0.10D-11  6  6   412.14
  13      1.42902963    -1.06090732  -287.99227122    -0.00000000     0.00000006  0.69D-13  0.20D-12  6  2   445.66
  14      1.42902953    -1.06090732  -287.99227122    -0.00000000     0.00000002  0.81D-14  0.40D-13  6  1   479.18
  15      1.42902947    -1.06090732  -287.99227122    -0.00000000     0.00000001  0.89D-15  0.54D-14  6  3   512.71
  16      1.42902945    -1.06090732  -287.99227122    -0.00000000     0.00000000  0.12D-15  0.37D-15  6  4   546.23
  17      1.42902945    -1.06090732  -287.99227122    -0.00000000     0.00000000  0.31D-16  0.44D-16  6  5   579.76
  18      1.42902945    -1.06090732  -287.99227122    -0.00000000     0.00000000  0.81D-17  0.70D-17  6  6   613.30
  19      1.42902945    -1.06090732  -287.99227122    -0.00000000     0.00000000  0.23D-17  0.76D-18  6  2   646.81
  20      1.42902945    -1.06090732  -287.99227122    -0.00000000     0.00000000  0.75D-18  0.18D-18  6  1   680.32
  21      1.42902945    -1.06090732  -287.99227122    -0.00000000     0.00000000  0.30D-18  0.78D-19  6  3   713.80
  22      1.42902945    -1.06090732  -287.99227122    -0.00000000     0.00000000  0.12D-18  0.36D-19  6  4   747.31
  23      1.42902945    -1.06090732  -287.99227122    -0.00000000     0.00000000  0.51D-19  0.21D-19  6  6   780.80

 Norm of t1 vector:      0.08385623      S-energy:    -0.00000000      T1 diagnostic:  0.00961897
                                                                       D1 diagnostic:  0.02619490

 Doubles amplitudes (print threshold =  0.500E-01):

         I         J         SYM. A    SYM. B    A         B      T(IJ, AB)

        18        18         1         1         6         6     -0.05112439
        19        19         1         1         7         7     -0.05455020


 Total CPU time for triples:    679.24 sec


 RESULTS
 =======

  Reference energy                   -286.931363902343
  CCSD singlet pair energy             -0.711155455717
  CCSD triplet pair energy             -0.349751864500
  CCSD correlation energy              -1.060907320217

  Triples (T) contribution             -0.045602706756
  Total correlation energy             -1.106510026973

  CCSD total energy                  -287.992271222560
  CCSD[T] energy                     -288.038744125683
  CCSD-T energy                      -288.037485396276
 !CCSD(T) total energy               -288.037873929315

 Timing summary (sec):

 STEP                 CPU(USER)    SYS     CPU(TOT)    WALL
 Transformation         10.85      0.80     11.65     11.64
 CCSD iterations       769.96     11.40    781.36    784.63
 Triples               679.24     10.67    689.91    689.99

 Program statistics:

 Available memory in ccsd:               999998456
 Min. memory needed in ccsd:              14392275
 Max. memory used in ccsd:                19775697
 Max. memory used in cckext:              16737545 (23 integral passes)



 **********************************************************************************************************************************
 DATASETS  * FILE   NREC   LENGTH (MB)   RECORD NAMES
              1      20     2286.90       500      610      700      900      950      970     1000      129      960     1100   
                                          VAR    BASINP    GEOM    SYMINP    ZMAT    AOBASIS   BASIS     P2S    ABASIS      S 
                                         1400     1410     1200     1210     1080     1600     1650     1300     1700     1380   
                                           T        V       H0       H01     AOSYM     SMH    MOLCAS    ERIS     OPER     JKOP   

              2       3        1.40       700     1000     2100   
                                         GEOM     BASIS     RHF  

 PROGRAMS   *        TOTAL   CCSD(T)       RHF       INT
 CPU TIMES  *      1514.78   1460.07     42.06     12.61
 REAL TIME  *      1549.11 SEC
 DISK USED  *         6.38 GB      
 GA USED    *         0.01 MB       (max)       0.00 MB       (current)
 **********************************************************************************************************************************

        CCSD(T)         RHF-SCF 
   -288.03787393   -286.93136390
 **********************************************************************************************************************************
 Variable memory released
