
 Primary working directories    : /tmp/1085792.75.gen5.q
 Secondary working directories  : /tmp/1085792.75.gen5.q
 Wavefunction directory         : /home/vulcan/mel64643/wfu/
 Main file repository           : /tmp/1085792.75.gen5.q/

 ARCHNAME  : Linux/x86_64
 FC        : /opt/intel/compilers_and_libraries_2016.1.150/linux/bin/intel64/ifort
 FCVERSION : 16.0.1
 BLASLIB   : -mkl
 id        : ccgc

 Nodes     nprocs
 n072         1
 ga_uses_ma=false, calling ma_init with nominal heap.
 GA-space will be limited to   8.0 MW (determined by -G option)

 Using customized tuning parameters: mindgm=10; mindgv=16; mindgc=4; mindgr=1; noblas=0; mincuda=1000; minvec=7
 default implementation of scratch files=df  

 ***,Optimization of h2o_2
 memory,1000,m
 gthresh,energy=1.0d-12,orbital=1.0d-10,oneint=1.0d-16,twoint=1.0d-16,optgrad=1.0d-6,compress=1.0d-13
 geomtyp=xyz
 
 
 
 bohr
 geometry = {
  O   -2.8141858637   -0.2114038065    0.0018761600
  H   -3.5490859048    1.4488204683   -0.0046056852
  H   -1.0127769022    0.1035652011    0.0000725498
  O    2.6765756771    0.1987520736   -0.0014024902
  H    3.3249912237   -0.6963566321   -1.4367813004
  H    3.3394697778   -0.7034235504    1.4408407661
 }
 
 basis=aug-cc-pvdz, H=cc-pvdz
 {rhf;maxit,200}
 {ccsd(t);maxit,200}

 Variables initialized (661), CPU time= 0.00 sec
 Commands  initialized (458), CPU time= 0.01 sec, 486 directives.
 Default parameters read. Elapsed time= 0.04 sec

 Checking input...
 Passed
1


                                         ***  PROGRAM SYSTEM MOLPRO  ***
                         Copyright, University College Cardiff Consultants Limited, 2008

                                    Version 2010.1 linked May 16 2016 07:17:05


 **********************************************************************************************************************************
 LABEL *   Optimization of h2o_2                                                         
 Linux-4.4.3/n072(x86_64) 64 bit mpp version                                             DATE: 11-Jun-24          TIME: 16:05:35  
 **********************************************************************************************************************************

 SHA1:             9e8077add272b0f3cad6f7df79ec5211205f459d
 **********************************************************************************************************************************

 THRESHOLDS:

 ZERO    =  1.00D-12  ONEINT  =  1.00D-16  TWOINT  =  1.00D-16  PREFAC  =  1.00D-14  LOCALI  =  1.00D-09  EORDER  =  1.00D-04
 ENERGY  =  1.00D-12  ETEST   =  0.00D+00  EDENS   =  0.00D+00  THRDEDEF=  1.00D-06  GRADIENT=  1.00D-02  STEP    =  1.00D-03
 ORBITAL =  1.00D-10  CIVEC   =  1.00D-05  COEFF   =  1.00D-04  PRINTCI =  5.00D-02  PUNCHCI =  9.90D+01  OPTGRAD =  1.00D-06
 OPTENERG=  1.00D-06  OPTSTEP =  3.00D-04  THRGRAD =  1.00D-10  COMPRESS=  1.00D-13  VARMIN  =  1.00D-07  VARMAX  =  1.00D-03
 THRDOUB =  0.00D+00  THRDIV  =  1.00D-05  THRRED  =  1.00D-07  THRPSP  =  1.00D+00  THRDC   =  1.00D-10  THRCS   =  1.00D-10
 THRNRM  =  1.00D-08  THREQ   =  0.00D+00  THRDE   =  1.00D+00  THRREF  =  1.00D-05  SPARFAC =  1.00D+00  THRDLP  =  1.00D-07
 THRDIA  =  1.00D-10  THRDLS  =  1.00D-07  THRGPS  =  0.00D+00  THRKEX  =  0.00D+00  THRDIS  =  2.00D-01  THRVAR  =  1.00D-10
 THRLOC  =  1.00D-06  THRGAP  =  1.00D-06  THRLOCT = -1.00D+00  THRGAPT = -1.00D+00  THRORB  =  1.00D-06  THRMLTP =  0.00D+00
 THRCPQCI=  1.00D-10  KEXTA   =  0.00D+00  THRCOARS=  0.00D+00  SYMTOL  =  1.00D-06  GRADTOL =  1.00D-06  THROVL  =  1.00D-08
 THRORTH =  1.00D-08  GRID    =  1.00D-06  GRIDMAX =  1.00D-03  DTMAX   =  0.00D+00

 SETTING GEOMTYP        =    XYZ
 ZUNIT=BOHR
 

 Variable memory set to 1000000000 words,  buffer space   230000 words

 SETTING BASIS          =    AUG-CC-PVDZ,H=CC-PVDZ


 Recomputing integrals since basis changed


 Using spherical harmonics

 Library entry O      S aug-cc-pVDZ          selected for orbital group  1
 Library entry O      P aug-cc-pVDZ          selected for orbital group  1
 Library entry O      D aug-cc-pVDZ          selected for orbital group  1
 Library entry H      S cc-pVDZ              selected for orbital group  2
 Library entry H      P cc-pVDZ              selected for orbital group  2

1PROGRAM * SEWARD (Integral evaluation for generally contracted gaussian basis sets)     Author: Roland Lindh, 1990

 Geometry written to block  1 of record 700


 Point group  C1  



 ATOMIC COORDINATES

 NR  ATOM    CHARGE       X              Y              Z

   1  O       8.00   -2.814185864   -0.211403807    0.001876160
   2  H       1.00   -3.549085905    1.448820468   -0.004605685
   3  H       1.00   -1.012776902    0.103565201    0.000072550
   4  O       8.00    2.676575677    0.198752074   -0.001402490
   5  H       1.00    3.324991224   -0.696356632   -1.436781300
   6  H       1.00    3.339469778   -0.703423550    1.440840766

 Bond lengths in Bohr (Angstrom)

 1-2  1.815616900  1-3  1.828738083  4-5  1.811622103  4-6  1.825764239
     ( 0.960783084)     ( 0.967726515)     ( 0.958669128)     ( 0.966152824)

 Bond angles

  2-1-3  103.95864266   5-4-6  104.58292361

 NUCLEAR CHARGE:                   20
 NUMBER OF PRIMITIVE AOS:         102
 NUMBER OF SYMMETRY AOS:           98
 NUMBER OF CONTRACTIONS:           66   (  66A   )
 NUMBER OF CORE ORBITALS:           2   (   2A   )
 NUMBER OF VALENCE ORBITALS:       12   (  12A   )


 NUCLEAR REPULSION ENERGY   36.55490677


 Eigenvalues of metric

         1 0.610E-02 0.780E-02 0.120E-01 0.129E-01 0.165E-01 0.166E-01 0.209E-01 0.284E-01


 Contracted 2-electron integrals neglected if value below      1.0D-16
 AO integral compression algorithm  1   Integral accuracy      1.0D-16

     22.020 MB (compressed) written to integral file ( 88.4%)

     Node minimum: 22.020 MB, node maximum: 22.020 MB


 NUMBER OF SORTED TWO-ELECTRON INTEGRALS:    2445366.     BUFFER LENGTH:  32768
 NUMBER OF SEGMENTS:   1  SEGMENT LENGTH:    2445366      RECORD LENGTH: 524288

 Memory used in sort:       3.00 MW

 SORT1 READ     3139200. AND WROTE     2377501. INTEGRALS IN      7 RECORDS. CPU TIME:     0.03 SEC, REAL TIME:     0.04 SEC
 SORT2 READ     2377501. AND WROTE     2445366. INTEGRALS IN     84 RECORDS. CPU TIME:     0.04 SEC, REAL TIME:     0.05 SEC

 FILE SIZES:   FILE 1:    20.3 MBYTE,  FILE 4:    29.4 MBYTE,   TOTAL:     49.6 MBYTE

 OPERATOR DM      FOR CENTER  0  COORDINATES:    0.000000    0.000000    0.000000


 **********************************************************************************************************************************
 DATASETS  * FILE   NREC   LENGTH (MB)   RECORD NAMES
              1      19       20.31       500      610      700      900      950      970     1000      129      960     1100   
                                          VAR    BASINP    GEOM    SYMINP    ZMAT    AOBASIS   BASIS     P2S    ABASIS      S 
                                         1400     1410     1200     1210     1080     1600     1650     1300     1700   
                                           T        V       H0       H01     AOSYM     SMH    MOLCAS    ERIS     OPER   

 PROGRAMS   *        TOTAL       INT
 CPU TIMES  *         0.35      0.31
 REAL TIME  *         0.62 SEC
 DISK USED  *        72.30 MB      
 GA USED    *         0.00 MB       (max)       0.00 MB       (current)
 **********************************************************************************************************************************

1PROGRAM * RHF-SCF (CLOSED SHELL)       Authors: W. Meyer, H.-J. Werner


 NUMBER OF ELECTRONS:      10+   10-    SPACE SYMMETRY=1    SPIN SYMMETRY: Singlet 
 CONVERGENCE THRESHOLDS:    1.00E-10 (Density)    1.00E-13 (Energy)
 MAX. NUMBER OF ITERATIONS:      200
 INTERPOLATION TYPE:            DIIS
 INTERPOLATION STEPS:              2 (START)      1 (STEP)
 LEVEL SHIFTS:                  0.00 (CLOSED)  0.00 (OPEN) 



 Orbital guess generated from atomic densities. Full valence occupancy:   14

 Molecular orbital dump at record        2100.2

 ITERATION    DDIFF          GRAD             ENERGY        2-EL.EN.            DIPOLE MOMENTS         DIIS
    1      0.000D+00      0.000D+00      -152.02046562    191.282446    1.38009    0.09835    0.00157    0
    2      0.000D+00      0.119D-01      -152.07001467    184.813599    1.03098    0.03398   -0.00088    1
    3      0.225D-01      0.667D-02      -152.08686233    187.593042    1.09110    0.06041   -0.00086    2
    4      0.768D-02      0.748D-03      -152.08725355    187.371291    1.07734    0.05817   -0.00128    3
    5      0.126D-02      0.180D-03      -152.08728324    187.392332    1.07338    0.05923   -0.00143    4
    6      0.358D-03      0.376D-04      -152.08728474    187.395024    1.07259    0.05862   -0.00147    5
    7      0.871D-04      0.170D-04      -152.08728491    187.394108    1.07236    0.05896   -0.00148    6
    8      0.243D-04      0.359D-05      -152.08728493    187.394074    1.07224    0.05891   -0.00149    7
    9      0.948D-05      0.520D-06      -152.08728493    187.394080    1.07222    0.05892   -0.00149    6
   10      0.123D-05      0.986D-07      -152.08728493    187.394078    1.07222    0.05892   -0.00149    6
   11      0.235D-06      0.255D-07      -152.08728493    187.394081    1.07222    0.05892   -0.00149    6
   12      0.535D-07      0.736D-08      -152.08728493    187.394079    1.07222    0.05892   -0.00149    6
   13      0.186D-07      0.221D-08      -152.08728493    187.394080    1.07222    0.05892   -0.00149    6
   14      0.417D-08      0.769D-09      -152.08728493    187.394080    1.07222    0.05892   -0.00149    7
   15      0.142D-08      0.213D-09      -152.08728493    187.394080    1.07222    0.05892   -0.00149    7
   16      0.395D-09      0.111D-09      -152.08728493    187.394080    1.07222    0.05892   -0.00149    8
   17      0.186D-09      0.157D-10      -152.08728493    187.394080    1.07222    0.05892   -0.00149    8
   18      0.329D-10      0.620D-11      -152.08728493    187.394080    1.07222    0.05892   -0.00149    7
   19      0.179D-10      0.955D-12      -152.08728493    187.394080    1.07222    0.05892   -0.00149    0

 Final occupancy:  10

 !RHF STATE 1.1 Energy               -152.087284933218
 Nuclear energy                        36.55490677
 One-electron energy                 -282.33923178
 Two-electron energy                   93.69704007
 Virial quotient                       -1.00166306
 !RHF STATE 1.1 Dipole moment           1.07222293     0.05891834    -0.00148851
 Dipole moment /Debye                   2.72514034     0.14974566    -0.00378318

 Orbital energies:

         1.1          2.1          3.1          4.1          5.1          6.1          7.1          8.1          9.1         10.1
    -20.602735   -20.546235    -1.381260    -1.323805    -0.741678    -0.692869    -0.614241    -0.559825    -0.529960    -0.479968

        11.1         12.1
      0.112410     0.152799


 **********************************************************************************************************************************
 DATASETS  * FILE   NREC   LENGTH (MB)   RECORD NAMES
              1      19       20.31       500      610      700      900      950      970     1000      129      960     1100   
                                          VAR    BASINP    GEOM    SYMINP    ZMAT    AOBASIS   BASIS     P2S    ABASIS      S 
                                         1400     1410     1200     1210     1080     1600     1650     1300     1700   
                                           T        V       H0       H01     AOSYM     SMH    MOLCAS    ERIS     OPER   

              2       3        0.44       700     1000     2100   
                                         GEOM     BASIS     RHF  

 PROGRAMS   *        TOTAL       RHF       INT
 CPU TIMES  *         0.70      0.35      0.31
 REAL TIME  *         1.03 SEC
 DISK USED  *        72.30 MB      
 GA USED    *         0.00 MB       (max)       0.00 MB       (current)
 **********************************************************************************************************************************


1PROGRAM * CCSD (Closed-shell coupled cluster)     Authors: C. Hampel, H.-J. Werner, 1991, M. Deegan, P.J. Knowles, 1992


 Convergence thresholds:  THRVAR = 1.00D-08  THRDEN = 1.00D-12

 CCSD(T)     terms to be evaluated (factor= 1.000)


 Number of core orbitals:           2 (   2 )
 Number of closed-shell orbitals:   8 (   8 )
 Number of external orbitals:      56 (  56 )

 Molecular orbitals read from record     2100.2  Type=RHF/CANONICAL (state 1.1)

 Number of N-1 electron functions:               8
 Number of N-2 electron functions:              36
 Number of singly external CSFs:               448
 Number of doubly external CSFs:            100576
 Total number of CSFs:                      101025

 Length of J-op  integral file:               0.00 MB
 Length of K-op  integral file:               0.33 MB
 Length of 3-ext integral record:             0.00 MB

 Memory could be reduced to 2.44 Mwords without degradation in triples

 Integral transformation finished. Total CPU:   0.06 sec, npass=  1  Memory used:   1.72 MW

 Reference energy:                   -152.08728493

 MP2 singlet pair energy:              -0.27020569
 MP2 triplet pair energy:              -0.16863104
 MP2 correlation energy:               -0.43883673
 MP2 total energy:                   -152.52612166

 SCS-MP2 correlation energy:           -0.42917281   (PS=  1.200000  PT=  0.333333)
 SCS-MP2 total energy:               -152.51645774

 ITER.      SQ.NORM     CORR.ENERGY   TOTAL ENERGY   ENERGY CHANGE        DEN1      VAR(S)    VAR(P)  DIIS     TIME
   1      1.12067002    -0.45250567  -152.53979060    -0.01366894    -0.00443647  0.23D-02  0.17D-02  1  1     0.19
   2      1.12875220    -0.45384170  -152.54112663    -0.00133603    -0.00869195  0.16D-04  0.26D-03  2  2     0.32
   3      1.13155561    -0.45409546  -152.54138040    -0.00025377    -0.00159044  0.34D-04  0.92D-05  3  3     0.46
   4      1.13243884    -0.45403659  -152.54132153     0.00005887    -0.00038445  0.14D-05  0.87D-06  4  4     0.60
   5      1.13267258    -0.45402487  -152.54130980     0.00001173    -0.00007223  0.19D-06  0.54D-07  5  5     0.73
   6      1.13271970    -0.45402125  -152.54130619     0.00000361    -0.00000658  0.18D-07  0.50D-08  6  6     0.87
   7      1.13273120    -0.45401986  -152.54130479     0.00000139    -0.00000108  0.13D-08  0.90D-09  6  2     1.00
   8      1.13273306    -0.45401995  -152.54130488    -0.00000009     0.00000038  0.23D-09  0.85D-10  6  3     1.14
   9      1.13273437    -0.45401981  -152.54130474     0.00000014    -0.00000025  0.12D-10  0.70D-11  6  1     1.28
  10      1.13273460    -0.45401977  -152.54130471     0.00000003    -0.00000005  0.22D-11  0.73D-12  6  4     1.41
  11      1.13273457    -0.45401978  -152.54130472    -0.00000001     0.00000004  0.36D-12  0.13D-12  6  5     1.55
  12      1.13273453    -0.45401978  -152.54130472    -0.00000000     0.00000002  0.69D-13  0.15D-13  6  6     1.69
  13      1.13273450    -0.45401979  -152.54130472    -0.00000000     0.00000001  0.79D-14  0.28D-14  6  3     1.82
  14      1.13273450    -0.45401979  -152.54130472    -0.00000000     0.00000000  0.14D-14  0.37D-15  6  2     1.96
  15      1.13273450    -0.45401979  -152.54130472     0.00000000    -0.00000000  0.28D-15  0.60D-16  6  1     2.09
  16      1.13273450    -0.45401979  -152.54130472    -0.00000000    -0.00000000  0.40D-16  0.13D-16  6  4     2.23
  17      1.13273450    -0.45401979  -152.54130472     0.00000000    -0.00000000  0.33D-17  0.17D-17  6  5     2.37
  18      1.13273450    -0.45401979  -152.54130472    -0.00000000     0.00000000  0.38D-18  0.18D-18  6  6     2.51
  19      1.13273450    -0.45401979  -152.54130472     0.00000000    -0.00000000  0.64D-19  0.31D-19  6  2     2.64
  20      1.13273450    -0.45401979  -152.54130472    -0.00000000     0.00000000  0.94D-20  0.34D-20  6  3     2.77

 Norm of t1 vector:      0.06788753      S-energy:    -0.00000000      T1 diagnostic:  0.01200093
                                                                       D1 diagnostic:  0.02671056


 Total CPU time for triples:      1.00 sec


 RESULTS
 =======

  Reference energy                   -152.087284933218
  CCSD singlet pair energy             -0.304565138735
  CCSD triplet pair energy             -0.149454649002
  CCSD correlation energy              -0.454019787737

  Triples (T) contribution             -0.010272196321
  Total correlation energy             -0.464291984058

  CCSD total energy                  -152.541304720955
  CCSD[T] energy                     -152.552303621669
  CCSD-T energy                      -152.551291237621
 !CCSD(T) total energy               -152.551576917276

 Timing summary (sec):

 STEP                 CPU(USER)    SYS     CPU(TOT)    WALL
 Transformation          0.07      0.01      0.08      0.09
 CCSD iterations         2.70      0.15      2.85      2.86
 Triples                 1.00      0.02      1.02      1.02

 Program statistics:

 Available memory in ccsd:               999999644
 Min. memory needed in ccsd:                333849
 Max. memory used in ccsd:                  413833
 Max. memory used in cckext:                383006 (20 integral passes)



 **********************************************************************************************************************************
 DATASETS  * FILE   NREC   LENGTH (MB)   RECORD NAMES
              1      20       28.01       500      610      700      900      950      970     1000      129      960     1100   
                                          VAR    BASINP    GEOM    SYMINP    ZMAT    AOBASIS   BASIS     P2S    ABASIS      S 
                                         1400     1410     1200     1210     1080     1600     1650     1300     1700     1380   
                                           T        V       H0       H01     AOSYM     SMH    MOLCAS    ERIS     OPER     JKOP   

              2       3        0.44       700     1000     2100   
                                         GEOM     BASIS     RHF  

 PROGRAMS   *        TOTAL   CCSD(T)       RHF       INT
 CPU TIMES  *         4.49      3.79      0.35      0.31
 REAL TIME  *         5.03 SEC
 DISK USED  *        72.30 MB      
 GA USED    *         0.00 MB       (max)       0.00 MB       (current)
 **********************************************************************************************************************************

        CCSD(T)         RHF-SCF 
   -152.55157692   -152.08728493
 **********************************************************************************************************************************
 Variable memory released
