
 Primary working directories    : /tmp/870712.128.gen4.q
 Secondary working directories  : /tmp/870712.128.gen4.q
 Wavefunction directory         : /home/vulcan/lo21740/wfu/
 Main file repository           : /tmp/870712.128.gen4.q/

 ARCHNAME  : Linux/x86_64
 FC        : /opt/intel/compilers_and_libraries_2016.1.150/linux/bin/intel64/ifort
 FCVERSION : 16.0.1
 BLASLIB   : -mkl
 id        : ccgc

 Nodes     nprocs
 n066         1
 ga_uses_ma=false, calling ma_init with nominal heap.
 GA-space will be limited to   8.0 MW (determined by -G option)

 Using customized tuning parameters: mindgm=10; mindgv=16; mindgc=4; mindgr=1; noblas=0; mincuda=1000; minvec=7
 default implementation of scratch files=df  

 ***,Optimization of formic acid
 memory,1000,m
 gthresh,energy=1.0d-12,orbital=1.0d-10,oneint=1.0d-16,twoint=1.0d-16,optgrad=1.0d-6,compress=1.0d-13
 geomtyp=xyz
 
 bohr
 geometry = {
  C   -3.5008746478   -0.8295524222    0.0017026778
  O   -3.0923666902    1.6253176326   -0.0006277715
  O   -1.8879870940   -2.4779254061   -0.0008272602
  H   -5.5184964800   -1.2794551436   -0.0004266009
  H   -1.2389667857    1.9543923487   -0.0000832302
  C    3.5008746478    0.8295524222   -0.0017026778
  O    3.0923666902   -1.6253176326    0.0006277715
  O    1.8879870940    2.4779254061    0.0008272602
  H    5.5184964800    1.2794551436    0.0004266009
  H    1.2389667857   -1.9543923487    0.0000832302
 }
 
 basis=AVTZ
 {rhf;maxit,200}
 {mp2}

 Variables initialized (661), CPU time= 0.01 sec
 Commands  initialized (458), CPU time= 0.00 sec, 486 directives.
 Default parameters read. Elapsed time= 0.06 sec

 Checking input...
 Passed
1


                                         ***  PROGRAM SYSTEM MOLPRO  ***
                         Copyright, University College Cardiff Consultants Limited, 2008

                                    Version 2010.1 linked May 16 2016 07:17:05


 **********************************************************************************************************************************
 LABEL *   Optimization of formic acid                                                   
 Linux-4.4.3/n066(x86_64) 64 bit mpp version                                             DATE: 12-May-23          TIME: 18:09:54  
 **********************************************************************************************************************************

 SHA1:             9e8077add272b0f3cad6f7df79ec5211205f459d
 **********************************************************************************************************************************

 THRESHOLDS:

 ZERO    =  1.00D-12  ONEINT  =  1.00D-16  TWOINT  =  1.00D-16  PREFAC  =  1.00D-14  LOCALI  =  1.00D-09  EORDER  =  1.00D-04
 ENERGY  =  1.00D-12  ETEST   =  0.00D+00  EDENS   =  0.00D+00  THRDEDEF=  1.00D-06  GRADIENT=  1.00D-02  STEP    =  1.00D-03
 ORBITAL =  1.00D-10  CIVEC   =  1.00D-05  COEFF   =  1.00D-04  PRINTCI =  5.00D-02  PUNCHCI =  9.90D+01  OPTGRAD =  1.00D-06
 OPTENERG=  1.00D-06  OPTSTEP =  3.00D-04  THRGRAD =  1.00D-10  COMPRESS=  1.00D-13  VARMIN  =  1.00D-07  VARMAX  =  1.00D-03
 THRDOUB =  0.00D+00  THRDIV  =  1.00D-05  THRRED  =  1.00D-07  THRPSP  =  1.00D+00  THRDC   =  1.00D-10  THRCS   =  1.00D-10
 THRNRM  =  1.00D-08  THREQ   =  0.00D+00  THRDE   =  1.00D+00  THRREF  =  1.00D-05  SPARFAC =  1.00D+00  THRDLP  =  1.00D-07
 THRDIA  =  1.00D-10  THRDLS  =  1.00D-07  THRGPS  =  0.00D+00  THRKEX  =  0.00D+00  THRDIS  =  2.00D-01  THRVAR  =  1.00D-10
 THRLOC  =  1.00D-06  THRGAP  =  1.00D-06  THRLOCT = -1.00D+00  THRGAPT = -1.00D+00  THRORB  =  1.00D-06  THRMLTP =  0.00D+00
 THRCPQCI=  1.00D-10  KEXTA   =  0.00D+00  THRCOARS=  0.00D+00  SYMTOL  =  1.00D-06  GRADTOL =  1.00D-06  THROVL  =  1.00D-08
 THRORTH =  1.00D-08  GRID    =  1.00D-06  GRIDMAX =  1.00D-03  DTMAX   =  0.00D+00

 SETTING GEOMTYP        =    XYZ
 ZUNIT=BOHR
 

 Variable memory set to 1000000000 words,  buffer space   230000 words

 SETTING BASIS          =    AVTZ


 Recomputing integrals since basis changed


 Using spherical harmonics

 Library entry C      S aug-cc-pVTZ          selected for orbital group  1
 Library entry C      P aug-cc-pVTZ          selected for orbital group  1
 Library entry C      D aug-cc-pVTZ          selected for orbital group  1
 Library entry C      F aug-cc-pVTZ          selected for orbital group  1
 Library entry O      S aug-cc-pVTZ          selected for orbital group  2
 Library entry O      P aug-cc-pVTZ          selected for orbital group  2
 Library entry O      D aug-cc-pVTZ          selected for orbital group  2
 Library entry O      F aug-cc-pVTZ          selected for orbital group  2
 Library entry H      S aug-cc-pVTZ          selected for orbital group  3
 Library entry H      P aug-cc-pVTZ          selected for orbital group  3
 Library entry H      D aug-cc-pVTZ          selected for orbital group  3

1PROGRAM * SEWARD (Integral evaluation for generally contracted gaussian basis sets)     Author: Roland Lindh, 1990

 Geometry written to block  1 of record 700


 Point group  Ci  



 ATOMIC COORDINATES

 NR  ATOM    CHARGE       X              Y              Z

   1  C       6.00   -3.500874648   -0.829552422    0.001702678
   2  C       6.00    3.500874648    0.829552422   -0.001702678
   3  O       8.00   -3.092366690    1.625317633   -0.000627772
   4  O       8.00    3.092366690   -1.625317633    0.000627772
   5  O       8.00   -1.887987094   -2.477925406   -0.000827260
   6  O       8.00    1.887987094    2.477925406    0.000827260
   7  H       1.00   -5.518496480   -1.279455144   -0.000426601
   8  H       1.00    5.518496480    1.279455144    0.000426601
   9  H       1.00   -1.238966786    1.954392349   -0.000083230
  10  H       1.00    1.238966786   -1.954392349    0.000083230

 Bond lengths in Bohr (Angstrom)

 1-3  2.488628371  1-5  2.306197337  1-7  2.067175573  2-4  2.488628371  2-6  2.306197337
     ( 1.316925416)     ( 1.220387070)     ( 1.093902200)     ( 1.316925416)     ( 1.220387070)

  2- 8  2.067175573   3- 9  1.882387227   4-10  1.882387227
       ( 1.093902200)       ( 0.996116419)       ( 0.996116419)

 Bond angles

  1- 3- 9  109.51588208   2- 4-10  109.51588208   3- 1- 5  126.17543330   3- 1- 7  112.01831084

  4-2-6  126.17543330   4-2-8  112.01831084   5-1-7  121.80594088   6-2-8  121.80594088

 NUCLEAR CHARGE:                   48
 NUMBER OF PRIMITIVE AOS:         510
 NUMBER OF SYMMETRY AOS:          448
 NUMBER OF CONTRACTIONS:          368   ( 184Ag  + 184Au  )
 NUMBER OF CORE ORBITALS:           6   (   3Ag  +   3Au  )
 NUMBER OF VALENCE ORBITALS:       28   (  14Ag  +  14Au  )


 NUCLEAR REPULSION ENERGY  235.58265156


 Eigenvalues of metric

         1 0.342E-04 0.627E-04 0.168E-03 0.231E-03 0.274E-03 0.339E-03 0.534E-03 0.639E-03
         2 0.373E-04 0.558E-04 0.145E-03 0.226E-03 0.262E-03 0.379E-03 0.521E-03 0.658E-03


 Contracted 2-electron integrals neglected if value below      1.0D-16
 AO integral compression algorithm  1   Integral accuracy      1.0D-16

     10107.748 MB (compressed) written to integral file ( 90.5%)

     Node minimum: 10107.748 MB, node maximum: 10107.748 MB


 NUMBER OF SORTED TWO-ELECTRON INTEGRALS: 1158738620.     BUFFER LENGTH:  32768
 NUMBER OF SEGMENTS:  37  SEGMENT LENGTH:   31999960      RECORD LENGTH: 524288

 Memory used in sort:      32.56 MW

 SORT1 READ  1395541424. AND WROTE  1158687490. INTEGRALS IN   3335 RECORDS. CPU TIME:    17.54 SEC, REAL TIME:    59.33 SEC
 SORT2 READ  1158687490. AND WROTE  1158738620. INTEGRALS IN  38558 RECORDS. CPU TIME:    10.20 SEC, REAL TIME:    44.85 SEC

 FILE SIZES:   FILE 1:  8656.2 MBYTE,  FILE 4: 13988.0 MBYTE,   TOTAL:  22644.2 MBYTE

 OPERATOR DM      FOR CENTER  0  COORDINATES:    0.000000    0.000000    0.000000


 **********************************************************************************************************************************
 DATASETS  * FILE   NREC   LENGTH (MB)   RECORD NAMES
              1      19     8656.98       500      610      700      900      950      970     1000      129      960     1100   
                                          VAR    BASINP    GEOM    SYMINP    ZMAT    AOBASIS   BASIS     P2S    ABASIS      S 
                                         1400     1410     1200     1210     1080     1600     1650     1300     1700   
                                           T        V       H0       H01     AOSYM     SMH    MOLCAS    ERIS     OPER   

 PROGRAMS   *        TOTAL       INT
 CPU TIMES  *        75.20     75.16
 REAL TIME  *       160.75 SEC
 DISK USED  *        32.75 GB      
 GA USED    *         0.00 MB       (max)       0.00 MB       (current)
 **********************************************************************************************************************************

1PROGRAM * RHF-SCF (CLOSED SHELL)       Authors: W. Meyer, H.-J. Werner


 NUMBER OF ELECTRONS:      24+   24-
 CONVERGENCE THRESHOLDS:    1.00E-10 (Density)    1.00E-13 (Energy)
 MAX. NUMBER OF ITERATIONS:      200
 INTERPOLATION TYPE:            DIIS
 INTERPOLATION STEPS:              2 (START)      1 (STEP)
 LEVEL SHIFTS:                  0.00 (CLOSED)  0.00 (OPEN) 



 Orbital guess generated from atomic densities. Full valence occupancy:   17  17

 Molecular orbital dump at record        2100.2

 Initial alpha occupancy:  12  12
 Initial beta  occupancy:  12  12
 Wave function symmetry:    1

 ITERATION    DDIFF          GRAD             ENERGY        2-EL.EN.            DIPOLE MOMENTS         DIIS
    1      0.000D+00      0.000D+00      -377.56729435    747.143531    0.00000    0.00000    0.00000    0
    2      0.000D+00      0.454D-02      -377.65519757    744.041018    0.00000    0.00000    0.00000    1
    3      0.742D-02      0.297D-02      -377.70462022    746.395301    0.00000    0.00000    0.00000    2
    4      0.290D-02      0.399D-03      -377.70619799    746.039883    0.00000    0.00000    0.00000    3
    5      0.602D-03      0.175D-03      -377.70648138    746.080912    0.00000    0.00000    0.00000    4
    6      0.233D-03      0.507D-04      -377.70652895    746.126409    0.00000    0.00000    0.00000    5
    7      0.877D-04      0.219D-04      -377.70653999    746.107468    0.00000    0.00000    0.00000    6
    8      0.477D-04      0.713D-05      -377.70654137    746.113764    0.00000    0.00000    0.00000    7
    9      0.185D-04      0.231D-05      -377.70654150    746.112366    0.00000    0.00000    0.00000    8
   10      0.571D-05      0.673D-06      -377.70654151    746.112562    0.00000    0.00000    0.00000    8
   11      0.184D-05      0.214D-06      -377.70654151    746.112526    0.00000    0.00000    0.00000    8
   12      0.591D-06      0.388D-07      -377.70654151    746.112515    0.00000    0.00000    0.00000    8
   13      0.927D-07      0.139D-07      -377.70654151    746.112519    0.00000    0.00000    0.00000    8
   14      0.298D-07      0.368D-08      -377.70654151    746.112520    0.00000    0.00000    0.00000    7
   15      0.696D-08      0.117D-08      -377.70654151    746.112519    0.00000    0.00000    0.00000    7
   16      0.206D-08      0.517D-09      -377.70654151    746.112519    0.00000    0.00000    0.00000    8
   17      0.897D-09      0.165D-09      -377.70654151    746.112519    0.00000    0.00000    0.00000    8
   18      0.271D-09      0.421D-10      -377.70654151    746.112519    0.00000    0.00000    0.00000    8
   19      0.774D-10      0.177D-10      -377.70654151    746.112519    0.00000    0.00000    0.00000    8
   20      0.408D-10      0.856D-11      -377.70654151    746.112519    0.00000    0.00000    0.00000    0

 Final occupancy:  12  12

 !RHF STATE 1.1 Energy               -377.706541513024
 Nuclear energy                       235.58265156
 One-electron energy                 -986.34545270
 Two-electron energy                  373.05625963
 Virial quotient                       -1.00181025
 !RHF STATE 1.1 Dipole moment           0.00000000     0.00000000     0.00000000
 Dipole moment /Debye                   0.00000000     0.00000000     0.00000000

 Orbital energies:

         1.1          2.1          3.1          4.1          5.1          6.1          7.1          8.1          9.1         10.1
    -20.617345   -20.577337   -11.408862    -1.485567    -1.373949    -0.919155    -0.733833    -0.695967    -0.635113    -0.622053

        11.1         12.1         13.1         14.1
     -0.507634    -0.498397     0.029629     0.054806

         1.2          2.2          3.2          4.2          5.2          6.2          7.2          8.2          9.2         10.2
    -20.617345   -20.577337   -11.408863    -1.472725    -1.388029    -0.883265    -0.769868    -0.725026    -0.645519    -0.581413

        11.2         12.2         13.2         14.2
     -0.496005    -0.475859     0.033634     0.056830


 **********************************************************************************************************************************
 DATASETS  * FILE   NREC   LENGTH (MB)   RECORD NAMES
              1      19     8656.98       500      610      700      900      950      970     1000      129      960     1100   
                                          VAR    BASINP    GEOM    SYMINP    ZMAT    AOBASIS   BASIS     P2S    ABASIS      S 
                                         1400     1410     1200     1210     1080     1600     1650     1300     1700   
                                           T        V       H0       H01     AOSYM     SMH    MOLCAS    ERIS     OPER   

              2       3        1.84       700     1000     2100   
                                         GEOM     BASIS     RHF  

 PROGRAMS   *        TOTAL       RHF       INT
 CPU TIMES  *       212.18    136.98     75.16
 REAL TIME  *       315.83 SEC
 DISK USED  *        32.75 GB      
 GA USED    *         0.00 MB       (max)       0.00 MB       (current)
 **********************************************************************************************************************************


1PROGRAM * MP2 (Closed-shell)     Authors: C. Hampel, H.-J. Werner, 1991, M. Deegan, P.J. Knowles, 1992


 Convergence thresholds:  THRVAR = 1.00D-08  THRDEN = 1.00D-12

 Number of core orbitals:           6 (   3   3 )
 Number of closed-shell orbitals:  18 (   9   9 )
 Number of external orbitals:     344 ( 172 172 )

 Molecular orbitals read from record     2100.2  Type=RHF/CANONICAL (state 1.1)

 Number of N-1 electron functions:              18
 Number of N-2 electron functions:             171
 Number of singly external CSFs:              3096
 Number of doubly external CSFs:           9588312
 Total number of CSFs:                     9591409

 Length of J-op  integral file:               0.00 MB
 Length of K-op  integral file:               4.71 MB

 Integral transformation finished. Total CPU:  16.31 sec, npass=  1  Memory used:  14.22 MW

 Memory needed for MP2:                      0.33 MW

 SCS-MP2 correlation energy:           -1.263710800261   (PS=  1.200000  PT=  0.333333)
 SCS-MP2 total energy:               -378.970252313282


  Reference energy                   -377.706541513020
  MP2 singlet pair energy              -0.794046117569
  MP2 triplet pair energy              -0.499589130822
  MP2 correlation energy               -1.293635248391

 !MP2 total energy                   -379.000176761412


 **********************************************************************************************************************************
 DATASETS  * FILE   NREC   LENGTH (MB)   RECORD NAMES
              1      20     8797.78       500      610      700      900      950      970     1000      129      960     1100   
                                          VAR    BASINP    GEOM    SYMINP    ZMAT    AOBASIS   BASIS     P2S    ABASIS      S 
                                         1400     1410     1200     1210     1080     1600     1650     1300     1700     1380   
                                           T        V       H0       H01     AOSYM     SMH    MOLCAS    ERIS     OPER     JKOP   

              2       3        1.84       700     1000     2100   
                                         GEOM     BASIS     RHF  

 PROGRAMS   *        TOTAL       MP2       RHF       INT
 CPU TIMES  *       228.97     16.79    136.98     75.16
 REAL TIME  *       333.84 SEC
 DISK USED  *        32.75 GB      
 GA USED    *         0.00 MB       (max)       0.00 MB       (current)
 **********************************************************************************************************************************

        MP2             RHF-SCF 
   -379.00017676   -377.70654151
 **********************************************************************************************************************************
 Variable memory released
