
 Primary working directories    : /tmp/1065196.853.gen4.q
 Secondary working directories  : /tmp/1065196.853.gen4.q
 Wavefunction directory         : /home/vulcan/jj04645/wfu/
 Main file repository           : /tmp/1065196.853.gen4.q/

 ARCHNAME  : Linux/x86_64
 FC        : /opt/intel/compilers_and_libraries_2016.1.150/linux/bin/intel64/ifort
 FCVERSION : 16.0.1
 BLASLIB   : -mkl
 id        : ccgc

 Nodes     nprocs
 n067         1
 ga_uses_ma=false, calling ma_init with nominal heap.
 GA-space will be limited to   8.0 MW (determined by -G option)

 Using customized tuning parameters: mindgm=10; mindgv=16; mindgc=4; mindgr=1; noblas=0; mincuda=1000; minvec=7
 default implementation of scratch files=df  

 ***,Optimization of t-butanol
 memory,1000,m
 gthresh,energy=1.0d-12,orbital=1.0d-10,oneint=1.0d-16,twoint=1.0d-16,optgrad=1.0d-6,compress=1.0d-13
 geomtyp=xyz
 
 bohr
 geometry = {
  C    0.0062380430   -0.0572128455   -0.0013897935
  O   -0.0215504157    2.6555469231   -0.0028606277
  C   -2.7662773786   -0.8326654791   -0.0004827935
  C    1.3376203091   -1.0177126638   -2.3784567519
  C    1.3384523430   -1.0151261787    2.3762546436
  H    1.7108584899    3.2103910449    0.0139149539
  H   -2.9439837644   -2.8887719721    0.0006667918
  H   -3.7096303605   -0.0835231868   -1.6748422091
  H   -3.7090444519   -0.0817018000    1.6733906406
  H    1.3145245458   -3.0812025097   -2.4592719996
  H    3.3068272880   -0.4024463972   -2.4015500745
  H    0.4005517464   -0.2733759350   -4.0645880599
  H    1.3153852111   -3.0785268753    2.4593228993
  H    3.3076671872   -0.3998355932    2.3979893777
  H    0.4019737691   -0.2689553305    4.0619030028
 }
 
 basis=VDZ
 {rhf;maxit,200}
 {ccsd(t);maxit,200}

 Variables initialized (661), CPU time= 0.01 sec
 Commands  initialized (458), CPU time= 0.00 sec, 486 directives.
 Default parameters read. Elapsed time= 0.04 sec

 Checking input...
 Passed
1


                                         ***  PROGRAM SYSTEM MOLPRO  ***
                         Copyright, University College Cardiff Consultants Limited, 2008

                                    Version 2010.1 linked May 16 2016 07:17:05


 **********************************************************************************************************************************
 LABEL *   Optimization of t-butanol                                                     
 Linux-4.4.3/n067(x86_64) 64 bit mpp version                                             DATE: 20-May-24          TIME: 13:53:49  
 **********************************************************************************************************************************

 SHA1:             9e8077add272b0f3cad6f7df79ec5211205f459d
 **********************************************************************************************************************************

 THRESHOLDS:

 ZERO    =  1.00D-12  ONEINT  =  1.00D-16  TWOINT  =  1.00D-16  PREFAC  =  1.00D-14  LOCALI  =  1.00D-09  EORDER  =  1.00D-04
 ENERGY  =  1.00D-12  ETEST   =  0.00D+00  EDENS   =  0.00D+00  THRDEDEF=  1.00D-06  GRADIENT=  1.00D-02  STEP    =  1.00D-03
 ORBITAL =  1.00D-10  CIVEC   =  1.00D-05  COEFF   =  1.00D-04  PRINTCI =  5.00D-02  PUNCHCI =  9.90D+01  OPTGRAD =  1.00D-06
 OPTENERG=  1.00D-06  OPTSTEP =  3.00D-04  THRGRAD =  1.00D-10  COMPRESS=  1.00D-13  VARMIN  =  1.00D-07  VARMAX  =  1.00D-03
 THRDOUB =  0.00D+00  THRDIV  =  1.00D-05  THRRED  =  1.00D-07  THRPSP  =  1.00D+00  THRDC   =  1.00D-10  THRCS   =  1.00D-10
 THRNRM  =  1.00D-08  THREQ   =  0.00D+00  THRDE   =  1.00D+00  THRREF  =  1.00D-05  SPARFAC =  1.00D+00  THRDLP  =  1.00D-07
 THRDIA  =  1.00D-10  THRDLS  =  1.00D-07  THRGPS  =  0.00D+00  THRKEX  =  0.00D+00  THRDIS  =  2.00D-01  THRVAR  =  1.00D-10
 THRLOC  =  1.00D-06  THRGAP  =  1.00D-06  THRLOCT = -1.00D+00  THRGAPT = -1.00D+00  THRORB  =  1.00D-06  THRMLTP =  0.00D+00
 THRCPQCI=  1.00D-10  KEXTA   =  0.00D+00  THRCOARS=  0.00D+00  SYMTOL  =  1.00D-06  GRADTOL =  1.00D-06  THROVL  =  1.00D-08
 THRORTH =  1.00D-08  GRID    =  1.00D-06  GRIDMAX =  1.00D-03  DTMAX   =  0.00D+00

 SETTING GEOMTYP        =    XYZ
 ZUNIT=BOHR
 

 Variable memory set to 1000000000 words,  buffer space   230000 words

 SETTING BASIS          =    VDZ


 Recomputing integrals since basis changed


 Using spherical harmonics

 Library entry C      S cc-pVDZ              selected for orbital group  1
 Library entry C      P cc-pVDZ              selected for orbital group  1
 Library entry C      D cc-pVDZ              selected for orbital group  1
 Library entry O      S cc-pVDZ              selected for orbital group  2
 Library entry O      P cc-pVDZ              selected for orbital group  2
 Library entry O      D cc-pVDZ              selected for orbital group  2
 Library entry H      S cc-pVDZ              selected for orbital group  4
 Library entry H      P cc-pVDZ              selected for orbital group  4

1PROGRAM * SEWARD (Integral evaluation for generally contracted gaussian basis sets)     Author: Roland Lindh, 1990

 Geometry written to block  1 of record 700


 Point group  C1  



 ATOMIC COORDINATES

 NR  ATOM    CHARGE       X              Y              Z

   1  C       6.00    0.006238043   -0.057212845   -0.001389794
   2  O       8.00   -0.021550416    2.655546923   -0.002860628
   3  C       6.00   -2.766277379   -0.832665479   -0.000482793
   4  C       6.00    1.337620309   -1.017712664   -2.378456752
   5  C       6.00    1.338452343   -1.015126179    2.376254644
   6  H       1.00    1.710858490    3.210391045    0.013914954
   7  H       1.00   -2.943983764   -2.888771972    0.000666792
   8  H       1.00   -3.709630360   -0.083523187   -1.674842209
   9  H       1.00   -3.709044452   -0.081701800    1.673390641
  10  H       1.00    1.314524546   -3.081202510   -2.459272000
  11  H       1.00    3.306827288   -0.402446397   -2.401550074
  12  H       1.00    0.400551746   -0.273375935   -4.064588060
  13  H       1.00    1.315385211   -3.078526875    2.459322899
  14  H       1.00    3.307667187   -0.399835593    2.397989378
  15  H       1.00    0.401973769   -0.268955330    4.061903003

 Bond lengths in Bohr (Angstrom)

 1-2  2.712902491  1-3  2.878918091  1-4  2.888872784  1-5  2.888872784  2-6  1.819168501
     ( 1.435606168)     ( 1.523457840)     ( 1.528725637)     ( 1.528725637)     ( 0.962662510)

  3- 7  2.063771982   3- 8  2.062670229   3- 9  2.062670229   4-10  2.065200925   4-11  2.063216423
       ( 1.092101097)       ( 1.091518075)       ( 1.091518075)       ( 1.092857262)       ( 1.091807108)

  4-12  2.067649256   5-13  2.065200925   5-14  2.063216422   5-15  2.067649256
       ( 1.094152862)       ( 1.092857262)       ( 1.091807108)       ( 1.094152862)

 Bond angles

  1-2-6  107.17091859   1-3-7  110.56564859   1-3-8  110.02067674   1-3-9  110.02067682

  1- 4-10  111.05427869   1- 4-11  110.48289301   1- 4-12  110.02622460   1- 5-13  111.05427729

  1- 5-14  110.48289406   1- 5-15  110.02622492   2- 1- 3  105.03903602   2- 1- 4  109.67835923

  2-1-5  109.67835923   3-1-4  110.76498583   3-1-5  110.76498583   4-1-5  110.75948302

  7- 3- 8  108.83916947   7- 3- 9  108.83916955   8- 3- 9  108.51019466  10- 4-11  107.95054667

 10- 4-12  108.82712437  11- 4-12  108.42572066  13- 5-14  107.95054604  13- 5-15  108.82712232

 14- 5-15  108.42572339

 NUCLEAR CHARGE:                   42
 NUMBER OF PRIMITIVE AOS:         205
 NUMBER OF SYMMETRY AOS:          200
 NUMBER OF CONTRACTIONS:          120   ( 120A   )
 NUMBER OF CORE ORBITALS:           5   (   5A   )
 NUMBER OF VALENCE ORBITALS:       30   (  30A   )


 NUCLEAR REPULSION ENERGY  199.65078082


 Eigenvalues of metric

         1 0.261E-02 0.488E-02 0.490E-02 0.835E-02 0.169E-01 0.191E-01 0.192E-01 0.240E-01


 Contracted 2-electron integrals neglected if value below      1.0D-16
 AO integral compression algorithm  1   Integral accuracy      1.0D-16

     221.774 MB (compressed) written to integral file ( 96.9%)

     Node minimum: 221.774 MB, node maximum: 221.774 MB


 NUMBER OF SORTED TWO-ELECTRON INTEGRALS:   26357430.     BUFFER LENGTH:  32768
 NUMBER OF SEGMENTS:   2  SEGMENT LENGTH:   15997996      RECORD LENGTH: 524288

 Memory used in sort:      16.56 MW

 SORT1 READ    28587749. AND WROTE    26319444. INTEGRALS IN     76 RECORDS. CPU TIME:     0.27 SEC, REAL TIME:     0.43 SEC
 SORT2 READ    26319444. AND WROTE    26357430. INTEGRALS IN    846 RECORDS. CPU TIME:     0.21 SEC, REAL TIME:     0.34 SEC

 FILE SIZES:   FILE 1:   206.9 MBYTE,  FILE 4:   318.8 MBYTE,   TOTAL:    525.7 MBYTE

 OPERATOR DM      FOR CENTER  0  COORDINATES:    0.000000    0.000000    0.000000


 **********************************************************************************************************************************
 DATASETS  * FILE   NREC   LENGTH (MB)   RECORD NAMES
              1      19      207.05       500      610      700      900      950      970     1000      129      960     1100   
                                          VAR    BASINP    GEOM    SYMINP    ZMAT    AOBASIS   BASIS     P2S    ABASIS      S 
                                         1400     1410     1200     1210     1080     1600     1650     1300     1700   
                                           T        V       H0       H01     AOSYM     SMH    MOLCAS    ERIS     OPER   

 PROGRAMS   *        TOTAL       INT
 CPU TIMES  *         3.09      3.04
 REAL TIME  *         3.65 SEC
 DISK USED  *       748.41 MB      
 GA USED    *         0.01 MB       (max)       0.00 MB       (current)
 **********************************************************************************************************************************

1PROGRAM * RHF-SCF (CLOSED SHELL)       Authors: W. Meyer, H.-J. Werner


 NUMBER OF ELECTRONS:      21+   21-    SPACE SYMMETRY=1    SPIN SYMMETRY: Singlet 
 CONVERGENCE THRESHOLDS:    1.00E-10 (Density)    1.00E-13 (Energy)
 MAX. NUMBER OF ITERATIONS:      200
 INTERPOLATION TYPE:            DIIS
 INTERPOLATION STEPS:              2 (START)      1 (STEP)
 LEVEL SHIFTS:                  0.00 (CLOSED)  0.00 (OPEN) 



 Orbital guess generated from atomic densities. Full valence occupancy:   35

 Molecular orbital dump at record        2100.2

 ITERATION    DDIFF          GRAD             ENERGY        2-EL.EN.            DIPOLE MOMENTS         DIIS
    1      0.000D+00      0.000D+00      -232.08678696    561.120419    0.88684   -0.62484    0.00945    0
    2      0.000D+00      0.616D-02      -232.16304563    555.894516    0.41154   -0.32410    0.00513    1
    3      0.122D-01      0.265D-02      -232.17372904    557.893452    0.53247   -0.43025    0.00625    2
    4      0.389D-02      0.733D-03      -232.17502919    557.665466    0.50580   -0.39410    0.00598    3
    5      0.141D-02      0.192D-03      -232.17510631    557.602422    0.50525   -0.40632    0.00599    4
    6      0.307D-03      0.358D-04      -232.17510936    557.622525    0.50464   -0.40466    0.00598    5
    7      0.899D-04      0.660D-05      -232.17510950    557.616890    0.50458   -0.40483    0.00598    6
    8      0.185D-04      0.211D-05      -232.17510951    557.618473    0.50459   -0.40492    0.00598    7
    9      0.400D-05      0.684D-06      -232.17510951    557.618123    0.50455   -0.40494    0.00598    7
   10      0.155D-05      0.191D-06      -232.17510951    557.618178    0.50456   -0.40495    0.00598    7
   11      0.505D-06      0.390D-07      -232.17510951    557.618166    0.50456   -0.40496    0.00598    7
   12      0.123D-06      0.120D-07      -232.17510951    557.618174    0.50456   -0.40496    0.00598    7
   13      0.242D-07      0.519D-08      -232.17510951    557.618172    0.50456   -0.40496    0.00598    7
   14      0.102D-07      0.170D-08      -232.17510951    557.618172    0.50456   -0.40496    0.00598    8
   15      0.302D-08      0.444D-09      -232.17510951    557.618172    0.50456   -0.40496    0.00598    8
   16      0.106D-08      0.110D-09      -232.17510951    557.618172    0.50456   -0.40496    0.00598    7
   17      0.254D-09      0.302D-10      -232.17510951    557.618172    0.50456   -0.40496    0.00598    7
   18      0.790D-10      0.859D-11      -232.17510951    557.618172    0.50456   -0.40496    0.00598    8
   19      0.174D-10      0.233D-11      -232.17510951    557.618172    0.50456   -0.40496    0.00598    8
   20      0.630D-11      0.782D-12      -232.17510951    557.618172    0.50456   -0.40496    0.00598    7
   21      0.185D-11      0.272D-12      -232.17510951    557.618172    0.50456   -0.40496    0.00598    7
   22      0.666D-12      0.942D-13      -232.17510951    557.618172    0.50456   -0.40496    0.00598    7
   23      0.306D-12      0.441D-13      -232.17510951    557.618172    0.50456   -0.40496    0.00598    0

 Final occupancy:  21

 !RHF STATE 1.1 Energy               -232.175109514566
 Nuclear energy                       199.65078082
 One-electron energy                 -710.63497633
 Two-electron energy                  278.80908599
 Virial quotient                       -1.00089002
 !RHF STATE 1.1 Dipole moment           0.50455816    -0.40495882     0.00597818
 Dipole moment /Debye                   1.28237493    -1.02923523     0.01519402

 Orbital energies:

         1.1          2.1          3.1          4.1          5.1          6.1          7.1          8.1          9.1         10.1
    -20.545141   -11.282088   -11.220569   -11.220371   -11.214340    -1.352186    -1.064269    -0.939916    -0.938184    -0.766724

        11.1         12.1         13.1         14.1         15.1         16.1         17.1         18.1         19.1         20.1
     -0.665347    -0.620988    -0.618331    -0.573024    -0.554246    -0.527784    -0.514356    -0.505429    -0.500059    -0.458207

        21.1         22.1         23.1
     -0.426845     0.166842     0.220190


 **********************************************************************************************************************************
 DATASETS  * FILE   NREC   LENGTH (MB)   RECORD NAMES
              1      19      207.05       500      610      700      900      950      970     1000      129      960     1100   
                                          VAR    BASINP    GEOM    SYMINP    ZMAT    AOBASIS   BASIS     P2S    ABASIS      S 
                                         1400     1410     1200     1210     1080     1600     1650     1300     1700   
                                           T        V       H0       H01     AOSYM     SMH    MOLCAS    ERIS     OPER   

              2       3        0.80       700     1000     2100   
                                         GEOM     BASIS     RHF  

 PROGRAMS   *        TOTAL       RHF       INT
 CPU TIMES  *         7.61      4.52      3.04
 REAL TIME  *         8.74 SEC
 DISK USED  *       748.41 MB      
 GA USED    *         0.01 MB       (max)       0.00 MB       (current)
 **********************************************************************************************************************************


1PROGRAM * CCSD (Closed-shell coupled cluster)     Authors: C. Hampel, H.-J. Werner, 1991, M. Deegan, P.J. Knowles, 1992


 Convergence thresholds:  THRVAR = 1.00D-08  THRDEN = 1.00D-12

 CCSD(T)     terms to be evaluated (factor= 1.000)


 Number of core orbitals:           5 (   5 )
 Number of closed-shell orbitals:  16 (  16 )
 Number of external orbitals:      99 (  99 )

 Molecular orbitals read from record     2100.2  Type=RHF/CANONICAL (state 1.1)

 Number of N-1 electron functions:              16
 Number of N-2 electron functions:             136
 Number of singly external CSFs:              1584
 Number of doubly external CSFs:           1255320
 Total number of CSFs:                     1256905

 Length of J-op  integral file:               0.00 MB
 Length of K-op  integral file:               1.03 MB
 Length of 3-ext integral record:             0.00 MB

 Memory could be reduced to 21.47 Mwords without degradation in triples

 Integral transformation finished. Total CPU:   1.41 sec, npass=  1  Memory used:  18.35 MW

 Reference energy:                   -232.17510951

 MP2 singlet pair energy:              -0.49759799
 MP2 triplet pair energy:              -0.27475409
 MP2 correlation energy:               -0.77235208
 MP2 total energy:                   -232.94746160

 SCS-MP2 correlation energy:           -0.76807569   (PS=  1.200000  PT=  0.333333)
 SCS-MP2 total energy:               -232.94318520

 ITER.      SQ.NORM     CORR.ENERGY   TOTAL ENERGY   ENERGY CHANGE        DEN1      VAR(S)    VAR(P)  DIIS     TIME
   1      1.27363296    -0.82955057  -233.00466008    -0.05719849    -0.03605914  0.25D-02  0.44D-02  1  1     5.33
   2      1.29481932    -0.83387146  -233.00898097    -0.00432089    -0.02220542  0.67D-04  0.42D-03  2  2     9.31
   3      1.29934591    -0.83408167  -233.00919118    -0.00021021    -0.00277718  0.25D-04  0.24D-04  3  3    13.30
   4      1.30061428    -0.83408753  -233.00919705    -0.00000586    -0.00060335  0.64D-06  0.21D-05  4  4    17.29
   5      1.30084596    -0.83409650  -233.00920602    -0.00000897    -0.00008111  0.19D-06  0.15D-06  5  5    21.30
   6      1.30088720    -0.83409324  -233.00920275     0.00000326    -0.00001322  0.26D-07  0.14D-07  6  6    25.31
   7      1.30089415    -0.83409202  -233.00920153     0.00000122    -0.00000072  0.38D-08  0.17D-08  6  1    29.32
   8      1.30089774    -0.83409203  -233.00920154    -0.00000001    -0.00000042  0.68D-09  0.22D-09  6  2    33.32
   9      1.30089831    -0.83409196  -233.00920148     0.00000006     0.00000057  0.64D-10  0.39D-10  6  4    37.32
  10      1.30089890    -0.83409195  -233.00920147     0.00000001    -0.00000001  0.51D-11  0.38D-11  6  3    41.31
  11      1.30089887    -0.83409195  -233.00920147    -0.00000000     0.00000005  0.79D-12  0.47D-12  6  5    45.32
  12      1.30089881    -0.83409196  -233.00920147    -0.00000000     0.00000003  0.14D-12  0.66D-13  6  6    49.32
  13      1.30089876    -0.83409196  -233.00920147    -0.00000000     0.00000003  0.11D-13  0.10D-13  6  2    53.31
  14      1.30089874    -0.83409196  -233.00920147    -0.00000000     0.00000001  0.17D-14  0.62D-15  6  1    57.33
  15      1.30089874    -0.83409196  -233.00920147    -0.00000000     0.00000000  0.23D-15  0.13D-15  6  4    61.32
  16      1.30089874    -0.83409196  -233.00920147     0.00000000    -0.00000000  0.37D-16  0.21D-16  6  3    65.33
  17      1.30089874    -0.83409196  -233.00920147     0.00000000    -0.00000000  0.39D-17  0.26D-17  6  5    69.33
  18      1.30089874    -0.83409196  -233.00920147    -0.00000000    -0.00000000  0.11D-17  0.37D-18  6  6    73.34
  19      1.30089874    -0.83409196  -233.00920147    -0.00000000    -0.00000000  0.27D-18  0.73D-19  6  2    77.34
  20      1.30089874    -0.83409196  -233.00920147    -0.00000000     0.00000000  0.42D-19  0.14D-19  6  1    81.33
  21      1.30089874    -0.83409196  -233.00920147    -0.00000000     0.00000000  0.57D-20  0.26D-20  6  4    85.33
  22      1.30089874    -0.83409196  -233.00920147     0.00000000    -0.00000000  0.11D-20  0.41D-21  6  3    89.33

 Norm of t1 vector:      0.06604386      S-energy:    -0.00000000      T1 diagnostic:  0.00825548
                                                                       D1 diagnostic:  0.02162089


 Total CPU time for triples:     60.17 sec


 RESULTS
 =======

  Reference energy                   -232.175109514566
  CCSD singlet pair energy             -0.581026824063
  CCSD triplet pair energy             -0.253065136081
  CCSD correlation energy              -0.834091960144

  Triples (T) contribution             -0.023260160011
  Total correlation energy             -0.857352120155

  CCSD total energy                  -233.009201474710
  CCSD[T] energy                     -233.033158443226
  CCSD-T energy                      -233.032125608292
 !CCSD(T) total energy               -233.032461634720

 Timing summary (sec):

 STEP                 CPU(USER)    SYS     CPU(TOT)    WALL
 Transformation          1.47      0.14      1.61      1.61
 CCSD iterations        87.86      1.98     89.84     89.98
 Triples                60.17      1.20     61.37     61.38

 Program statistics:

 Available memory in ccsd:               999998876
 Min. memory needed in ccsd:               3310297
 Max. memory used in ccsd:                 4412497
 Max. memory used in cckext:               4149679 (22 integral passes)



 **********************************************************************************************************************************
 DATASETS  * FILE   NREC   LENGTH (MB)   RECORD NAMES
              1      20      293.71       500      610      700      900      950      970     1000      129      960     1100   
                                          VAR    BASINP    GEOM    SYMINP    ZMAT    AOBASIS   BASIS     P2S    ABASIS      S 
                                         1400     1410     1200     1210     1080     1600     1650     1300     1700     1380   
                                           T        V       H0       H01     AOSYM     SMH    MOLCAS    ERIS     OPER     JKOP   

              2       3        0.80       700     1000     2100   
                                         GEOM     BASIS     RHF  

 PROGRAMS   *        TOTAL   CCSD(T)       RHF       INT
 CPU TIMES  *       157.12    149.51      4.52      3.04
 REAL TIME  *       161.76 SEC
 DISK USED  *       748.41 MB      
 GA USED    *         0.01 MB       (max)       0.00 MB       (current)
 **********************************************************************************************************************************

        CCSD(T)         RHF-SCF 
   -233.03246163   -232.17510951
 **********************************************************************************************************************************
 Variable memory released
