
 Primary working directories    : /tmp/943419.192.gen6.q
 Secondary working directories  : /tmp/943419.192.gen6.q
 Wavefunction directory         : /home/vulcan/mel64643/wfu/
 Main file repository           : /tmp/943419.192.gen6.q/

 ARCHNAME  : Linux/x86_64
 FC        : /opt/intel/compilers_and_libraries_2016.1.150/linux/bin/intel64/ifort
 FCVERSION : 16.0.1
 BLASLIB   : -mkl
 id        : ccgc

 Nodes     nprocs
 n088         1
 ga_uses_ma=false, calling ma_init with nominal heap.
 GA-space will be limited to   8.0 MW (determined by -G option)

 Using customized tuning parameters: mindgm=10; mindgv=16; mindgc=4; mindgr=1; noblas=0; mincuda=1000; minvec=7
 default implementation of scratch files=df  

 ***,Optimization of nh3_nitrosmethane
 memory,1000,m
 gthresh,energy=1.0d-12,orbital=1.0d-10,oneint=1.0d-16,twoint=1.0d-16,optgrad=1.0d-6,compress=1.0d-13
 geomtyp=xyz
 
 bohr
 geometry = {
  N   -5.2243131701   -0.1864717716   -0.0000000000
  H   -6.2916113892    0.2294188698   -1.5389755235
  H   -3.7620031900    1.0590028093    0.0000000000
  H   -6.2916113892    0.2294188698    1.5389755235
  H   -0.9276717076   -2.4028435777    0.0000000000
  H    1.8797344190   -3.4363050539   -1.6666900896
  H    1.8797344190   -3.4363050539    1.6666900896
  C    1.1328696416   -2.4723342386    0.0000000000
  N    2.2666075525    0.1049735933   -0.0000000000
  O    0.7023833039    1.7885025625   -0.0000000000
 }
 
 basis=aug-cc-pvtz
 {rhf;maxit,200}
 {mp2}

 Variables initialized (661), CPU time= 0.00 sec
 Commands  initialized (458), CPU time= 0.01 sec, 486 directives.
 Default parameters read. Elapsed time= 0.05 sec

 Checking input...
 Passed
1


                                         ***  PROGRAM SYSTEM MOLPRO  ***
                         Copyright, University College Cardiff Consultants Limited, 2008

                                    Version 2010.1 linked May 16 2016 07:17:05


 **********************************************************************************************************************************
 LABEL *   Optimization of nh3_nitrosmethane                                             
 Linux-4.4.3/n088(x86_64) 64 bit mpp version                                             DATE: 25-Oct-23          TIME: 22:17:18  
 **********************************************************************************************************************************

 SHA1:             9e8077add272b0f3cad6f7df79ec5211205f459d
 **********************************************************************************************************************************

 THRESHOLDS:

 ZERO    =  1.00D-12  ONEINT  =  1.00D-16  TWOINT  =  1.00D-16  PREFAC  =  1.00D-14  LOCALI  =  1.00D-09  EORDER  =  1.00D-04
 ENERGY  =  1.00D-12  ETEST   =  0.00D+00  EDENS   =  0.00D+00  THRDEDEF=  1.00D-06  GRADIENT=  1.00D-02  STEP    =  1.00D-03
 ORBITAL =  1.00D-10  CIVEC   =  1.00D-05  COEFF   =  1.00D-04  PRINTCI =  5.00D-02  PUNCHCI =  9.90D+01  OPTGRAD =  1.00D-06
 OPTENERG=  1.00D-06  OPTSTEP =  3.00D-04  THRGRAD =  1.00D-10  COMPRESS=  1.00D-13  VARMIN  =  1.00D-07  VARMAX  =  1.00D-03
 THRDOUB =  0.00D+00  THRDIV  =  1.00D-05  THRRED  =  1.00D-07  THRPSP  =  1.00D+00  THRDC   =  1.00D-10  THRCS   =  1.00D-10
 THRNRM  =  1.00D-08  THREQ   =  0.00D+00  THRDE   =  1.00D+00  THRREF  =  1.00D-05  SPARFAC =  1.00D+00  THRDLP  =  1.00D-07
 THRDIA  =  1.00D-10  THRDLS  =  1.00D-07  THRGPS  =  0.00D+00  THRKEX  =  0.00D+00  THRDIS  =  2.00D-01  THRVAR  =  1.00D-10
 THRLOC  =  1.00D-06  THRGAP  =  1.00D-06  THRLOCT = -1.00D+00  THRGAPT = -1.00D+00  THRORB  =  1.00D-06  THRMLTP =  0.00D+00
 THRCPQCI=  1.00D-10  KEXTA   =  0.00D+00  THRCOARS=  0.00D+00  SYMTOL  =  1.00D-06  GRADTOL =  1.00D-06  THROVL  =  1.00D-08
 THRORTH =  1.00D-08  GRID    =  1.00D-06  GRIDMAX =  1.00D-03  DTMAX   =  0.00D+00

 SETTING GEOMTYP        =    XYZ
 ZUNIT=BOHR
 

 Variable memory set to 1000000000 words,  buffer space   230000 words

 SETTING BASIS          =    AUG-CC-PVTZ


 Recomputing integrals since basis changed


 Using spherical harmonics

 Library entry N      S aug-cc-pVTZ          selected for orbital group  1
 Library entry N      P aug-cc-pVTZ          selected for orbital group  1
 Library entry N      D aug-cc-pVTZ          selected for orbital group  1
 Library entry N      F aug-cc-pVTZ          selected for orbital group  1
 Library entry H      S aug-cc-pVTZ          selected for orbital group  2
 Library entry H      P aug-cc-pVTZ          selected for orbital group  2
 Library entry H      D aug-cc-pVTZ          selected for orbital group  2
 Library entry C      S aug-cc-pVTZ          selected for orbital group  3
 Library entry C      P aug-cc-pVTZ          selected for orbital group  3
 Library entry C      D aug-cc-pVTZ          selected for orbital group  3
 Library entry C      F aug-cc-pVTZ          selected for orbital group  3
 Library entry O      S aug-cc-pVTZ          selected for orbital group  5
 Library entry O      P aug-cc-pVTZ          selected for orbital group  5
 Library entry O      D aug-cc-pVTZ          selected for orbital group  5
 Library entry O      F aug-cc-pVTZ          selected for orbital group  5

1PROGRAM * SEWARD (Integral evaluation for generally contracted gaussian basis sets)     Author: Roland Lindh, 1990

 Geometry written to block  1 of record 700


 Point group  Cs  



 ATOMIC COORDINATES

 NR  ATOM    CHARGE       X              Y              Z

   1  N       7.00   -5.224313170   -0.186471772    0.000000000
   2  H       1.00   -6.291611389    0.229418870   -1.538975523
   3  H       1.00   -6.291611389    0.229418870    1.538975523
   4  H       1.00   -3.762003190    1.059002809    0.000000000
   5  H       1.00   -0.927671708   -2.402843578    0.000000000
   6  H       1.00    1.879734419   -3.436305054   -1.666690090
   7  H       1.00    1.879734419   -3.436305054    1.666690090
   8  C       6.00    1.132869642   -2.472334239    0.000000000
   9  N       7.00    2.266607553    0.104973593    0.000000000
  10  O       8.00    0.702383304    1.788502562    0.000000000

 Bond lengths in Bohr (Angstrom)

 1-2  1.918472355  1-3  1.918472355  1-4  1.920822066  5-8  2.061712784  6-8  2.065164057
     ( 1.015211846)     ( 1.015211846)     ( 1.016455260)     ( 1.091011417)     ( 1.092837752)

  7- 8  2.065164057   8- 9  2.815648648   9-10  2.298057286
       ( 1.092837752)       ( 1.489977093)       ( 1.216079541)

 Bond angles

  2-1-3  106.67910596   2-1-4  106.43726350   3-1-4  106.43726350   5-8-6  112.15889787

  5-8-7  112.15889787   5-8-9  111.81278754   6-8-7  107.61735050   6-8-9  106.35838669

  7- 8- 9  106.35838669   8- 9-10  113.35946296

 NUCLEAR CHARGE:                   34
 NUMBER OF PRIMITIVE AOS:         430
 NUMBER OF SYMMETRY AOS:          382
 NUMBER OF CONTRACTIONS:          322   ( 198A'  + 124A"  )
 NUMBER OF CORE ORBITALS:           4   (   4A'  +   0A"  )
 NUMBER OF VALENCE ORBITALS:       22   (  16A'  +   6A"  )


 NUCLEAR REPULSION ENERGY  117.29259231


 Eigenvalues of metric

         1 0.334E-04 0.532E-04 0.106E-03 0.118E-03 0.170E-03 0.233E-03 0.379E-03 0.567E-03
         2 0.823E-04 0.238E-03 0.687E-03 0.122E-02 0.166E-02 0.194E-02 0.239E-02 0.342E-02


 Contracted 2-electron integrals neglected if value below      1.0D-16
 AO integral compression algorithm  1   Integral accuracy      1.0D-16

     5129.372 MB (compressed) written to integral file ( 83.3%)

     Node minimum: 5129.372 MB, node maximum: 5129.372 MB


 NUMBER OF SORTED TWO-ELECTRON INTEGRALS:  682157926.     BUFFER LENGTH:  32768
 NUMBER OF SEGMENTS:  22  SEGMENT LENGTH:   31998651      RECORD LENGTH: 524288

 Memory used in sort:      32.56 MW

 SORT1 READ   769999854. AND WROTE   652104606. INTEGRALS IN   1876 RECORDS. CPU TIME:     8.08 SEC, REAL TIME:    12.88 SEC
 SORT2 READ   652104606. AND WROTE   682157926. INTEGRALS IN  19567 RECORDS. CPU TIME:     6.08 SEC, REAL TIME:    11.50 SEC

 FILE SIZES:   FILE 1:  4781.0 MBYTE,  FILE 4:  7868.5 MBYTE,   TOTAL:  12649.5 MBYTE

 OPERATOR DM      FOR CENTER  0  COORDINATES:    0.000000    0.000000    0.000000


 **********************************************************************************************************************************
 DATASETS  * FILE   NREC   LENGTH (MB)   RECORD NAMES
              1      19     4781.64       500      610      700      900      950      970     1000      129      960     1100   
                                          VAR    BASINP    GEOM    SYMINP    ZMAT    AOBASIS   BASIS     P2S    ABASIS      S 
                                         1400     1410     1200     1210     1080     1600     1650     1300     1700   
                                           T        V       H0       H01     AOSYM     SMH    MOLCAS    ERIS     OPER   

 PROGRAMS   *        TOTAL       INT
 CPU TIMES  *        36.04     36.00
 REAL TIME  *        49.25 SEC
 DISK USED  *        17.78 GB      
 GA USED    *         0.00 MB       (max)       0.00 MB       (current)
 **********************************************************************************************************************************

1PROGRAM * RHF-SCF (CLOSED SHELL)       Authors: W. Meyer, H.-J. Werner


 NUMBER OF ELECTRONS:      17+   17-
 CONVERGENCE THRESHOLDS:    1.00E-10 (Density)    1.00E-13 (Energy)
 MAX. NUMBER OF ITERATIONS:      200
 INTERPOLATION TYPE:            DIIS
 INTERPOLATION STEPS:              2 (START)      1 (STEP)
 LEVEL SHIFTS:                  0.00 (CLOSED)  0.00 (OPEN) 



 Orbital guess generated from atomic densities. Full valence occupancy:   20   6

 Molecular orbital dump at record        2100.2

 Initial alpha occupancy:  14   3
 Initial beta  occupancy:  14   3
 Wave function symmetry:    1

 ITERATION    DDIFF          GRAD             ENERGY        2-EL.EN.            DIPOLE MOMENTS         DIIS
    1      0.000D+00      0.000D+00      -225.01724332    393.293261    0.07518   -0.59607    0.00000    0
    2      0.000D+00      0.385D-02      -225.07768461    392.740947   -0.57905   -0.37957    0.00000    1
    3      0.673D-02      0.278D-02      -225.11342285    393.341800   -0.23250   -0.55848    0.00000    2
    4      0.282D-02      0.536D-03      -225.11568704    393.198405   -0.30856   -0.46126    0.00000    3
    5      0.765D-03      0.219D-03      -225.11613095    393.208328   -0.30554   -0.49023    0.00000    4
    6      0.323D-03      0.537D-04      -225.11617931    393.233828   -0.31145   -0.48675    0.00000    5
    7      0.115D-03      0.205D-04      -225.11618630    393.218108   -0.31332   -0.48685    0.00000    6
    8      0.473D-04      0.831D-05      -225.11618742    393.224866   -0.31438   -0.48675    0.00000    7
    9      0.183D-04      0.366D-05      -225.11618767    393.223386   -0.31470   -0.48644    0.00000    8
   10      0.100D-04      0.113D-05      -225.11618770    393.223090   -0.31481   -0.48623    0.00000    8
   11      0.330D-05      0.378D-06      -225.11618771    393.223209   -0.31483   -0.48614    0.00000    8
   12      0.105D-05      0.122D-06      -225.11618771    393.223159   -0.31483   -0.48611    0.00000    8
   13      0.413D-06      0.413D-07      -225.11618771    393.223153   -0.31483   -0.48610    0.00000    8
   14      0.102D-06      0.200D-07      -225.11618771    393.223156   -0.31483   -0.48610    0.00000    9
   15      0.441D-07      0.204D-08      -225.11618771    393.223156   -0.31483   -0.48610    0.00000    8
   16      0.523D-08      0.537D-09      -225.11618771    393.223156   -0.31483   -0.48610    0.00000    7
   17      0.132D-08      0.191D-09      -225.11618771    393.223156   -0.31483   -0.48610    0.00000    7
   18      0.433D-09      0.508D-10      -225.11618771    393.223156   -0.31483   -0.48610    0.00000    7
   19      0.116D-09      0.107D-10      -225.11618771    393.223156   -0.31483   -0.48610    0.00000    7
   20      0.388D-10      0.358D-11      -225.11618771    393.223156   -0.31483   -0.48610    0.00000    6
   21      0.220D-10      0.135D-11      -225.11618771    393.223156   -0.31483   -0.48610    0.00000    7
   22      0.139D-10      0.729D-12      -225.11618771    393.223156   -0.31483   -0.48610    0.00000    8
   23      0.186D-10      0.307D-12      -225.11618771    393.223156   -0.31483   -0.48610    0.00000    8
   24      0.134D-10      0.207D-12      -225.11618771    393.223156   -0.31483   -0.48610    0.00000    9
   25      0.745D-11      0.200D-12      -225.11618771    393.223156   -0.31483   -0.48610    0.00000    9
   26      0.633D-11      0.131D-12      -225.11618771    393.223156   -0.31483   -0.48610    0.00000    9
   27      0.293D-11      0.118D-12      -225.11618771    393.223156   -0.31483   -0.48610    0.00000    9
   28      0.239D-11      0.179D-12      -225.11618771    393.223156   -0.31483   -0.48610    0.00000    0

 Final occupancy:  14   3

 !RHF STATE 1.1 Energy               -225.116187705836
 Nuclear energy                       117.29259231
 One-electron energy                 -539.02035788
 Two-electron energy                  196.61157786
 Virial quotient                       -1.00207024
 !RHF STATE 1.1 Dipole moment          -0.31483451    -0.48609861     0.00000000
 Dipole moment /Debye                  -0.80017710    -1.23545851     0.00000000

 Orbital energies:

         1.1          2.1          3.1          4.1          5.1          6.1          7.1          8.1          9.1         10.1
    -20.631217   -15.706484   -15.538978   -11.264281    -1.509306    -1.138870    -1.072097    -0.861197    -0.690778    -0.674546

        11.1         12.1         13.1         14.1         15.1         16.1
     -0.622917    -0.556815    -0.429296    -0.406205     0.028805     0.038581

         1.2          2.2          3.2          4.2          5.2
     -0.635247    -0.625375    -0.534992     0.041937     0.056395


 **********************************************************************************************************************************
 DATASETS  * FILE   NREC   LENGTH (MB)   RECORD NAMES
              1      19     4781.64       500      610      700      900      950      970     1000      129      960     1100   
                                          VAR    BASINP    GEOM    SYMINP    ZMAT    AOBASIS   BASIS     P2S    ABASIS      S 
                                         1400     1410     1200     1210     1080     1600     1650     1300     1700   
                                           T        V       H0       H01     AOSYM     SMH    MOLCAS    ERIS     OPER   

              2       3        1.56       700     1000     2100   
                                         GEOM     BASIS     RHF  

 PROGRAMS   *        TOTAL       RHF       INT
 CPU TIMES  *       129.58     93.54     36.00
 REAL TIME  *       155.08 SEC
 DISK USED  *        17.78 GB      
 GA USED    *         0.00 MB       (max)       0.00 MB       (current)
 **********************************************************************************************************************************


1PROGRAM * MP2 (Closed-shell)     Authors: C. Hampel, H.-J. Werner, 1991, M. Deegan, P.J. Knowles, 1992


 Convergence thresholds:  THRVAR = 1.00D-08  THRDEN = 1.00D-12

 Number of core orbitals:           4 (   4   0 )
 Number of closed-shell orbitals:  13 (  10   3 )
 Number of external orbitals:     305 ( 184 121 )

 Molecular orbitals read from record     2100.2  Type=RHF/CANONICAL (state 1.1)

 Number of N-1 electron functions:              13
 Number of N-2 electron functions:              91
 Number of singly external CSFs:              2203
 Number of doubly external CSFs:           3980909
 Total number of CSFs:                     3983113

 Length of J-op  integral file:               0.00 MB
 Length of K-op  integral file:               3.80 MB

 Integral transformation finished. Total CPU:   6.17 sec, npass=  1  Memory used:   5.54 MW

 Memory needed for MP2:                      0.27 MW

 SCS-MP2 correlation energy:           -0.859241462310   (PS=  1.200000  PT=  0.333333)
 SCS-MP2 total energy:               -225.975429168146


  Reference energy                   -225.116187705836
  MP2 singlet pair energy              -0.557254907355
  MP2 triplet pair energy              -0.306217885956
  MP2 correlation energy               -0.863472793311

 !MP2 total energy                   -225.979660499147


 **********************************************************************************************************************************
 DATASETS  * FILE   NREC   LENGTH (MB)   RECORD NAMES
              1      20     4840.55       500      610      700      900      950      970     1000      129      960     1100   
                                          VAR    BASINP    GEOM    SYMINP    ZMAT    AOBASIS   BASIS     P2S    ABASIS      S 
                                         1400     1410     1200     1210     1080     1600     1650     1300     1700     1380   
                                           T        V       H0       H01     AOSYM     SMH    MOLCAS    ERIS     OPER     JKOP   

              2       3        1.56       700     1000     2100   
                                         GEOM     BASIS     RHF  

 PROGRAMS   *        TOTAL       MP2       RHF       INT
 CPU TIMES  *       135.94      6.36     93.54     36.00
 REAL TIME  *       161.97 SEC
 DISK USED  *        17.78 GB      
 GA USED    *         0.00 MB       (max)       0.00 MB       (current)
 **********************************************************************************************************************************

        MP2             RHF-SCF 
   -225.97966050   -225.11618771
 **********************************************************************************************************************************
 Variable memory released
