
 Primary working directories    : /tmp/985636.819.gen4.q
 Secondary working directories  : /tmp/985636.819.gen4.q
 Wavefunction directory         : /home/vulcan/jj04645/wfu/
 Main file repository           : /tmp/985636.819.gen4.q/

 ARCHNAME  : Linux/x86_64
 FC        : /opt/intel/compilers_and_libraries_2016.1.150/linux/bin/intel64/ifort
 FCVERSION : 16.0.1
 BLASLIB   : -mkl
 id        : ccgc

 Nodes     nprocs
 n061         1
 ga_uses_ma=false, calling ma_init with nominal heap.
 GA-space will be limited to   8.0 MW (determined by -G option)

 Using customized tuning parameters: mindgm=10; mindgv=16; mindgc=4; mindgr=1; noblas=0; mincuda=1000; minvec=7
 default implementation of scratch files=df  

 ***,Optimization of tetrahydrothiopyran
 memory,1000,m
 gthresh,energy=1.0d-12,orbital=1.0d-10,oneint=1.0d-16,twoint=1.0d-16,optgrad=1.0d-6,compress=1.0d-13
 geomtyp=xyz
 
 bohr
 geometry = {
  S    0.3530917909    2.6998433933   -0.0005356502
  C   -0.3290067122   -3.3653055644   -0.0004953072
  C   -0.6618771832    0.6689833910   -2.5818057694
  C   -0.6622556934    0.6690603057    2.5806461191
  C    0.4730290997   -1.9815572631   -2.4143598128
  C    0.4726751230   -1.9814853331    2.4134455485
  H   -2.7281176370    0.5706635110   -2.5857817986
  H   -2.7284967084    0.5707405431    2.5843220902
  H   -0.0726470645    1.6241454338   -4.3121552211
  H   -0.0732793088    1.6242739029    4.3110534954
  H    2.5250908091   -1.8369559214   -2.4807862975
  H    2.5346970904   -1.8361794364    2.4804928106
  H   -0.1266745785   -3.0745356187   -4.0660674337
  H   -0.1301698927   -3.0796958780    4.0730791174
  H    0.4666510764   -5.2719964136   -0.0004085611
  H   -2.3914452274   -3.5798204688   -0.0006433298
 }
 
 basis=VDZ
 {rhf;maxit,200}
 {ccsd(t);maxit,200}

 Variables initialized (661), CPU time= 0.00 sec
 Commands  initialized (458), CPU time= 0.01 sec, 486 directives.
 Default parameters read. Elapsed time= 0.04 sec

 Checking input...
 Passed
1


                                         ***  PROGRAM SYSTEM MOLPRO  ***
                         Copyright, University College Cardiff Consultants Limited, 2008

                                    Version 2010.1 linked May 16 2016 07:17:05


 **********************************************************************************************************************************
 LABEL *   Optimization of tetrahydrothiopyran                                           
 Linux-4.4.3/n061(x86_64) 64 bit mpp version                                             DATE: 26-Jan-24          TIME: 14:53:15  
 **********************************************************************************************************************************

 SHA1:             9e8077add272b0f3cad6f7df79ec5211205f459d
 **********************************************************************************************************************************

 THRESHOLDS:

 ZERO    =  1.00D-12  ONEINT  =  1.00D-16  TWOINT  =  1.00D-16  PREFAC  =  1.00D-14  LOCALI  =  1.00D-09  EORDER  =  1.00D-04
 ENERGY  =  1.00D-12  ETEST   =  0.00D+00  EDENS   =  0.00D+00  THRDEDEF=  1.00D-06  GRADIENT=  1.00D-02  STEP    =  1.00D-03
 ORBITAL =  1.00D-10  CIVEC   =  1.00D-05  COEFF   =  1.00D-04  PRINTCI =  5.00D-02  PUNCHCI =  9.90D+01  OPTGRAD =  1.00D-06
 OPTENERG=  1.00D-06  OPTSTEP =  3.00D-04  THRGRAD =  1.00D-10  COMPRESS=  1.00D-13  VARMIN  =  1.00D-07  VARMAX  =  1.00D-03
 THRDOUB =  0.00D+00  THRDIV  =  1.00D-05  THRRED  =  1.00D-07  THRPSP  =  1.00D+00  THRDC   =  1.00D-10  THRCS   =  1.00D-10
 THRNRM  =  1.00D-08  THREQ   =  0.00D+00  THRDE   =  1.00D+00  THRREF  =  1.00D-05  SPARFAC =  1.00D+00  THRDLP  =  1.00D-07
 THRDIA  =  1.00D-10  THRDLS  =  1.00D-07  THRGPS  =  0.00D+00  THRKEX  =  0.00D+00  THRDIS  =  2.00D-01  THRVAR  =  1.00D-10
 THRLOC  =  1.00D-06  THRGAP  =  1.00D-06  THRLOCT = -1.00D+00  THRGAPT = -1.00D+00  THRORB  =  1.00D-06  THRMLTP =  0.00D+00
 THRCPQCI=  1.00D-10  KEXTA   =  0.00D+00  THRCOARS=  0.00D+00  SYMTOL  =  1.00D-06  GRADTOL =  1.00D-06  THROVL  =  1.00D-08
 THRORTH =  1.00D-08  GRID    =  1.00D-06  GRIDMAX =  1.00D-03  DTMAX   =  0.00D+00

 SETTING GEOMTYP        =    XYZ
 ZUNIT=BOHR
 

 Variable memory set to 1000000000 words,  buffer space   230000 words

 SETTING BASIS          =    VDZ


 Recomputing integrals since basis changed


 Using spherical harmonics

 Library entry S      S cc-pVDZ              selected for orbital group  1
 Library entry S      P cc-pVDZ              selected for orbital group  1
 Library entry S      D cc-pVDZ              selected for orbital group  1
 Library entry C      S cc-pVDZ              selected for orbital group  2
 Library entry C      P cc-pVDZ              selected for orbital group  2
 Library entry C      D cc-pVDZ              selected for orbital group  2
 Library entry H      S cc-pVDZ              selected for orbital group  3
 Library entry H      P cc-pVDZ              selected for orbital group  3

1PROGRAM * SEWARD (Integral evaluation for generally contracted gaussian basis sets)     Author: Roland Lindh, 1990

 Geometry written to block  1 of record 700


 Point group  C1  



 ATOMIC COORDINATES

 NR  ATOM    CHARGE       X              Y              Z

   1  S      16.00    0.353091791    2.699843393   -0.000535650
   2  C       6.00   -0.329006712   -3.365305564   -0.000495307
   3  C       6.00   -0.661877183    0.668983391   -2.581805769
   4  C       6.00   -0.662255693    0.669060306    2.580646119
   5  C       6.00    0.473029100   -1.981557263   -2.414359813
   6  C       6.00    0.472675123   -1.981485333    2.413445548
   7  H       1.00   -2.728117637    0.570663511   -2.585781799
   8  H       1.00   -2.728496708    0.570740543    2.584322090
   9  H       1.00   -0.072647064    1.624145434   -4.312155221
  10  H       1.00   -0.073279309    1.624273903    4.311053495
  11  H       1.00    2.525090809   -1.836955921   -2.480786297
  12  H       1.00    2.534697090   -1.836179436    2.480492811
  13  H       1.00   -0.126674578   -3.074535619   -4.066067434
  14  H       1.00   -0.130169893   -3.079695878    4.073079117
  15  H       1.00    0.466651076   -5.271996414   -0.000408561
  16  H       1.00   -2.391445227   -3.579820469   -0.000643330

 Bond lengths in Bohr (Angstrom)

  1- 3  3.437660512   1- 4  3.437660511   2- 5  2.895645465   2- 6  2.895645464   2-15  2.066044849
       ( 1.819131595)       ( 1.819131595)       ( 1.532309585)       ( 1.532309585)       ( 1.093303847)

  2-16  2.073564394   3- 5  2.888150996   3- 7  2.068582176   3- 9  2.062434456   4- 6  2.888150995
       ( 1.097283019)       ( 1.528343683)       ( 1.094646543)       ( 1.091393309)       ( 1.528343683)

  4- 8  2.068582176   4-10  2.062434456   5-11  2.058222360   5-13  2.069392242   6-12  2.068222361
       ( 1.094646543)       ( 1.091393309)       ( 1.089164364)       ( 1.095075211)       ( 1.094456136)

  6-14  2.079392242
       ( 1.100366983)

 Bond angles

  1-3-5  112.49558565   1-3-7  108.93154213   1-3-9  105.78484499   1-4-6  112.49558537

  1- 4- 8  108.93154219   1- 4-10  105.78484505   2- 5- 3  112.21281534   2- 5-11  109.67156760

  2- 5-13  109.43267537   2- 6- 4  112.21281573   2- 6-12  109.67156752   2- 6-14  109.43267533

  3- 1- 4   97.33107789   3- 5-11  108.99161332   3- 5-13  108.93892974   4- 6-12  108.99161307

  4- 6-14  108.93892961   5- 2- 6  112.94731818   5- 2-15  109.53488173   5- 2-16  108.95777539

  5- 3- 7  110.42612596   5- 3- 9  111.18611353   6- 2-15  109.53488173   6- 2-16  108.95777538

  6- 4- 8  110.42612602   6- 4-10  111.18611358   7- 3- 9  107.80465602   8- 4-10  107.80465608

 11- 5-13  107.47420345  12- 6-14  107.47420354  15- 2-16  106.71266591

 NUCLEAR CHARGE:                   56
 NUMBER OF PRIMITIVE AOS:         247
 NUMBER OF SYMMETRY AOS:          241
 NUMBER OF CONTRACTIONS:          138   ( 138A   )
 NUMBER OF CORE ORBITALS:          10   (  10A   )
 NUMBER OF VALENCE ORBITALS:       34   (  34A   )


 NUCLEAR REPULSION ENERGY  312.12493985


 Eigenvalues of metric

         1 0.286E-02 0.305E-02 0.426E-02 0.634E-02 0.704E-02 0.151E-01 0.157E-01 0.196E-01


 Contracted 2-electron integrals neglected if value below      1.0D-16
 AO integral compression algorithm  1   Integral accuracy      1.0D-16

     373.555 MB (compressed) written to integral file ( 94.1%)

     Node minimum: 373.555 MB, node maximum: 373.555 MB


 NUMBER OF SORTED TWO-ELECTRON INTEGRALS:   45998436.     BUFFER LENGTH:  32768
 NUMBER OF SEGMENTS:   3  SEGMENT LENGTH:   15998004      RECORD LENGTH: 524288

 Memory used in sort:      16.56 MW

 SORT1 READ    49669836. AND WROTE    45792032. INTEGRALS IN    132 RECORDS. CPU TIME:     0.52 SEC, REAL TIME:     0.77 SEC
 SORT2 READ    45792032. AND WROTE    45998436. INTEGRALS IN   1425 RECORDS. CPU TIME:     0.35 SEC, REAL TIME:     0.55 SEC

 FILE SIZES:   FILE 1:   349.2 MBYTE,  FILE 4:   553.7 MBYTE,   TOTAL:    902.9 MBYTE

 OPERATOR DM      FOR CENTER  0  COORDINATES:    0.000000    0.000000    0.000000


 **********************************************************************************************************************************
 DATASETS  * FILE   NREC   LENGTH (MB)   RECORD NAMES
              1      19      349.40       500      610      700      900      950      970     1000      129      960     1100   
                                          VAR    BASINP    GEOM    SYMINP    ZMAT    AOBASIS   BASIS     P2S    ABASIS      S 
                                         1400     1410     1200     1210     1080     1600     1650     1300     1700   
                                           T        V       H0       H01     AOSYM     SMH    MOLCAS    ERIS     OPER   

 PROGRAMS   *        TOTAL       INT
 CPU TIMES  *         5.24      5.19
 REAL TIME  *         6.04 SEC
 DISK USED  *         1.28 GB      
 GA USED    *         0.01 MB       (max)       0.00 MB       (current)
 **********************************************************************************************************************************

1PROGRAM * RHF-SCF (CLOSED SHELL)       Authors: W. Meyer, H.-J. Werner


 NUMBER OF ELECTRONS:      28+   28-    SPACE SYMMETRY=1    SPIN SYMMETRY: Singlet 
 CONVERGENCE THRESHOLDS:    1.00E-10 (Density)    1.00E-13 (Energy)
 MAX. NUMBER OF ITERATIONS:      200
 INTERPOLATION TYPE:            DIIS
 INTERPOLATION STEPS:              2 (START)      1 (STEP)
 LEVEL SHIFTS:                  0.00 (CLOSED)  0.00 (OPEN) 



 Orbital guess generated from atomic densities. Full valence occupancy:   44

 Molecular orbital dump at record        2100.2

 ITERATION    DDIFF          GRAD             ENERGY        2-EL.EN.            DIPOLE MOMENTS         DIIS
    1      0.000D+00      0.000D+00      -592.64384303   1056.819124   -0.41029   -0.80598    0.00216    0
    2      0.000D+00      0.396D-02      -592.70488324   1054.228114   -0.20582   -0.73827   -0.00217    1
    3      0.778D-02      0.132D-02      -592.71082346   1055.666865   -0.27909   -0.67596   -0.00191    2
    4      0.269D-02      0.540D-03      -592.71183444   1055.047054   -0.25129   -0.70876   -0.00238    3
    5      0.931D-03      0.774D-04      -592.71186017   1055.110166   -0.24730   -0.70026   -0.00251    4
    6      0.181D-03      0.267D-04      -592.71186270   1055.079271   -0.24903   -0.70054   -0.00251    5
    7      0.504D-04      0.619D-05      -592.71186291   1055.082410   -0.24837   -0.70042   -0.00252    6
    8      0.164D-04      0.173D-05      -592.71186293   1055.081554   -0.24835   -0.70029   -0.00253    7
    9      0.537D-05      0.452D-06      -592.71186293   1055.081437   -0.24834   -0.70024   -0.00253    7
   10      0.126D-05      0.162D-06      -592.71186293   1055.081474   -0.24832   -0.70024   -0.00253    7
   11      0.480D-06      0.343D-07      -592.71186293   1055.081460   -0.24833   -0.70024   -0.00253    7
   12      0.114D-06      0.689D-08      -592.71186293   1055.081466   -0.24833   -0.70024   -0.00253    7
   13      0.183D-07      0.289D-08      -592.71186293   1055.081463   -0.24833   -0.70024   -0.00253    7
   14      0.637D-08      0.860D-09      -592.71186293   1055.081464   -0.24833   -0.70024   -0.00253    7
   15      0.230D-08      0.285D-09      -592.71186293   1055.081463   -0.24833   -0.70024   -0.00253    7
   16      0.690D-09      0.955D-10      -592.71186293   1055.081463   -0.24833   -0.70024   -0.00253    8
   17      0.237D-09      0.278D-10      -592.71186293   1055.081463   -0.24833   -0.70024   -0.00253    7
   18      0.796D-10      0.115D-10      -592.71186293   1055.081463   -0.24833   -0.70024   -0.00253    8
   19      0.406D-10      0.407D-11      -592.71186293   1055.081463   -0.24833   -0.70024   -0.00253    8
   20      0.143D-10      0.131D-11      -592.71186293   1055.081463   -0.24833   -0.70024   -0.00253    8
   21      0.495D-11      0.374D-12      -592.71186293   1055.081463   -0.24833   -0.70024   -0.00253    8
   22      0.117D-11      0.121D-12      -592.71186293   1055.081463   -0.24833   -0.70024   -0.00253    8
   23      0.451D-12      0.547D-13      -592.71186293   1055.081463   -0.24833   -0.70024   -0.00253    8
   24      0.229D-12      0.427D-13      -592.71186293   1055.081463   -0.24833   -0.70024   -0.00253    0

 Final occupancy:  28

 !RHF STATE 1.1 Energy               -592.711862927879
 Nuclear energy                       312.12493985
 One-electron energy                -1432.37753446
 Two-electron energy                  527.54073168
 Virial quotient                       -1.00019563
 !RHF STATE 1.1 Dipole moment          -0.24832554    -0.70024134    -0.00252699
 Dipole moment /Debye                  -0.63113923    -1.77971939    -0.00642254

 Orbital energies:

         1.1          2.1          3.1          4.1          5.1          6.1          7.1          8.1          9.1         10.1
    -91.929815   -11.255019   -11.254963   -11.231592   -11.230471   -11.229110    -8.933704    -6.615599    -6.614166    -6.611965

        11.1         12.1         13.1         14.1         15.1         16.1         17.1         18.1         19.1         20.1
     -1.119597    -1.019955    -1.006508    -0.842398    -0.835819    -0.755935    -0.646612    -0.614700    -0.609255    -0.578504

        21.1         22.1         23.1         24.1         25.1         26.1         27.1         28.1         29.1         30.1
     -0.546773    -0.523639    -0.498210    -0.495571    -0.473268    -0.434488    -0.411671    -0.328728     0.176794     0.190344


 **********************************************************************************************************************************
 DATASETS  * FILE   NREC   LENGTH (MB)   RECORD NAMES
              1      19      349.40       500      610      700      900      950      970     1000      129      960     1100   
                                          VAR    BASINP    GEOM    SYMINP    ZMAT    AOBASIS   BASIS     P2S    ABASIS      S 
                                         1400     1410     1200     1210     1080     1600     1650     1300     1700   
                                           T        V       H0       H01     AOSYM     SMH    MOLCAS    ERIS     OPER   

              2       3        0.92       700     1000     2100   
                                         GEOM     BASIS     RHF  

 PROGRAMS   *        TOTAL       RHF       INT
 CPU TIMES  *        13.71      8.47      5.19
 REAL TIME  *        15.53 SEC
 DISK USED  *         1.28 GB      
 GA USED    *         0.01 MB       (max)       0.00 MB       (current)
 **********************************************************************************************************************************


1PROGRAM * CCSD (Closed-shell coupled cluster)     Authors: C. Hampel, H.-J. Werner, 1991, M. Deegan, P.J. Knowles, 1992


 Convergence thresholds:  THRVAR = 1.00D-08  THRDEN = 1.00D-12

 CCSD(T)     terms to be evaluated (factor= 1.000)


 Number of core orbitals:          10 (  10 )
 Number of closed-shell orbitals:  18 (  18 )
 Number of external orbitals:     110 ( 110 )

 Molecular orbitals read from record     2100.2  Type=RHF/CANONICAL (state 1.1)

 Number of N-1 electron functions:              18
 Number of N-2 electron functions:             171
 Number of singly external CSFs:              1980
 Number of doubly external CSFs:           1961190
 Total number of CSFs:                     1963171

 Length of J-op  integral file:               0.00 MB
 Length of K-op  integral file:               1.35 MB
 Length of 3-ext integral record:             0.00 MB

 Memory could be reduced to 32.58 Mwords without degradation in triples

 Integral transformation finished. Total CPU:   2.63 sec, npass=  1  Memory used:  30.89 MW

 Reference energy:                   -592.71186293

 MP2 singlet pair energy:              -0.53945902
 MP2 triplet pair energy:              -0.30435957
 MP2 correlation energy:               -0.84381859
 MP2 total energy:                   -593.55568152

 SCS-MP2 correlation energy:           -0.83673011   (PS=  1.200000  PT=  0.333333)
 SCS-MP2 total energy:               -593.54859304

 ITER.      SQ.NORM     CORR.ENERGY   TOTAL ENERGY   ENERGY CHANGE        DEN1      VAR(S)    VAR(P)  DIIS     TIME
   1      1.33970493    -0.91079651  -593.62265943    -0.06697792    -0.04301841  0.26D-02  0.55D-02  1  1    10.62
   2      1.36670255    -0.91614443  -593.62800736    -0.00534792    -0.02577798  0.69D-04  0.46D-03  2  2    18.72
   3      1.37203681    -0.91627237  -593.62813529    -0.00012793    -0.00303806  0.16D-04  0.28D-04  3  3    26.79
   4      1.37353033    -0.91633042  -593.62819335    -0.00005806    -0.00059407  0.76D-06  0.20D-05  4  4    34.88
   5      1.37377111    -0.91633703  -593.62819996    -0.00000661    -0.00007089  0.17D-06  0.16D-06  5  5    42.97
   6      1.37381681    -0.91633258  -593.62819551     0.00000445    -0.00001394  0.30D-07  0.14D-07  6  6    51.09
   7      1.37382440    -0.91633247  -593.62819540     0.00000011     0.00000064  0.53D-08  0.23D-08  6  2    59.19
   8      1.37383050    -0.91633216  -593.62819509     0.00000031    -0.00000125  0.73D-09  0.27D-09  6  1    67.29
   9      1.37383132    -0.91633209  -593.62819502     0.00000006     0.00000051  0.66D-10  0.44D-10  6  4    75.38
  10      1.37383221    -0.91633206  -593.62819499     0.00000003    -0.00000011  0.48D-11  0.35D-11  6  3    83.49
  11      1.37383222    -0.91633206  -593.62819499    -0.00000000     0.00000004  0.12D-11  0.54D-12  6  5    91.59
  12      1.37383218    -0.91633206  -593.62819499    -0.00000000     0.00000002  0.17D-12  0.77D-13  6  6    99.70
  13      1.37383213    -0.91633207  -593.62819499    -0.00000000     0.00000002  0.24D-13  0.11D-13  6  1   107.82
  14      1.37383212    -0.91633207  -593.62819500    -0.00000000     0.00000000  0.31D-14  0.12D-14  6  2   115.91
  15      1.37383212    -0.91633207  -593.62819500     0.00000000    -0.00000000  0.67D-15  0.31D-15  6  4   124.01
  16      1.37383212    -0.91633207  -593.62819499     0.00000000    -0.00000000  0.32D-16  0.23D-16  6  5   132.12
  17      1.37383212    -0.91633207  -593.62819499     0.00000000    -0.00000000  0.57D-17  0.24D-17  6  3   140.22
  18      1.37383212    -0.91633207  -593.62819499     0.00000000    -0.00000000  0.18D-17  0.49D-18  6  6   148.33
  19      1.37383212    -0.91633207  -593.62819499     0.00000000    -0.00000000  0.37D-18  0.11D-18  6  1   156.44
  20      1.37383212    -0.91633207  -593.62819499     0.00000000     0.00000000  0.45D-19  0.17D-19  6  2   164.53
  21      1.37383212    -0.91633207  -593.62819499    -0.00000000     0.00000000  0.82D-20  0.34D-20  6  4   172.63

 Norm of t1 vector:      0.07015340      S-energy:    -0.00000000      T1 diagnostic:  0.00826766
                                                                       D1 diagnostic:  0.02108549


 Total CPU time for triples:    123.18 sec


 RESULTS
 =======

  Reference energy                   -592.711862927880
  CCSD singlet pair energy             -0.634216187636
  CCSD triplet pair energy             -0.282115879421
  CCSD correlation energy              -0.916332067057

  Triples (T) contribution             -0.029867692814
  Total correlation energy             -0.946199759871

  CCSD total energy                  -593.628194994937
  CCSD[T] energy                     -593.658682147780
  CCSD-T energy                      -593.657751465560
 !CCSD(T) total energy               -593.658062687751

 Timing summary (sec):

 STEP                 CPU(USER)    SYS     CPU(TOT)    WALL
 Transformation          2.75      0.23      2.98      2.98
 CCSD iterations       169.88      2.94    172.82    172.90
 Triples               123.18      2.27    125.45    125.47

 Program statistics:

 Available memory in ccsd:               999998604
 Min. memory needed in ccsd:               5123362
 Max. memory used in ccsd:                 6867976
 Max. memory used in cckext:               6836871 (21 integral passes)



 **********************************************************************************************************************************
 DATASETS  * FILE   NREC   LENGTH (MB)   RECORD NAMES
              1      20      485.78       500      610      700      900      950      970     1000      129      960     1100   
                                          VAR    BASINP    GEOM    SYMINP    ZMAT    AOBASIS   BASIS     P2S    ABASIS      S 
                                         1400     1410     1200     1210     1080     1600     1650     1300     1700     1380   
                                           T        V       H0       H01     AOSYM     SMH    MOLCAS    ERIS     OPER     JKOP   

              2       3        0.92       700     1000     2100   
                                         GEOM     BASIS     RHF  

 PROGRAMS   *        TOTAL   CCSD(T)       RHF       INT
 CPU TIMES  *       309.53    295.81      8.47      5.19
 REAL TIME  *       316.94 SEC
 DISK USED  *         1.28 GB      
 GA USED    *         0.01 MB       (max)       0.00 MB       (current)
 **********************************************************************************************************************************

        CCSD(T)         RHF-SCF 
   -593.65806269   -592.71186293
 **********************************************************************************************************************************
 Variable memory released
