
 Primary working directories    : /tmp/985636.1148.gen4.q
 Secondary working directories  : /tmp/985636.1148.gen4.q
 Wavefunction directory         : /home/vulcan/jj04645/wfu/
 Main file repository           : /tmp/985636.1148.gen4.q/

 ARCHNAME  : Linux/x86_64
 FC        : /opt/intel/compilers_and_libraries_2016.1.150/linux/bin/intel64/ifort
 FCVERSION : 16.0.1
 BLASLIB   : -mkl
 id        : ccgc

 Nodes     nprocs
 n026         1
 ga_uses_ma=false, calling ma_init with nominal heap.
 GA-space will be limited to   8.0 MW (determined by -G option)

 Using customized tuning parameters: mindgm=10; mindgv=16; mindgc=4; mindgr=1; noblas=0; mincuda=1000; minvec=7
 default implementation of scratch files=df  

 ***,Optimization of tetrahydrothiopyran
 memory,1000,m
 gthresh,energy=1.0d-12,orbital=1.0d-10,oneint=1.0d-16,twoint=1.0d-16,optgrad=1.0d-6,compress=1.0d-13
 geomtyp=xyz
 
 bohr
 geometry = {
  S    0.3556740424    2.6937257350    0.0000000000
  C   -0.3325291171   -3.3698078515   -0.0000000000
  C   -0.6632380689    0.6701001352   -2.5853950125
  C   -0.6632380689    0.6701001352    2.5853950125
  C    0.4695636082   -1.9808842198   -2.4108714244
  C    0.4695636082   -1.9808842198    2.4108714244
  H   -2.7296302816    0.5751291381   -2.5913911403
  H   -2.7296302816    0.5751291381    2.5913911403
  H   -0.0689930732    1.6241142882   -4.3146624200
  H   -0.0689930732    1.6241142882    4.3146624200
  H    2.5310106154   -1.8283820996   -2.4795960360
  H    2.5310106154   -1.8283820996    2.4795960360
  H   -0.1256836943   -3.0811536774   -4.0593470903
  H   -0.1256836943   -3.0811536774    4.0593470903
  H    0.4667893135   -5.2749669961   -0.0000000000
  H   -2.3947274667   -3.5866194338   -0.0000000000
 }
 
 basis=VDZ
 {rhf;maxit,200}
 {ccsd(t);maxit,200}

 Variables initialized (661), CPU time= 0.00 sec
 Commands  initialized (458), CPU time= 0.01 sec, 486 directives.
 Default parameters read. Elapsed time= 0.06 sec

 Checking input...
 Passed
1


                                         ***  PROGRAM SYSTEM MOLPRO  ***
                         Copyright, University College Cardiff Consultants Limited, 2008

                                    Version 2010.1 linked May 16 2016 07:17:05


 **********************************************************************************************************************************
 LABEL *   Optimization of tetrahydrothiopyran                                           
 Linux-4.4.3/n026(x86_64) 64 bit mpp version                                             DATE: 26-Jan-24          TIME: 16:28:00  
 **********************************************************************************************************************************

 SHA1:             9e8077add272b0f3cad6f7df79ec5211205f459d
 **********************************************************************************************************************************

 THRESHOLDS:

 ZERO    =  1.00D-12  ONEINT  =  1.00D-16  TWOINT  =  1.00D-16  PREFAC  =  1.00D-14  LOCALI  =  1.00D-09  EORDER  =  1.00D-04
 ENERGY  =  1.00D-12  ETEST   =  0.00D+00  EDENS   =  0.00D+00  THRDEDEF=  1.00D-06  GRADIENT=  1.00D-02  STEP    =  1.00D-03
 ORBITAL =  1.00D-10  CIVEC   =  1.00D-05  COEFF   =  1.00D-04  PRINTCI =  5.00D-02  PUNCHCI =  9.90D+01  OPTGRAD =  1.00D-06
 OPTENERG=  1.00D-06  OPTSTEP =  3.00D-04  THRGRAD =  1.00D-10  COMPRESS=  1.00D-13  VARMIN  =  1.00D-07  VARMAX  =  1.00D-03
 THRDOUB =  0.00D+00  THRDIV  =  1.00D-05  THRRED  =  1.00D-07  THRPSP  =  1.00D+00  THRDC   =  1.00D-10  THRCS   =  1.00D-10
 THRNRM  =  1.00D-08  THREQ   =  0.00D+00  THRDE   =  1.00D+00  THRREF  =  1.00D-05  SPARFAC =  1.00D+00  THRDLP  =  1.00D-07
 THRDIA  =  1.00D-10  THRDLS  =  1.00D-07  THRGPS  =  0.00D+00  THRKEX  =  0.00D+00  THRDIS  =  2.00D-01  THRVAR  =  1.00D-10
 THRLOC  =  1.00D-06  THRGAP  =  1.00D-06  THRLOCT = -1.00D+00  THRGAPT = -1.00D+00  THRORB  =  1.00D-06  THRMLTP =  0.00D+00
 THRCPQCI=  1.00D-10  KEXTA   =  0.00D+00  THRCOARS=  0.00D+00  SYMTOL  =  1.00D-06  GRADTOL =  1.00D-06  THROVL  =  1.00D-08
 THRORTH =  1.00D-08  GRID    =  1.00D-06  GRIDMAX =  1.00D-03  DTMAX   =  0.00D+00

 SETTING GEOMTYP        =    XYZ
 ZUNIT=BOHR
 

 Variable memory set to 1000000000 words,  buffer space   230000 words

 SETTING BASIS          =    VDZ


 Recomputing integrals since basis changed


 Using spherical harmonics

 Library entry S      S cc-pVDZ              selected for orbital group  1
 Library entry S      P cc-pVDZ              selected for orbital group  1
 Library entry S      D cc-pVDZ              selected for orbital group  1
 Library entry C      S cc-pVDZ              selected for orbital group  2
 Library entry C      P cc-pVDZ              selected for orbital group  2
 Library entry C      D cc-pVDZ              selected for orbital group  2
 Library entry H      S cc-pVDZ              selected for orbital group  3
 Library entry H      P cc-pVDZ              selected for orbital group  3

1PROGRAM * SEWARD (Integral evaluation for generally contracted gaussian basis sets)     Author: Roland Lindh, 1990

 Geometry written to block  1 of record 700


 Point group  Cs  



 ATOMIC COORDINATES

 NR  ATOM    CHARGE       X              Y              Z

   1  S      16.00    0.355674042    2.693725735    0.000000000
   2  C       6.00   -0.332529117   -3.369807852    0.000000000
   3  C       6.00   -0.663238069    0.670100135   -2.585395012
   4  C       6.00   -0.663238069    0.670100135    2.585395012
   5  C       6.00    0.469563608   -1.980884220   -2.410871424
   6  C       6.00    0.469563608   -1.980884220    2.410871424
   7  H       1.00   -2.729630282    0.575129138   -2.591391140
   8  H       1.00   -2.729630282    0.575129138    2.591391140
   9  H       1.00   -0.068993073    1.624114288   -4.314662420
  10  H       1.00   -0.068993073    1.624114288    4.314662420
  11  H       1.00    2.531010615   -1.828382100   -2.479596036
  12  H       1.00    2.531010615   -1.828382100    2.479596036
  13  H       1.00   -0.125683694   -3.081153677   -4.059347090
  14  H       1.00   -0.125683694   -3.081153677    4.059347090
  15  H       1.00    0.466789314   -5.274966996    0.000000000
  16  H       1.00   -2.394727467   -3.586619434    0.000000000

 Bond lengths in Bohr (Angstrom)

  1- 3  3.437660517   1- 4  3.437660517   2- 5  2.895645458   2- 6  2.895645458   2-15  2.066044849
       ( 1.819131598)       ( 1.819131598)       ( 1.532309582)       ( 1.532309582)       ( 1.093303847)

  2-16  2.073564394   3- 5  2.888150996   3- 7  2.068582176   3- 9  2.062434456   4- 6  2.888150996
       ( 1.097283019)       ( 1.528343683)       ( 1.094646543)       ( 1.091393309)       ( 1.528343683)

  4- 8  2.068582176   4-10  2.062434456   5-11  2.068222360   5-13  2.069392242   6-12  2.068222360
       ( 1.094646543)       ( 1.091393309)       ( 1.094456136)       ( 1.095075211)       ( 1.094456136)

  6-14  2.069392242
       ( 1.095075211)

 Bond angles

  1-3-5  112.24847750   1-3-7  108.98311032   1-3-9  105.83641318   1-4-6  112.24847750

  1- 4- 8  108.98311032   1- 4-10  105.83641318   2- 5- 3  112.45367374   2- 5-11  109.82364176

  2- 5-13  109.17960717   2- 6- 4  112.45367374   2- 6-12  109.82364176   2- 6-14  109.17960717

  3- 1- 4   97.54171727   3- 5-11  108.73854498   3- 5-13  109.09100389   4- 6-12  108.73854498

  4- 6-14  109.09100389   5- 2- 6  112.73043816   5- 2-15  109.58112083   5- 2-16  109.00401448

  5- 3- 7  110.47769411   5- 3- 9  111.23768170   6- 2-15  109.58112083   6- 2-16  109.00401448

  6- 4- 8  110.47769411   6- 4-10  111.23768170   7- 3- 9  107.85622423   8- 4-10  107.85622423

 11- 5-13  107.42370662  12- 6-14  107.42370662  15- 2-16  106.75890490

 NUCLEAR CHARGE:                   56
 NUMBER OF PRIMITIVE AOS:         247
 NUMBER OF SYMMETRY AOS:          241
 NUMBER OF CONTRACTIONS:          138   (  79A'  +  59A"  )
 NUMBER OF CORE ORBITALS:          10   (   7A'  +   3A"  )
 NUMBER OF VALENCE ORBITALS:       34   (  20A'  +  14A"  )


 NUCLEAR REPULSION ENERGY  312.15334944


 Eigenvalues of metric

         1 0.305E-02 0.426E-02 0.634E-02 0.157E-01 0.198E-01 0.238E-01 0.283E-01 0.342E-01
         2 0.286E-02 0.703E-02 0.151E-01 0.196E-01 0.220E-01 0.343E-01 0.351E-01 0.358E-01


 Contracted 2-electron integrals neglected if value below      1.0D-16
 AO integral compression algorithm  1   Integral accuracy      1.0D-16

     207.094 MB (compressed) written to integral file ( 97.6%)

     Node minimum: 207.094 MB, node maximum: 207.094 MB


 NUMBER OF SORTED TWO-ELECTRON INTEGRALS:   23341315.     BUFFER LENGTH:  32768
 NUMBER OF SEGMENTS:   2  SEGMENT LENGTH:   15994315      RECORD LENGTH: 524288

 Memory used in sort:      16.55 MW

 SORT1 READ    26508478. AND WROTE    23261991. INTEGRALS IN     68 RECORDS. CPU TIME:     0.35 SEC, REAL TIME:     0.51 SEC
 SORT2 READ    23261991. AND WROTE    23341315. INTEGRALS IN    790 RECORDS. CPU TIME:     0.26 SEC, REAL TIME:     0.38 SEC

 FILE SIZES:   FILE 1:   187.9 MBYTE,  FILE 4:   285.2 MBYTE,   TOTAL:    473.2 MBYTE

 OPERATOR DM      FOR CENTER  0  COORDINATES:    0.000000    0.000000    0.000000


 **********************************************************************************************************************************
 DATASETS  * FILE   NREC   LENGTH (MB)   RECORD NAMES
              1      19      188.03       500      610      700      900      950      970     1000      129      960     1100   
                                          VAR    BASINP    GEOM    SYMINP    ZMAT    AOBASIS   BASIS     P2S    ABASIS      S 
                                         1400     1410     1200     1210     1080     1600     1650     1300     1700   
                                           T        V       H0       H01     AOSYM     SMH    MOLCAS    ERIS     OPER   

 PROGRAMS   *        TOTAL       INT
 CPU TIMES  *         4.16      4.11
 REAL TIME  *         4.75 SEC
 DISK USED  *       681.26 MB      
 GA USED    *         0.00 MB       (max)       0.00 MB       (current)
 **********************************************************************************************************************************

1PROGRAM * RHF-SCF (CLOSED SHELL)       Authors: W. Meyer, H.-J. Werner


 NUMBER OF ELECTRONS:      28+   28-
 CONVERGENCE THRESHOLDS:    1.00E-10 (Density)    1.00E-13 (Energy)
 MAX. NUMBER OF ITERATIONS:      200
 INTERPOLATION TYPE:            DIIS
 INTERPOLATION STEPS:              2 (START)      1 (STEP)
 LEVEL SHIFTS:                  0.00 (CLOSED)  0.00 (OPEN) 



 Orbital guess generated from atomic densities. Full valence occupancy:   27  17

 Molecular orbital dump at record        2100.2

 Initial alpha occupancy:  18  10
 Initial beta  occupancy:  18  10
 Wave function symmetry:    1

 ITERATION    DDIFF          GRAD             ENERGY        2-EL.EN.            DIPOLE MOMENTS         DIIS
    1      0.000D+00      0.000D+00      -592.64387656   1056.877073   -0.40962   -0.80492    0.00000    0
    2      0.000D+00      0.552D-02      -592.70491944   1054.291089   -0.20932   -0.73961    0.00000    1
    3      0.109D-01      0.185D-02      -592.71085910   1055.726807   -0.28199   -0.67717    0.00000    2
    4      0.375D-02      0.753D-03      -592.71186959   1055.108556   -0.25479   -0.71012    0.00000    3
    5      0.130D-02      0.108D-03      -592.71189528   1055.171575   -0.25089   -0.70169    0.00000    4
    6      0.252D-03      0.371D-04      -592.71189778   1055.140660   -0.25261   -0.70196    0.00000    5
    7      0.700D-04      0.863D-05      -592.71189799   1055.143837   -0.25194   -0.70185    0.00000    6
    8      0.229D-04      0.241D-05      -592.71189801   1055.142986   -0.25193   -0.70171    0.00000    7
    9      0.747D-05      0.630D-06      -592.71189801   1055.142865   -0.25191   -0.70167    0.00000    7
   10      0.176D-05      0.225D-06      -592.71189801   1055.142904   -0.25190   -0.70167    0.00000    7
   11      0.670D-06      0.478D-07      -592.71189801   1055.142890   -0.25190   -0.70167    0.00000    7
   12      0.159D-06      0.961D-08      -592.71189801   1055.142895   -0.25190   -0.70167    0.00000    7
   13      0.255D-07      0.401D-08      -592.71189801   1055.142892   -0.25190   -0.70167    0.00000    7
   14      0.884D-08      0.117D-08      -592.71189801   1055.142893   -0.25190   -0.70167    0.00000    7
   15      0.314D-08      0.382D-09      -592.71189801   1055.142893   -0.25190   -0.70167    0.00000    7
   16      0.914D-09      0.117D-09      -592.71189801   1055.142893   -0.25190   -0.70167    0.00000    8
   17      0.282D-09      0.251D-10      -592.71189801   1055.142893   -0.25190   -0.70167    0.00000    7
   18      0.663D-10      0.733D-11      -592.71189801   1055.142893   -0.25190   -0.70167    0.00000    7
   19      0.227D-10      0.239D-11      -592.71189801   1055.142893   -0.25190   -0.70167    0.00000    8
   20      0.663D-11      0.686D-12      -592.71189801   1055.142893   -0.25190   -0.70167    0.00000    7
   21      0.199D-11      0.201D-12      -592.71189801   1055.142893   -0.25190   -0.70167    0.00000    0

 Final occupancy:  18  10

 !RHF STATE 1.1 Energy               -592.711898007249
 Nuclear energy                       312.15334944
 One-electron energy                -1432.43669385
 Two-electron energy                  527.57144640
 Virial quotient                       -1.00019562
 !RHF STATE 1.1 Dipole moment          -0.25190313    -0.70166595     0.00000000
 Dipole moment /Debye                  -0.64023196    -1.78334014     0.00000000

 Orbital energies:

         1.1          2.1          3.1          4.1          5.1          6.1          7.1          8.1          9.1         10.1
    -91.929631   -11.255101   -11.230900   -11.229256    -8.933542    -6.614004    -6.611805    -1.119546    -1.006497    -0.835786

        11.1         12.1         13.1         14.1         15.1         16.1         17.1         18.1         19.1         20.1
     -0.755706    -0.646725    -0.609437    -0.578570    -0.496112    -0.473044    -0.411482    -0.328630     0.176880     0.201321

         1.2          2.2          3.2          4.2          5.2          6.2          7.2          8.2          9.2         10.2
    -11.255114   -11.230799    -6.615438    -1.019962    -0.842416    -0.614677    -0.547263    -0.523325    -0.497719    -0.434409

        11.2         12.2
      0.190440     0.223188


 **********************************************************************************************************************************
 DATASETS  * FILE   NREC   LENGTH (MB)   RECORD NAMES
              1      19      188.03       500      610      700      900      950      970     1000      129      960     1100   
                                          VAR    BASINP    GEOM    SYMINP    ZMAT    AOBASIS   BASIS     P2S    ABASIS      S 
                                         1400     1410     1200     1210     1080     1600     1650     1300     1700   
                                           T        V       H0       H01     AOSYM     SMH    MOLCAS    ERIS     OPER   

              2       3        0.73       700     1000     2100   
                                         GEOM     BASIS     RHF  

 PROGRAMS   *        TOTAL       RHF       INT
 CPU TIMES  *         6.71      2.54      4.11
 REAL TIME  *         7.77 SEC
 DISK USED  *       681.26 MB      
 GA USED    *         0.00 MB       (max)       0.00 MB       (current)
 **********************************************************************************************************************************


1PROGRAM * CCSD (Closed-shell coupled cluster)     Authors: C. Hampel, H.-J. Werner, 1991, M. Deegan, P.J. Knowles, 1992


 Convergence thresholds:  THRVAR = 1.00D-08  THRDEN = 1.00D-12

 CCSD(T)     terms to be evaluated (factor= 1.000)


 Number of core orbitals:          10 (   7   3 )
 Number of closed-shell orbitals:  18 (  11   7 )
 Number of external orbitals:     110 (  61  49 )

 Molecular orbitals read from record     2100.2  Type=RHF/CANONICAL (state 1.1)

 Number of N-1 electron functions:              18
 Number of N-2 electron functions:             171
 Number of singly external CSFs:              1014
 Number of doubly external CSFs:            981666
 Total number of CSFs:                      982681

 Length of J-op  integral file:               0.00 MB
 Length of K-op  integral file:               0.70 MB
 Length of 3-ext integral record:             0.00 MB

 Memory could be reduced to 16.31 Mwords without degradation in triples

 Integral transformation finished. Total CPU:   1.05 sec, npass=  1  Memory used:  10.63 MW

 Reference energy:                   -592.71189801

 MP2 singlet pair energy:              -0.53944145
 MP2 triplet pair energy:              -0.30434553
 MP2 correlation energy:               -0.84378699
 MP2 total energy:                   -593.55568499

 SCS-MP2 correlation energy:           -0.83670030   (PS=  1.200000  PT=  0.333333)
 SCS-MP2 total energy:               -593.54859830

 ITER.      SQ.NORM     CORR.ENERGY   TOTAL ENERGY   ENERGY CHANGE        DEN1      VAR(S)    VAR(P)  DIIS     TIME
   1      1.33969233    -0.91077121  -593.62266921    -0.06698422    -0.04302756  0.26D-02  0.55D-02  1  1     3.57
   2      1.36668741    -0.91611936  -593.62801737    -0.00534816    -0.02577649  0.69D-04  0.46D-03  2  2     6.16
   3      1.37201966    -0.91624722  -593.62814522    -0.00012786    -0.00303725  0.16D-04  0.28D-04  3  3     8.76
   4      1.37351220    -0.91630526  -593.62820327    -0.00005805    -0.00059375  0.76D-06  0.20D-05  4  4    11.36
   5      1.37375267    -0.91631188  -593.62820988    -0.00000661    -0.00007084  0.17D-06  0.16D-06  5  5    13.98
   6      1.37379824    -0.91630743  -593.62820544     0.00000444    -0.00001391  0.30D-07  0.14D-07  6  6    16.59
   7      1.37380579    -0.91630732  -593.62820533     0.00000011     0.00000064  0.53D-08  0.23D-08  6  2    19.20
   8      1.37381186    -0.91630701  -593.62820502     0.00000031    -0.00000125  0.73D-09  0.27D-09  6  1    21.82
   9      1.37381268    -0.91630695  -593.62820495     0.00000006     0.00000051  0.65D-10  0.44D-10  6  4    24.47
  10      1.37381356    -0.91630691  -593.62820492     0.00000003    -0.00000011  0.47D-11  0.35D-11  6  3    27.12
  11      1.37381357    -0.91630691  -593.62820492    -0.00000000     0.00000004  0.11D-11  0.54D-12  6  5    29.73
  12      1.37381354    -0.91630692  -593.62820492    -0.00000000     0.00000002  0.17D-12  0.77D-13  6  6    32.34
  13      1.37381349    -0.91630692  -593.62820493    -0.00000000     0.00000002  0.24D-13  0.11D-13  6  1    34.95
  14      1.37381348    -0.91630692  -593.62820493    -0.00000000     0.00000000  0.31D-14  0.12D-14  6  2    37.56
  15      1.37381348    -0.91630692  -593.62820493     0.00000000    -0.00000000  0.68D-15  0.31D-15  6  4    40.18
  16      1.37381348    -0.91630692  -593.62820493     0.00000000    -0.00000000  0.33D-16  0.23D-16  6  5    42.80
  17      1.37381348    -0.91630692  -593.62820493     0.00000000    -0.00000000  0.58D-17  0.25D-17  6  3    45.41
  18      1.37381348    -0.91630692  -593.62820493     0.00000000    -0.00000000  0.19D-17  0.50D-18  6  6    48.03
  19      1.37381348    -0.91630692  -593.62820493     0.00000000    -0.00000000  0.38D-18  0.12D-18  6  1    50.64
  20      1.37381348    -0.91630692  -593.62820493     0.00000000     0.00000000  0.47D-19  0.18D-19  6  2    53.27
  21      1.37381348    -0.91630692  -593.62820493    -0.00000000     0.00000000  0.84D-20  0.35D-20  6  4    55.89

 Norm of t1 vector:      0.07013686      S-energy:    -0.00000000      T1 diagnostic:  0.00826571
                                                                       D1 diagnostic:  0.02109703


 Total CPU time for triples:     49.42 sec


 RESULTS
 =======

  Reference energy                   -592.711898007251
  CCSD singlet pair energy             -0.634198067634
  CCSD triplet pair energy             -0.282108850205
  CCSD correlation energy              -0.916306917839

  Triples (T) contribution             -0.029864528626
  Total correlation energy             -0.946171446465

  CCSD total energy                  -593.628204925089
  CCSD[T] energy                     -593.658688749963
  CCSD-T energy                      -593.657758256607
 !CCSD(T) total energy               -593.658069453715

 Timing summary (sec):

 STEP                 CPU(USER)    SYS     CPU(TOT)    WALL
 Transformation          1.10      0.13      1.23      1.23
 CCSD iterations        54.79      1.49     56.28     56.59
 Triples                49.42      1.19     50.61     50.63

 Program statistics:

 Available memory in ccsd:               999998604
 Min. memory needed in ccsd:               2548392
 Max. memory used in ccsd:                 3412984
 Max. memory used in cckext:               3730705 (21 integral passes)



 **********************************************************************************************************************************
 DATASETS  * FILE   NREC   LENGTH (MB)   RECORD NAMES
              1      20      256.20       500      610      700      900      950      970     1000      129      960     1100   
                                          VAR    BASINP    GEOM    SYMINP    ZMAT    AOBASIS   BASIS     P2S    ABASIS      S 
                                         1400     1410     1200     1210     1080     1600     1650     1300     1700     1380   
                                           T        V       H0       H01     AOSYM     SMH    MOLCAS    ERIS     OPER     JKOP   

              2       3        0.73       700     1000     2100   
                                         GEOM     BASIS     RHF  

 PROGRAMS   *        TOTAL   CCSD(T)       RHF       INT
 CPU TIMES  *       112.03    105.32      2.54      4.11
 REAL TIME  *       116.27 SEC
 DISK USED  *       681.26 MB      
 GA USED    *         0.00 MB       (max)       0.00 MB       (current)
 **********************************************************************************************************************************

        CCSD(T)         RHF-SCF 
   -593.65806945   -592.71189801
 **********************************************************************************************************************************
 Variable memory released
