
 Primary working directories    : /tmp/985636.596.gen4.q
 Secondary working directories  : /tmp/985636.596.gen4.q
 Wavefunction directory         : /home/vulcan/jj04645/wfu/
 Main file repository           : /tmp/985636.596.gen4.q/

 ARCHNAME  : Linux/x86_64
 FC        : /opt/intel/compilers_and_libraries_2016.1.150/linux/bin/intel64/ifort
 FCVERSION : 16.0.1
 BLASLIB   : -mkl
 id        : ccgc

 Nodes     nprocs
 n067         1
 ga_uses_ma=false, calling ma_init with nominal heap.
 GA-space will be limited to   8.0 MW (determined by -G option)

 Using customized tuning parameters: mindgm=10; mindgv=16; mindgc=4; mindgr=1; noblas=0; mincuda=1000; minvec=7
 default implementation of scratch files=df  

 ***,Optimization of tetrahydrothiopyran
 memory,1000,m
 gthresh,energy=1.0d-12,orbital=1.0d-10,oneint=1.0d-16,twoint=1.0d-16,optgrad=1.0d-6,compress=1.0d-13
 geomtyp=xyz
 
 bohr
 geometry = {
  S    0.3534097576    2.6988939269    0.0006726925
  C   -0.3292086489   -3.3661965978    0.0004555404
  C   -0.6616785296    0.6682243447   -2.5807003136
  C   -0.6621665512    0.6680944365    2.5817515310
  C    0.4729969848   -1.9824202941   -2.4133364822
  C    0.4725405983   -1.9825417811    2.4144688292
  H   -2.7329216791    0.5698445256   -2.5847338396
  H   -2.7234217024    0.5701888691    2.5853709649
  H   -0.0709010561    1.6257208589   -4.3151937936
  H   -0.0745729790    1.6208727483    4.3080144959
  H    2.5349616115   -1.8337298329   -2.4744655054
  H    2.5344936301   -1.8338544065    2.4759951816
  H   -0.1330591605   -3.0746116712   -4.0632450242
  H   -0.1338274722   -3.0748161908    4.0642077872
  H    0.4662857196   -5.2729556354    0.0004827590
  H   -2.3916655395   -3.5805347168    0.0002551767
 }
 
 basis=VDZ
 {rhf;maxit,200}
 {ccsd(t);maxit,200}

 Variables initialized (661), CPU time= 0.00 sec
 Commands  initialized (458), CPU time= 0.01 sec, 486 directives.
 Default parameters read. Elapsed time= 0.04 sec

 Checking input...
 Passed
1


                                         ***  PROGRAM SYSTEM MOLPRO  ***
                         Copyright, University College Cardiff Consultants Limited, 2008

                                    Version 2010.1 linked May 16 2016 07:17:05


 **********************************************************************************************************************************
 LABEL *   Optimization of tetrahydrothiopyran                                           
 Linux-4.4.3/n067(x86_64) 64 bit mpp version                                             DATE: 26-Jan-24          TIME: 13:48:14  
 **********************************************************************************************************************************

 SHA1:             9e8077add272b0f3cad6f7df79ec5211205f459d
 **********************************************************************************************************************************

 THRESHOLDS:

 ZERO    =  1.00D-12  ONEINT  =  1.00D-16  TWOINT  =  1.00D-16  PREFAC  =  1.00D-14  LOCALI  =  1.00D-09  EORDER  =  1.00D-04
 ENERGY  =  1.00D-12  ETEST   =  0.00D+00  EDENS   =  0.00D+00  THRDEDEF=  1.00D-06  GRADIENT=  1.00D-02  STEP    =  1.00D-03
 ORBITAL =  1.00D-10  CIVEC   =  1.00D-05  COEFF   =  1.00D-04  PRINTCI =  5.00D-02  PUNCHCI =  9.90D+01  OPTGRAD =  1.00D-06
 OPTENERG=  1.00D-06  OPTSTEP =  3.00D-04  THRGRAD =  1.00D-10  COMPRESS=  1.00D-13  VARMIN  =  1.00D-07  VARMAX  =  1.00D-03
 THRDOUB =  0.00D+00  THRDIV  =  1.00D-05  THRRED  =  1.00D-07  THRPSP  =  1.00D+00  THRDC   =  1.00D-10  THRCS   =  1.00D-10
 THRNRM  =  1.00D-08  THREQ   =  0.00D+00  THRDE   =  1.00D+00  THRREF  =  1.00D-05  SPARFAC =  1.00D+00  THRDLP  =  1.00D-07
 THRDIA  =  1.00D-10  THRDLS  =  1.00D-07  THRGPS  =  0.00D+00  THRKEX  =  0.00D+00  THRDIS  =  2.00D-01  THRVAR  =  1.00D-10
 THRLOC  =  1.00D-06  THRGAP  =  1.00D-06  THRLOCT = -1.00D+00  THRGAPT = -1.00D+00  THRORB  =  1.00D-06  THRMLTP =  0.00D+00
 THRCPQCI=  1.00D-10  KEXTA   =  0.00D+00  THRCOARS=  0.00D+00  SYMTOL  =  1.00D-06  GRADTOL =  1.00D-06  THROVL  =  1.00D-08
 THRORTH =  1.00D-08  GRID    =  1.00D-06  GRIDMAX =  1.00D-03  DTMAX   =  0.00D+00

 SETTING GEOMTYP        =    XYZ
 ZUNIT=BOHR
 

 Variable memory set to 1000000000 words,  buffer space   230000 words

 SETTING BASIS          =    VDZ


 Recomputing integrals since basis changed


 Using spherical harmonics

 Library entry S      S cc-pVDZ              selected for orbital group  1
 Library entry S      P cc-pVDZ              selected for orbital group  1
 Library entry S      D cc-pVDZ              selected for orbital group  1
 Library entry C      S cc-pVDZ              selected for orbital group  2
 Library entry C      P cc-pVDZ              selected for orbital group  2
 Library entry C      D cc-pVDZ              selected for orbital group  2
 Library entry H      S cc-pVDZ              selected for orbital group  3
 Library entry H      P cc-pVDZ              selected for orbital group  3

1PROGRAM * SEWARD (Integral evaluation for generally contracted gaussian basis sets)     Author: Roland Lindh, 1990

 Geometry written to block  1 of record 700


 Point group  C1  



 ATOMIC COORDINATES

 NR  ATOM    CHARGE       X              Y              Z

   1  S      16.00    0.353409758    2.698893927    0.000672692
   2  C       6.00   -0.329208649   -3.366196598    0.000455540
   3  C       6.00   -0.661678530    0.668224345   -2.580700314
   4  C       6.00   -0.662166551    0.668094436    2.581751531
   5  C       6.00    0.472996985   -1.982420294   -2.413336482
   6  C       6.00    0.472540598   -1.982541781    2.414468829
   7  H       1.00   -2.732921679    0.569844526   -2.584733840
   8  H       1.00   -2.723421702    0.570188869    2.585370965
   9  H       1.00   -0.070901056    1.625720859   -4.315193794
  10  H       1.00   -0.074572979    1.620872748    4.308014496
  11  H       1.00    2.534961611   -1.833729833   -2.474465505
  12  H       1.00    2.534493630   -1.833854406    2.475995182
  13  H       1.00   -0.133059160   -3.074611671   -4.063245024
  14  H       1.00   -0.133827472   -3.074816191    4.064207787
  15  H       1.00    0.466285720   -5.272955635    0.000482759
  16  H       1.00   -2.391665539   -3.580534717    0.000255177

 Bond lengths in Bohr (Angstrom)

  1- 3  3.437660510   1- 4  3.437660510   2- 5  2.895645466   2- 6  2.895645466   2-15  2.066044849
       ( 1.819131594)       ( 1.819131594)       ( 1.532309586)       ( 1.532309586)       ( 1.093303847)

  2-16  2.073564394   3- 5  2.888150996   3- 7  2.073582176   3- 9  2.067434456   4- 6  2.888150996
       ( 1.097283019)       ( 1.528343683)       ( 1.097292429)       ( 1.094039195)       ( 1.528343683)

  4- 8  2.063582176   4-10  2.057434456   5-11  2.068222361   5-13  2.069392242   6-12  2.068222361
       ( 1.092000657)       ( 1.088747423)       ( 1.094456136)       ( 1.095075211)       ( 1.094456136)

  6-14  2.069392242
       ( 1.095075211)

 Bond angles

  1-3-5  112.49558599   1-3-7  108.93154205   1-3-9  105.78484491   1-4-6  112.49558599

  1- 4- 8  108.93154206   1- 4-10  105.78484491   2- 5- 3  112.21281633   2- 5-11  109.58437528

  2- 5-13  109.34548306   2- 6- 4  112.21281633   2- 6-12  109.58437528   2- 6-14  109.34548305

  3- 1- 4   97.33107711   3- 5-11  108.90442083   3- 5-13  108.85173741   4- 6-12  108.90442083

  4- 6-14  108.85173741   5- 2- 6  112.94731662   5- 2-15  109.53488205   5- 2-16  108.95777571

  5- 3- 7  110.42612590   5- 3- 9  111.18611346   6- 2-15  109.53488206   6- 2-16  108.95777571

  6- 4- 8  110.42612590   6- 4-10  111.18611346   7- 3- 9  107.80465595   8- 4-10  107.80465595

 11- 5-13  107.83997418  12- 6-14  107.83997418  15- 2-16  106.71266627

 NUCLEAR CHARGE:                   56
 NUMBER OF PRIMITIVE AOS:         247
 NUMBER OF SYMMETRY AOS:          241
 NUMBER OF CONTRACTIONS:          138   ( 138A   )
 NUMBER OF CORE ORBITALS:          10   (  10A   )
 NUMBER OF VALENCE ORBITALS:       34   (  34A   )


 NUCLEAR REPULSION ENERGY  312.14474239


 Eigenvalues of metric

         1 0.285E-02 0.305E-02 0.426E-02 0.634E-02 0.704E-02 0.151E-01 0.157E-01 0.196E-01


 Contracted 2-electron integrals neglected if value below      1.0D-16
 AO integral compression algorithm  1   Integral accuracy      1.0D-16

     373.817 MB (compressed) written to integral file ( 94.1%)

     Node minimum: 373.817 MB, node maximum: 373.817 MB


 NUMBER OF SORTED TWO-ELECTRON INTEGRALS:   45998436.     BUFFER LENGTH:  32768
 NUMBER OF SEGMENTS:   3  SEGMENT LENGTH:   15998004      RECORD LENGTH: 524288

 Memory used in sort:      16.56 MW

 SORT1 READ    49670376. AND WROTE    45794381. INTEGRALS IN    132 RECORDS. CPU TIME:     0.52 SEC, REAL TIME:     0.77 SEC
 SORT2 READ    45794381. AND WROTE    45998436. INTEGRALS IN   1426 RECORDS. CPU TIME:     0.37 SEC, REAL TIME:     0.55 SEC

 FILE SIZES:   FILE 1:   349.3 MBYTE,  FILE 4:   553.7 MBYTE,   TOTAL:    903.0 MBYTE

 OPERATOR DM      FOR CENTER  0  COORDINATES:    0.000000    0.000000    0.000000


 **********************************************************************************************************************************
 DATASETS  * FILE   NREC   LENGTH (MB)   RECORD NAMES
              1      19      349.51       500      610      700      900      950      970     1000      129      960     1100   
                                          VAR    BASINP    GEOM    SYMINP    ZMAT    AOBASIS   BASIS     P2S    ABASIS      S 
                                         1400     1410     1200     1210     1080     1600     1650     1300     1700   
                                           T        V       H0       H01     AOSYM     SMH    MOLCAS    ERIS     OPER   

 PROGRAMS   *        TOTAL       INT
 CPU TIMES  *         5.20      5.16
 REAL TIME  *         5.99 SEC
 DISK USED  *         1.28 GB      
 GA USED    *         0.01 MB       (max)       0.00 MB       (current)
 **********************************************************************************************************************************

1PROGRAM * RHF-SCF (CLOSED SHELL)       Authors: W. Meyer, H.-J. Werner


 NUMBER OF ELECTRONS:      28+   28-    SPACE SYMMETRY=1    SPIN SYMMETRY: Singlet 
 CONVERGENCE THRESHOLDS:    1.00E-10 (Density)    1.00E-13 (Energy)
 MAX. NUMBER OF ITERATIONS:      200
 INTERPOLATION TYPE:            DIIS
 INTERPOLATION STEPS:              2 (START)      1 (STEP)
 LEVEL SHIFTS:                  0.00 (CLOSED)  0.00 (OPEN) 



 Orbital guess generated from atomic densities. Full valence occupancy:   44

 Molecular orbital dump at record        2100.2

 ITERATION    DDIFF          GRAD             ENERGY        2-EL.EN.            DIPOLE MOMENTS         DIIS
    1      0.000D+00      0.000D+00      -592.64384556   1056.856631   -0.41005   -0.80394   -0.00348    0
    2      0.000D+00      0.396D-02      -592.70488044   1054.272655   -0.20900   -0.73923    0.00224    1
    3      0.778D-02      0.132D-02      -592.71081663   1055.706553   -0.28158   -0.67658    0.00088    2
    4      0.269D-02      0.540D-03      -592.71182543   1055.089011   -0.25416   -0.70976    0.00203    3
    5      0.931D-03      0.773D-04      -592.71185113   1055.151799   -0.25026   -0.70129    0.00199    4
    6      0.180D-03      0.266D-04      -592.71185365   1055.120953   -0.25198   -0.70158    0.00205    5
    7      0.503D-04      0.619D-05      -592.71185385   1055.124125   -0.25131   -0.70146    0.00207    6
    8      0.164D-04      0.174D-05      -592.71185387   1055.123262   -0.25129   -0.70133    0.00207    7
    9      0.538D-05      0.453D-06      -592.71185388   1055.123145   -0.25128   -0.70128    0.00208    7
   10      0.127D-05      0.162D-06      -592.71185388   1055.123183   -0.25127   -0.70128    0.00208    7
   11      0.481D-06      0.344D-07      -592.71185388   1055.123168   -0.25127   -0.70128    0.00208    7
   12      0.114D-06      0.702D-08      -592.71185388   1055.123174   -0.25127   -0.70128    0.00208    7
   13      0.184D-07      0.294D-08      -592.71185388   1055.123171   -0.25127   -0.70128    0.00208    7
   14      0.646D-08      0.864D-09      -592.71185388   1055.123172   -0.25127   -0.70128    0.00208    7
   15      0.231D-08      0.285D-09      -592.71185388   1055.123172   -0.25127   -0.70128    0.00208    7
   16      0.684D-09      0.919D-10      -592.71185388   1055.123172   -0.25127   -0.70128    0.00208    8
   17      0.223D-09      0.238D-10      -592.71185388   1055.123172   -0.25127   -0.70128    0.00208    7
   18      0.637D-10      0.896D-11      -592.71185388   1055.123172   -0.25127   -0.70128    0.00208    7
   19      0.288D-10      0.339D-11      -592.71185388   1055.123172   -0.25127   -0.70128    0.00208    8
   20      0.108D-10      0.101D-11      -592.71185388   1055.123172   -0.25127   -0.70128    0.00208    0

 Final occupancy:  28

 !RHF STATE 1.1 Energy               -592.711853876217
 Nuclear energy                       312.14474239
 One-electron energy                -1432.41818212
 Two-electron energy                  527.56158585
 Virial quotient                       -1.00019453
 !RHF STATE 1.1 Dipole moment          -0.25126940    -0.70128079     0.00207719
 Dipole moment /Debye                  -0.63862127    -1.78236122     0.00527934

 Orbital energies:

         1.1          2.1          3.1          4.1          5.1          6.1          7.1          8.1          9.1         10.1
    -91.929762   -11.255499   -11.254398   -11.231064   -11.230968   -11.229064    -8.933652    -6.615547    -6.614114    -6.611914

        11.1         12.1         13.1         14.1         15.1         16.1         17.1         18.1         19.1         20.1
     -1.119617    -1.020002    -1.006503    -0.842328    -0.835793    -0.755606    -0.646542    -0.614637    -0.610065    -0.578420

        21.1         22.1         23.1         24.1         25.1         26.1         27.1         28.1         29.1         30.1
     -0.547035    -0.523678    -0.497739    -0.495546    -0.473031    -0.434578    -0.411703    -0.328700     0.176929     0.190309


 **********************************************************************************************************************************
 DATASETS  * FILE   NREC   LENGTH (MB)   RECORD NAMES
              1      19      349.51       500      610      700      900      950      970     1000      129      960     1100   
                                          VAR    BASINP    GEOM    SYMINP    ZMAT    AOBASIS   BASIS     P2S    ABASIS      S 
                                         1400     1410     1200     1210     1080     1600     1650     1300     1700   
                                           T        V       H0       H01     AOSYM     SMH    MOLCAS    ERIS     OPER   

              2       3        0.92       700     1000     2100   
                                         GEOM     BASIS     RHF  

 PROGRAMS   *        TOTAL       RHF       INT
 CPU TIMES  *        12.30      7.10      5.16
 REAL TIME  *        13.97 SEC
 DISK USED  *         1.28 GB      
 GA USED    *         0.01 MB       (max)       0.00 MB       (current)
 **********************************************************************************************************************************


1PROGRAM * CCSD (Closed-shell coupled cluster)     Authors: C. Hampel, H.-J. Werner, 1991, M. Deegan, P.J. Knowles, 1992


 Convergence thresholds:  THRVAR = 1.00D-08  THRDEN = 1.00D-12

 CCSD(T)     terms to be evaluated (factor= 1.000)


 Number of core orbitals:          10 (  10 )
 Number of closed-shell orbitals:  18 (  18 )
 Number of external orbitals:     110 ( 110 )

 Molecular orbitals read from record     2100.2  Type=RHF/CANONICAL (state 1.1)

 Number of N-1 electron functions:              18
 Number of N-2 electron functions:             171
 Number of singly external CSFs:              1980
 Number of doubly external CSFs:           1961190
 Total number of CSFs:                     1963171

 Length of J-op  integral file:               0.00 MB
 Length of K-op  integral file:               1.35 MB
 Length of 3-ext integral record:             0.00 MB

 Memory could be reduced to 32.58 Mwords without degradation in triples

 Integral transformation finished. Total CPU:   2.62 sec, npass=  1  Memory used:  30.89 MW

 Reference energy:                   -592.71185388

 MP2 singlet pair energy:              -0.53946465
 MP2 triplet pair energy:              -0.30437277
 MP2 correlation energy:               -0.84383742
 MP2 total energy:                   -593.55569129

 SCS-MP2 correlation energy:           -0.83674508   (PS=  1.200000  PT=  0.333333)
 SCS-MP2 total energy:               -593.54859896

 ITER.      SQ.NORM     CORR.ENERGY   TOTAL ENERGY   ENERGY CHANGE        DEN1      VAR(S)    VAR(P)  DIIS     TIME
   1      1.33970645    -0.91081061  -593.62266448    -0.06697319    -0.04301441  0.26D-02  0.55D-02  1  1    10.59
   2      1.36670238    -0.91615856  -593.62801243    -0.00534795    -0.02577715  0.69D-04  0.46D-03  2  2    18.66
   3      1.37203615    -0.91628619  -593.62814006    -0.00012763    -0.00303796  0.16D-04  0.28D-04  3  3    26.75
   4      1.37352948    -0.91634424  -593.62819812    -0.00005805    -0.00059400  0.76D-06  0.20D-05  4  4    34.84
   5      1.37377027    -0.91635086  -593.62820473    -0.00000662    -0.00007088  0.17D-06  0.16D-06  5  5    42.93
   6      1.37381597    -0.91634640  -593.62820028     0.00000445    -0.00001394  0.30D-07  0.14D-07  6  6    51.04
   7      1.37382356    -0.91634629  -593.62820017     0.00000011     0.00000064  0.53D-08  0.23D-08  6  2    59.14
   8      1.37382966    -0.91634598  -593.62819985     0.00000031    -0.00000125  0.73D-09  0.27D-09  6  1    67.23
   9      1.37383048    -0.91634591  -593.62819979     0.00000006     0.00000051  0.66D-10  0.44D-10  6  4    75.34
  10      1.37383137    -0.91634588  -593.62819975     0.00000003    -0.00000011  0.47D-11  0.35D-11  6  3    83.44
  11      1.37383138    -0.91634588  -593.62819976    -0.00000000     0.00000004  0.12D-11  0.54D-12  6  5    91.53
  12      1.37383134    -0.91634588  -593.62819976    -0.00000000     0.00000002  0.17D-12  0.77D-13  6  6    99.63
  13      1.37383129    -0.91634589  -593.62819976    -0.00000000     0.00000002  0.24D-13  0.11D-13  6  1   107.72
  14      1.37383128    -0.91634589  -593.62819976    -0.00000000     0.00000000  0.31D-14  0.12D-14  6  2   115.82
  15      1.37383128    -0.91634589  -593.62819976     0.00000000    -0.00000000  0.67D-15  0.31D-15  6  4   123.91
  16      1.37383129    -0.91634589  -593.62819976     0.00000000    -0.00000000  0.32D-16  0.23D-16  6  5   132.01
  17      1.37383129    -0.91634589  -593.62819976     0.00000000    -0.00000000  0.58D-17  0.24D-17  6  3   140.11
  18      1.37383129    -0.91634589  -593.62819976     0.00000000    -0.00000000  0.14D-17  0.42D-18  6  5   148.20
  19      1.37383129    -0.91634589  -593.62819976     0.00000000    -0.00000000  0.19D-18  0.65D-19  6  6   156.29
  20      1.37383129    -0.91634589  -593.62819976    -0.00000000     0.00000000  0.16D-19  0.68D-20  6  1   164.40
  21      1.37383129    -0.91634589  -593.62819976    -0.00000000     0.00000000  0.28D-20  0.10D-20  6  2   172.50

 Norm of t1 vector:      0.07016017      S-energy:    -0.00000000      T1 diagnostic:  0.00826846
                                                                       D1 diagnostic:  0.02108277


 Total CPU time for triples:    122.73 sec


 RESULTS
 =======

  Reference energy                   -592.711853876216
  CCSD singlet pair energy             -0.634217756391
  CCSD triplet pair energy             -0.282128128930
  CCSD correlation energy              -0.916345885321

  Triples (T) contribution             -0.029870056091
  Total correlation energy             -0.946215941412

  CCSD total energy                  -593.628199761537
  CCSD[T] energy                     -593.658689267133
  CCSD-T energy                      -593.657758576652
 !CCSD(T) total energy               -593.658069817628

 Timing summary (sec):

 STEP                 CPU(USER)    SYS     CPU(TOT)    WALL
 Transformation          2.74      0.24      2.98      2.98
 CCSD iterations       169.76      2.98    172.74    172.79
 Triples               122.73      2.35    125.08    125.09

 Program statistics:

 Available memory in ccsd:               999998604
 Min. memory needed in ccsd:               5123362
 Max. memory used in ccsd:                 6867976
 Max. memory used in cckext:               6836871 (21 integral passes)



 **********************************************************************************************************************************
 DATASETS  * FILE   NREC   LENGTH (MB)   RECORD NAMES
              1      20      485.88       500      610      700      900      950      970     1000      129      960     1100   
                                          VAR    BASINP    GEOM    SYMINP    ZMAT    AOBASIS   BASIS     P2S    ABASIS      S 
                                         1400     1410     1200     1210     1080     1600     1650     1300     1700     1380   
                                           T        V       H0       H01     AOSYM     SMH    MOLCAS    ERIS     OPER     JKOP   

              2       3        0.92       700     1000     2100   
                                         GEOM     BASIS     RHF  

 PROGRAMS   *        TOTAL   CCSD(T)       RHF       INT
 CPU TIMES  *       307.55    295.24      7.10      5.16
 REAL TIME  *       314.88 SEC
 DISK USED  *         1.28 GB      
 GA USED    *         0.01 MB       (max)       0.00 MB       (current)
 **********************************************************************************************************************************

        CCSD(T)         RHF-SCF 
   -593.65806982   -592.71185388
 **********************************************************************************************************************************
 Variable memory released
