
 Primary working directories    : /tmp/944438.798.gen6.q
 Secondary working directories  : /tmp/944438.798.gen6.q
 Wavefunction directory         : /home/vulcan/mel64643/wfu/
 Main file repository           : /tmp/944438.798.gen6.q/

 ARCHNAME  : Linux/x86_64
 FC        : /opt/intel/compilers_and_libraries_2016.1.150/linux/bin/intel64/ifort
 FCVERSION : 16.0.1
 BLASLIB   : -mkl
 id        : ccgc

 Nodes     nprocs
 n092         1
 ga_uses_ma=false, calling ma_init with nominal heap.
 GA-space will be limited to   8.0 MW (determined by -G option)

 Using customized tuning parameters: mindgm=10; mindgv=16; mindgc=4; mindgr=1; noblas=0; mincuda=1000; minvec=7
 default implementation of scratch files=df  

 ***,Optimization of min3
 memory,1000,m
 gthresh,energy=1.0d-12,orbital=1.0d-10,oneint=1.0d-16,twoint=1.0d-16,optgrad=1.0d-6,compress=1.0d-13
 geomtyp=xyz
 
 
 
  bohr
  geometry = {
  C   -0.2919909373    2.3992991127   -2.1297390926
  C    0.7653537210   -0.0015778369   -0.8938438520
  C    0.1924920597   -0.0054556113    1.8340467054
  N   -0.2959745213    0.0134211672    3.9772596451
  H    2.8247466592    0.0017833769   -1.0648564161
  C   -0.2845907831   -2.4029824237   -2.1350116280
  H   -2.3394707593   -2.4467596625   -1.9571057589
  H    0.4812520599   -4.1023814776   -1.2567263613
  H    0.1991281794   -2.4178596483   -4.1400593630
  H   -2.3475065136    2.4570572001   -1.9635513068
  H    0.2033241864    2.4130986055   -4.1319614300
  H    0.4805206786    4.0923571978   -1.2450710541
 }
 
 basis=cc-pvdz
 {rhf;maxit,200}
 {ccsd(t);maxit,200}

 Variables initialized (661), CPU time= 0.00 sec
 Commands  initialized (458), CPU time= 0.00 sec, 486 directives.
 Default parameters read. Elapsed time= 0.04 sec

 Checking input...
 Passed
1


                                         ***  PROGRAM SYSTEM MOLPRO  ***
                         Copyright, University College Cardiff Consultants Limited, 2008

                                    Version 2010.1 linked May 16 2016 07:17:05


 **********************************************************************************************************************************
 LABEL *   Optimization of min3                                                          
 Linux-4.4.3/n092(x86_64) 64 bit mpp version                                             DATE: 27-Oct-23          TIME: 11:44:19  
 **********************************************************************************************************************************

 SHA1:             9e8077add272b0f3cad6f7df79ec5211205f459d
 **********************************************************************************************************************************

 THRESHOLDS:

 ZERO    =  1.00D-12  ONEINT  =  1.00D-16  TWOINT  =  1.00D-16  PREFAC  =  1.00D-14  LOCALI  =  1.00D-09  EORDER  =  1.00D-04
 ENERGY  =  1.00D-12  ETEST   =  0.00D+00  EDENS   =  0.00D+00  THRDEDEF=  1.00D-06  GRADIENT=  1.00D-02  STEP    =  1.00D-03
 ORBITAL =  1.00D-10  CIVEC   =  1.00D-05  COEFF   =  1.00D-04  PRINTCI =  5.00D-02  PUNCHCI =  9.90D+01  OPTGRAD =  1.00D-06
 OPTENERG=  1.00D-06  OPTSTEP =  3.00D-04  THRGRAD =  1.00D-10  COMPRESS=  1.00D-13  VARMIN  =  1.00D-07  VARMAX  =  1.00D-03
 THRDOUB =  0.00D+00  THRDIV  =  1.00D-05  THRRED  =  1.00D-07  THRPSP  =  1.00D+00  THRDC   =  1.00D-10  THRCS   =  1.00D-10
 THRNRM  =  1.00D-08  THREQ   =  0.00D+00  THRDE   =  1.00D+00  THRREF  =  1.00D-05  SPARFAC =  1.00D+00  THRDLP  =  1.00D-07
 THRDIA  =  1.00D-10  THRDLS  =  1.00D-07  THRGPS  =  0.00D+00  THRKEX  =  0.00D+00  THRDIS  =  2.00D-01  THRVAR  =  1.00D-10
 THRLOC  =  1.00D-06  THRGAP  =  1.00D-06  THRLOCT = -1.00D+00  THRGAPT = -1.00D+00  THRORB  =  1.00D-06  THRMLTP =  0.00D+00
 THRCPQCI=  1.00D-10  KEXTA   =  0.00D+00  THRCOARS=  0.00D+00  SYMTOL  =  1.00D-06  GRADTOL =  1.00D-06  THROVL  =  1.00D-08
 THRORTH =  1.00D-08  GRID    =  1.00D-06  GRIDMAX =  1.00D-03  DTMAX   =  0.00D+00

 SETTING GEOMTYP        =    XYZ
 ZUNIT=BOHR
 

 Variable memory set to 1000000000 words,  buffer space   230000 words

 SETTING BASIS          =    CC-PVDZ


 Recomputing integrals since basis changed


 Using spherical harmonics

 Library entry C      S cc-pVDZ              selected for orbital group  1
 Library entry C      P cc-pVDZ              selected for orbital group  1
 Library entry C      D cc-pVDZ              selected for orbital group  1
 Library entry N      S cc-pVDZ              selected for orbital group  2
 Library entry N      P cc-pVDZ              selected for orbital group  2
 Library entry N      D cc-pVDZ              selected for orbital group  2
 Library entry H      S cc-pVDZ              selected for orbital group  3
 Library entry H      P cc-pVDZ              selected for orbital group  3

1PROGRAM * SEWARD (Integral evaluation for generally contracted gaussian basis sets)     Author: Roland Lindh, 1990

 Geometry written to block  1 of record 700


 Point group  C1  



 ATOMIC COORDINATES

 NR  ATOM    CHARGE       X              Y              Z

   1  C       6.00   -0.291990937    2.399299113   -2.129739093
   2  C       6.00    0.765353721   -0.001577837   -0.893843852
   3  C       6.00    0.192492060   -0.005455611    1.834046705
   4  N       7.00   -0.295974521    0.013421167    3.977259645
   5  H       1.00    2.824746659    0.001783377   -1.064856416
   6  C       6.00   -0.284590783   -2.402982424   -2.135011628
   7  H       1.00   -2.339470759   -2.446759662   -1.957105759
   8  H       1.00    0.481252060   -4.102381478   -1.256726361
   9  H       1.00    0.199128179   -2.417859648   -4.140059363
  10  H       1.00   -2.347506514    2.457057200   -1.963551307
  11  H       1.00    0.203324186    2.413098606   -4.131961430
  12  H       1.00    0.480520679    4.092357198   -1.245071054

 Bond lengths in Bohr (Angstrom)

  1- 2  2.899935327   1-10  2.063031425   1-11  2.062624975   1-12  2.060547843   2- 3  2.787395274
       ( 1.534579682)       ( 1.091709212)       ( 1.091494127)       ( 1.090394957)       ( 1.475026051)

 2-5  2.066483939  2-6  2.899935327  3-4  2.198253315  6-7  2.063031425  6-8  2.060547843
     ( 1.093536203)     ( 1.534579682)     ( 1.163265554)     ( 1.091709212)     ( 1.090394957)

 6-9  2.062624975
     ( 1.091494127)

 Bond angles

  1- 2- 3  110.07805271   1- 2- 5  109.07122528   1- 2- 6  111.78757136   2- 1-10  110.61759484

  2- 1-11  109.37090005   2- 1-12  111.13609089   2- 3- 4  178.86604886   2- 6- 7  109.95553337

  2-6-8  111.46641854   2-6-9  109.70122691   3-2-5  106.60693501   3-2-6  110.07805271

  5-2-6  109.07122528   7-6-8  108.41778306   7-6-9  108.49757250   8-6-9  108.73728634

 10- 1-11  108.49804006  10- 1-12  108.41824929  11- 1-12  108.73775953

 NUCLEAR CHARGE:                   38
 NUMBER OF PRIMITIVE AOS:         184
 NUMBER OF SYMMETRY AOS:          179
 NUMBER OF CONTRACTIONS:          105   ( 105A   )
 NUMBER OF CORE ORBITALS:           5   (   5A   )
 NUMBER OF VALENCE ORBITALS:       27   (  27A   )


 NUCLEAR REPULSION ENERGY  158.94578097


 Eigenvalues of metric

         1 0.197E-02 0.463E-02 0.573E-02 0.601E-02 0.167E-01 0.195E-01 0.210E-01 0.265E-01


 Contracted 2-electron integrals neglected if value below      1.0D-16
 AO integral compression algorithm  1   Integral accuracy      1.0D-16

     130.286 MB (compressed) written to integral file ( 95.2%)

     Node minimum: 130.286 MB, node maximum: 130.286 MB


 NUMBER OF SORTED TWO-ELECTRON INTEGRALS:   15487395.     BUFFER LENGTH:  32768
 NUMBER OF SEGMENTS:   1  SEGMENT LENGTH:   15487395      RECORD LENGTH: 524288

 Memory used in sort:      16.04 MW

 SORT1 READ    17101060. AND WROTE    15442755. INTEGRALS IN     45 RECORDS. CPU TIME:     0.14 SEC, REAL TIME:     0.23 SEC
 SORT2 READ    15442755. AND WROTE    15487395. INTEGRALS IN    497 RECORDS. CPU TIME:     0.14 SEC, REAL TIME:     0.20 SEC

 FILE SIZES:   FILE 1:   121.0 MBYTE,  FILE 4:   188.8 MBYTE,   TOTAL:    309.8 MBYTE

 OPERATOR DM      FOR CENTER  0  COORDINATES:    0.000000    0.000000    0.000000


 **********************************************************************************************************************************
 DATASETS  * FILE   NREC   LENGTH (MB)   RECORD NAMES
              1      19      121.11       500      610      700      900      950      970     1000      129      960     1100   
                                          VAR    BASINP    GEOM    SYMINP    ZMAT    AOBASIS   BASIS     P2S    ABASIS      S 
                                         1400     1410     1200     1210     1080     1600     1650     1300     1700   
                                           T        V       H0       H01     AOSYM     SMH    MOLCAS    ERIS     OPER   

 PROGRAMS   *        TOTAL       INT
 CPU TIMES  *         1.57      1.53
 REAL TIME  *         1.98 SEC
 DISK USED  *       440.89 MB      
 GA USED    *         0.00 MB       (max)       0.00 MB       (current)
 **********************************************************************************************************************************

1PROGRAM * RHF-SCF (CLOSED SHELL)       Authors: W. Meyer, H.-J. Werner


 NUMBER OF ELECTRONS:      19+   19-    SPACE SYMMETRY=1    SPIN SYMMETRY: Singlet 
 CONVERGENCE THRESHOLDS:    1.00E-10 (Density)    1.00E-13 (Energy)
 MAX. NUMBER OF ITERATIONS:      200
 INTERPOLATION TYPE:            DIIS
 INTERPOLATION STEPS:              2 (START)      1 (STEP)
 LEVEL SHIFTS:                  0.00 (CLOSED)  0.00 (OPEN) 



 Orbital guess generated from atomic densities. Full valence occupancy:   32

 Molecular orbital dump at record        2100.2

 ITERATION    DDIFF          GRAD             ENERGY        2-EL.EN.            DIPOLE MOMENTS         DIIS
    1      0.000D+00      0.000D+00      -209.94377007    457.116419    0.48577   -0.01088   -2.25183    0
    2      0.000D+00      0.590D-02      -209.98972470    456.670450    0.15070    0.00057   -1.29395    1
    3      0.124D-01      0.414D-02      -210.01005877    456.355239    0.30679   -0.00555   -1.70236    2
    4      0.554D-02      0.106D-02      -210.01230603    456.682446    0.29343   -0.00429   -1.61416    3
    5      0.196D-02      0.235D-03      -210.01242410    456.522839    0.28711   -0.00438   -1.62538    4
    6      0.425D-03      0.579D-04      -210.01243348    456.541859    0.28734   -0.00436   -1.62346    5
    7      0.169D-03      0.160D-04      -210.01243403    456.539855    0.28769   -0.00437   -1.62477    6
    8      0.307D-04      0.501D-05      -210.01243408    456.539526    0.28756   -0.00437   -1.62488    7
    9      0.110D-04      0.107D-05      -210.01243409    456.539461    0.28759   -0.00437   -1.62487    7
   10      0.262D-05      0.381D-06      -210.01243409    456.539558    0.28759   -0.00437   -1.62490    7
   11      0.957D-06      0.201D-06      -210.01243409    456.539526    0.28758   -0.00437   -1.62489    7
   12      0.679D-06      0.923D-07      -210.01243409    456.539542    0.28758   -0.00437   -1.62489    7
   13      0.433D-06      0.239D-07      -210.01243409    456.539536    0.28758   -0.00437   -1.62489    8
   14      0.114D-06      0.467D-08      -210.01243409    456.539535    0.28758   -0.00437   -1.62489    8
   15      0.146D-07      0.187D-08      -210.01243409    456.539536    0.28758   -0.00437   -1.62489    8
   16      0.359D-08      0.542D-09      -210.01243409    456.539535    0.28758   -0.00437   -1.62489    8
   17      0.115D-08      0.116D-09      -210.01243409    456.539535    0.28758   -0.00437   -1.62489    8
   18      0.259D-09      0.350D-10      -210.01243409    456.539535    0.28758   -0.00437   -1.62489    7
   19      0.813D-10      0.127D-10      -210.01243409    456.539535    0.28758   -0.00437   -1.62489    7
   20      0.316D-10      0.446D-11      -210.01243409    456.539535    0.28758   -0.00437   -1.62489    7
   21      0.116D-10      0.177D-11      -210.01243409    456.539535    0.28758   -0.00437   -1.62489    8
   22      0.502D-11      0.851D-12      -210.01243409    456.539535    0.28758   -0.00437   -1.62489    8
   23      0.306D-11      0.372D-12      -210.01243409    456.539535    0.28758   -0.00437   -1.62489    8
   24      0.172D-11      0.104D-12      -210.01243409    456.539535    0.28758   -0.00437   -1.62489    8
   25      0.507D-12      0.471D-13      -210.01243409    456.539535    0.28758   -0.00437   -1.62489    9
   26      0.201D-12      0.358D-13      -210.01243409    456.539535    0.28758   -0.00437   -1.62489    9
   27      0.127D-12      0.321D-13      -210.01243409    456.539535    0.28758   -0.00437   -1.62489    9
   28      0.884D-13      0.251D-13      -210.01243409    456.539535    0.28758   -0.00437   -1.62489    0

 Final occupancy:  19

 !RHF STATE 1.1 Energy               -210.012434088963
 Nuclear energy                       158.94578097
 One-electron energy                 -597.22798279
 Two-electron energy                  228.26976773
 Virial quotient                       -1.00163731
 !RHF STATE 1.1 Dipole moment           0.28758121    -0.00437173    -1.62489473
 Dipole moment /Debye                   0.73091065    -0.01111110    -4.12979994

 Orbital energies:

         1.1          2.1          3.1          4.1          5.1          6.1          7.1          8.1          9.1         10.1
    -15.572625   -11.290173   -11.274783   -11.250178   -11.250108    -1.212659    -1.107764    -0.960710    -0.876344    -0.704117

        11.1         12.1         13.1         14.1         15.1         16.1         17.1         18.1         19.1         20.1
     -0.642661    -0.596907    -0.572509    -0.563746    -0.530454    -0.523518    -0.520234    -0.447381    -0.447355     0.155229

        21.1
      0.190283


 **********************************************************************************************************************************
 DATASETS  * FILE   NREC   LENGTH (MB)   RECORD NAMES
              1      19      121.11       500      610      700      900      950      970     1000      129      960     1100   
                                          VAR    BASINP    GEOM    SYMINP    ZMAT    AOBASIS   BASIS     P2S    ABASIS      S 
                                         1400     1410     1200     1210     1080     1600     1650     1300     1700   
                                           T        V       H0       H01     AOSYM     SMH    MOLCAS    ERIS     OPER   

              2       3        0.68       700     1000     2100   
                                         GEOM     BASIS     RHF  

 PROGRAMS   *        TOTAL       RHF       INT
 CPU TIMES  *         4.36      2.79      1.53
 REAL TIME  *         5.09 SEC
 DISK USED  *       440.89 MB      
 GA USED    *         0.00 MB       (max)       0.00 MB       (current)
 **********************************************************************************************************************************


1PROGRAM * CCSD (Closed-shell coupled cluster)     Authors: C. Hampel, H.-J. Werner, 1991, M. Deegan, P.J. Knowles, 1992


 Convergence thresholds:  THRVAR = 1.00D-08  THRDEN = 1.00D-12

 CCSD(T)     terms to be evaluated (factor= 1.000)


 Number of core orbitals:           5 (   5 )
 Number of closed-shell orbitals:  14 (  14 )
 Number of external orbitals:      86 (  86 )

 Molecular orbitals read from record     2100.2  Type=RHF/CANONICAL (state 1.1)

 Number of N-1 electron functions:              14
 Number of N-2 electron functions:             105
 Number of singly external CSFs:              1204
 Number of doubly external CSFs:            725410
 Total number of CSFs:                      726615

 Length of J-op  integral file:               0.00 MB
 Length of K-op  integral file:               0.79 MB
 Length of 3-ext integral record:             0.00 MB

 Memory could be reduced to 12.72 Mwords without degradation in triples

 Integral transformation finished. Total CPU:   0.58 sec, npass=  1  Memory used:  10.92 MW

 Reference energy:                   -210.01243409

 MP2 singlet pair energy:              -0.45163583
 MP2 triplet pair energy:              -0.25975954
 MP2 correlation energy:               -0.71139537
 MP2 total energy:                   -210.72382946

 SCS-MP2 correlation energy:           -0.70359116   (PS=  1.200000  PT=  0.333333)
 SCS-MP2 total energy:               -210.71602525

 ITER.      SQ.NORM     CORR.ENERGY   TOTAL ENERGY   ENERGY CHANGE        DEN1      VAR(S)    VAR(P)  DIIS     TIME
   1      1.27016088    -0.75347068  -210.76590477    -0.04207530    -0.01887844  0.35D-02  0.56D-02  1  1     2.20
   2      1.29282249    -0.75712808  -210.76956217    -0.00365740    -0.02204631  0.58D-04  0.76D-03  2  2     3.84
   3      1.30020365    -0.75750473  -210.76993881    -0.00037665    -0.00407576  0.27D-04  0.55D-04  3  3     5.48
   4      1.30276860    -0.75760147  -210.77003555    -0.00009674    -0.00100785  0.13D-05  0.65D-05  4  4     7.12
   5      1.30333603    -0.75761003  -210.77004412    -0.00000857    -0.00016822  0.16D-06  0.78D-06  5  5     8.77
   6      1.30345865    -0.75760447  -210.77003856     0.00000556    -0.00003123  0.97D-08  0.53D-07  6  6    10.42
   7      1.30347678    -0.75760687  -210.77004096    -0.00000240    -0.00000403  0.15D-08  0.48D-08  6  2    12.08
   8      1.30347822    -0.75760679  -210.77004088     0.00000008    -0.00000004  0.14D-09  0.42D-09  6  1    13.73
   9      1.30347857    -0.75760678  -210.77004086     0.00000002     0.00000023  0.17D-10  0.36D-10  6  3    15.38
  10      1.30347884    -0.75760679  -210.77004088    -0.00000001    -0.00000006  0.17D-11  0.33D-11  6  4    17.03
  11      1.30347846    -0.75760681  -210.77004090    -0.00000002     0.00000023  0.35D-12  0.34D-12  6  6    18.68
  12      1.30347839    -0.75760682  -210.77004091    -0.00000001     0.00000004  0.45D-13  0.27D-13  6  5    20.33
  13      1.30347835    -0.75760682  -210.77004091    -0.00000000     0.00000002  0.55D-14  0.46D-14  6  2    21.98
  14      1.30347835    -0.75760682  -210.77004091     0.00000000     0.00000000  0.15D-14  0.68D-15  6  1    23.63
  15      1.30347835    -0.75760682  -210.77004091     0.00000000    -0.00000000  0.11D-15  0.11D-15  6  4    25.28
  16      1.30347835    -0.75760682  -210.77004091     0.00000000    -0.00000000  0.17D-16  0.78D-17  6  3    26.92
  17      1.30347835    -0.75760682  -210.77004091     0.00000000    -0.00000000  0.38D-17  0.17D-17  6  6    28.57
  18      1.30347835    -0.75760682  -210.77004091    -0.00000000    -0.00000000  0.58D-18  0.28D-18  6  5    30.21
  19      1.30347835    -0.75760682  -210.77004091     0.00000000     0.00000000  0.60D-19  0.45D-19  6  2    31.85
  20      1.30347835    -0.75760682  -210.77004091     0.00000000    -0.00000000  0.64D-20  0.41D-20  6  4    33.51

 Norm of t1 vector:      0.07770499      S-energy:    -0.00000000      T1 diagnostic:  0.01038377
                                                                       D1 diagnostic:  0.02936061


 Total CPU time for triples:     21.20 sec


 RESULTS
 =======

  Reference energy                   -210.012434088962
  CCSD singlet pair energy             -0.527327206796
  CCSD triplet pair energy             -0.230279614194
  CCSD correlation energy              -0.757606820992

  Triples (T) contribution             -0.026791176727
  Total correlation energy             -0.784397997718

  CCSD total energy                  -210.770040909954
  CCSD[T] energy                     -210.797841443472
  CCSD-T energy                      -210.796362230446
 !CCSD(T) total energy               -210.796832086681

 Timing summary (sec):

 STEP                 CPU(USER)    SYS     CPU(TOT)    WALL
 Transformation          0.61      0.07      0.68      0.69
 CCSD iterations        32.90      0.86     33.76     33.87
 Triples                21.20      0.46     21.66     21.67

 Program statistics:

 Available memory in ccsd:               999999116
 Min. memory needed in ccsd:               1995783
 Max. memory used in ccsd:                 2628247
 Max. memory used in cckext:               2458865 (20 integral passes)



 **********************************************************************************************************************************
 DATASETS  * FILE   NREC   LENGTH (MB)   RECORD NAMES
              1      20      171.26       500      610      700      900      950      970     1000      129      960     1100   
                                          VAR    BASINP    GEOM    SYMINP    ZMAT    AOBASIS   BASIS     P2S    ABASIS      S 
                                         1400     1410     1200     1210     1080     1600     1650     1300     1700     1380   
                                           T        V       H0       H01     AOSYM     SMH    MOLCAS    ERIS     OPER     JKOP   

              2       3        0.68       700     1000     2100   
                                         GEOM     BASIS     RHF  

 PROGRAMS   *        TOTAL   CCSD(T)       RHF       INT
 CPU TIMES  *        59.08     54.72      2.79      1.53
 REAL TIME  *        61.36 SEC
 DISK USED  *       440.89 MB      
 GA USED    *         0.00 MB       (max)       0.00 MB       (current)
 **********************************************************************************************************************************

        CCSD(T)         RHF-SCF 
   -210.79683209   -210.01243409
 **********************************************************************************************************************************
 Variable memory released
