
 Primary working directories    : /tmp/880701.484.gen6.q
 Secondary working directories  : /tmp/880701.484.gen6.q
 Wavefunction directory         : /home/vulcan/lo21740/wfu/
 Main file repository           : /tmp/880701.484.gen6.q/

 ARCHNAME  : Linux/x86_64
 FC        : /opt/intel/compilers_and_libraries_2016.1.150/linux/bin/intel64/ifort
 FCVERSION : 16.0.1
 BLASLIB   : -mkl
 id        : ccgc

 Nodes     nprocs
 n074         1
 ga_uses_ma=false, calling ma_init with nominal heap.
 GA-space will be limited to   8.0 MW (determined by -G option)

 Using customized tuning parameters: mindgm=10; mindgv=16; mindgc=4; mindgr=1; noblas=0; mincuda=1000; minvec=7
 default implementation of scratch files=df  

 ***,Optimization of formamide
 memory,1000,m
 gthresh,energy=1.0d-12,orbital=1.0d-10,oneint=1.0d-16,twoint=1.0d-16,optgrad=1.0d-6,compress=1.0d-13
 geomtyp=xyz
 
 bohr
 geometry = {
  C   -3.8277301286    0.0870738134    0.0006567058
  O   -2.7298868751    2.1387514064    0.0034022419
  N   -2.6791909825   -2.1805645436    0.0006977530
  H   -3.7396517447   -3.7557664284    0.0020628563
  H   -0.7515179363   -2.3047426228   -0.0008112758
  H   -5.9017133532   -0.0185004424   -0.0035200424
  C    3.8277301286   -0.0870738134   -0.0006567058
  O    2.7298868751   -2.1387514064   -0.0034022419
  N    2.6791909825    2.1805645436   -0.0006977530
  H    3.7396517447    3.7557664284   -0.0020628563
  H    0.7515179363    2.3047426228    0.0008112758
  H    5.9017133532    0.0185004424    0.0035200424
 }
 
 basis=AVDZ
 {rhf;maxit,200}
 {ccsd(t);maxit,200}

 Variables initialized (661), CPU time= 0.01 sec
 Commands  initialized (458), CPU time= 0.00 sec, 486 directives.
 Default parameters read. Elapsed time= 0.05 sec

 Checking input...
 Passed
1


                                         ***  PROGRAM SYSTEM MOLPRO  ***
                         Copyright, University College Cardiff Consultants Limited, 2008

                                    Version 2010.1 linked May 16 2016 07:17:05


 **********************************************************************************************************************************
 LABEL *   Optimization of formamide                                                     
 Linux-4.4.3/n074(x86_64) 64 bit mpp version                                             DATE: 24-May-23          TIME: 23:43:22  
 **********************************************************************************************************************************

 SHA1:             9e8077add272b0f3cad6f7df79ec5211205f459d
 **********************************************************************************************************************************

 THRESHOLDS:

 ZERO    =  1.00D-12  ONEINT  =  1.00D-16  TWOINT  =  1.00D-16  PREFAC  =  1.00D-14  LOCALI  =  1.00D-09  EORDER  =  1.00D-04
 ENERGY  =  1.00D-12  ETEST   =  0.00D+00  EDENS   =  0.00D+00  THRDEDEF=  1.00D-06  GRADIENT=  1.00D-02  STEP    =  1.00D-03
 ORBITAL =  1.00D-10  CIVEC   =  1.00D-05  COEFF   =  1.00D-04  PRINTCI =  5.00D-02  PUNCHCI =  9.90D+01  OPTGRAD =  1.00D-06
 OPTENERG=  1.00D-06  OPTSTEP =  3.00D-04  THRGRAD =  1.00D-10  COMPRESS=  1.00D-13  VARMIN  =  1.00D-07  VARMAX  =  1.00D-03
 THRDOUB =  0.00D+00  THRDIV  =  1.00D-05  THRRED  =  1.00D-07  THRPSP  =  1.00D+00  THRDC   =  1.00D-10  THRCS   =  1.00D-10
 THRNRM  =  1.00D-08  THREQ   =  0.00D+00  THRDE   =  1.00D+00  THRREF  =  1.00D-05  SPARFAC =  1.00D+00  THRDLP  =  1.00D-07
 THRDIA  =  1.00D-10  THRDLS  =  1.00D-07  THRGPS  =  0.00D+00  THRKEX  =  0.00D+00  THRDIS  =  2.00D-01  THRVAR  =  1.00D-10
 THRLOC  =  1.00D-06  THRGAP  =  1.00D-06  THRLOCT = -1.00D+00  THRGAPT = -1.00D+00  THRORB  =  1.00D-06  THRMLTP =  0.00D+00
 THRCPQCI=  1.00D-10  KEXTA   =  0.00D+00  THRCOARS=  0.00D+00  SYMTOL  =  1.00D-06  GRADTOL =  1.00D-06  THROVL  =  1.00D-08
 THRORTH =  1.00D-08  GRID    =  1.00D-06  GRIDMAX =  1.00D-03  DTMAX   =  0.00D+00

 SETTING GEOMTYP        =    XYZ
 ZUNIT=BOHR
 

 Variable memory set to 1000000000 words,  buffer space   230000 words

 SETTING BASIS          =    AVDZ


 Recomputing integrals since basis changed


 Using spherical harmonics

 Library entry C      S aug-cc-pVDZ          selected for orbital group  1
 Library entry C      P aug-cc-pVDZ          selected for orbital group  1
 Library entry C      D aug-cc-pVDZ          selected for orbital group  1
 Library entry O      S aug-cc-pVDZ          selected for orbital group  2
 Library entry O      P aug-cc-pVDZ          selected for orbital group  2
 Library entry O      D aug-cc-pVDZ          selected for orbital group  2
 Library entry N      S aug-cc-pVDZ          selected for orbital group  3
 Library entry N      P aug-cc-pVDZ          selected for orbital group  3
 Library entry N      D aug-cc-pVDZ          selected for orbital group  3
 Library entry H      S aug-cc-pVDZ          selected for orbital group  4
 Library entry H      P aug-cc-pVDZ          selected for orbital group  4

1PROGRAM * SEWARD (Integral evaluation for generally contracted gaussian basis sets)     Author: Roland Lindh, 1990

 Geometry written to block  1 of record 700


 Point group  Ci  



 ATOMIC COORDINATES

 NR  ATOM    CHARGE       X              Y              Z

   1  C       6.00   -3.827730129    0.087073813    0.000656706
   2  C       6.00    3.827730129   -0.087073813   -0.000656706
   3  O       8.00   -2.729886875    2.138751406    0.003402242
   4  O       8.00    2.729886875   -2.138751406   -0.003402242
   5  N       7.00   -2.679190983   -2.180564544    0.000697753
   6  N       7.00    2.679190983    2.180564544   -0.000697753
   7  H       1.00   -3.739651745   -3.755766428    0.002062856
   8  H       1.00    3.739651745    3.755766428   -0.002062856
   9  H       1.00   -0.751517936   -2.304742623   -0.000811276
  10  H       1.00    0.751517936    2.304742623    0.000811276
  11  H       1.00   -5.901713353   -0.018500442   -0.003520042
  12  H       1.00    5.901713353    0.018500442    0.003520042

 Bond lengths in Bohr (Angstrom)

  1- 3  2.326939684   1- 5  2.541913824   1-11  2.076672768   2- 4  2.326939684   2- 6  2.541913824
       ( 1.231363447)       ( 1.345122863)       ( 1.098927899)       ( 1.231363447)       ( 1.345122863)

  2-12  2.076672768   5- 7  1.898904913   5- 9  1.931669186   6- 8  1.898904913   6-10  1.931669186
       ( 1.098927899)       ( 1.004857202)       ( 1.022195309)       ( 1.004857202)       ( 1.022195309)

 Bond angles

  1- 5- 7  119.18886205   1- 5- 9  120.54763050   2- 6- 8  119.18886205   2- 6-10  120.54763050

  3- 1- 5  124.98712163   3- 1-11  121.06517084   4- 2- 6  124.98712163   4- 2-12  121.06517084

  5- 1-11  113.94769374   6- 2-12  113.94769374   7- 5- 9  120.26350719   8- 6-10  120.26350719

 NUCLEAR CHARGE:                   48
 NUMBER OF PRIMITIVE AOS:         288
 NUMBER OF SYMMETRY AOS:          276
 NUMBER OF CONTRACTIONS:          192   (  96Ag  +  96Au  )
 NUMBER OF CORE ORBITALS:           6   (   3Ag  +   3Au  )
 NUMBER OF VALENCE ORBITALS:       30   (  15Ag  +  15Au  )


 NUCLEAR REPULSION ENERGY  230.46944351


 Eigenvalues of metric

         1 0.232E-03 0.528E-03 0.704E-03 0.712E-03 0.861E-03 0.217E-02 0.279E-02 0.327E-02
         2 0.271E-03 0.524E-03 0.564E-03 0.717E-03 0.120E-02 0.133E-02 0.232E-02 0.320E-02


 Contracted 2-electron integrals neglected if value below      1.0D-16
 AO integral compression algorithm  1   Integral accuracy      1.0D-16

     825.229 MB (compressed) written to integral file ( 95.9%)

     Node minimum: 825.229 MB, node maximum: 825.229 MB


 NUMBER OF SORTED TWO-ELECTRON INTEGRALS:   86718000.     BUFFER LENGTH:  32768
 NUMBER OF SEGMENTS:   6  SEGMENT LENGTH:   15998362      RECORD LENGTH: 524288

 Memory used in sort:      16.56 MW

 SORT1 READ   107623504. AND WROTE    86717719. INTEGRALS IN    250 RECORDS. CPU TIME:     1.01 SEC, REAL TIME:     1.52 SEC
 SORT2 READ    86717719. AND WROTE    86718000. INTEGRALS IN   3148 RECORDS. CPU TIME:     0.73 SEC, REAL TIME:     1.07 SEC

 FILE SIZES:   FILE 1:   683.7 MBYTE,  FILE 4:  1048.6 MBYTE,   TOTAL:   1732.3 MBYTE

 OPERATOR DM      FOR CENTER  0  COORDINATES:    0.000000    0.000000    0.000000


 **********************************************************************************************************************************
 DATASETS  * FILE   NREC   LENGTH (MB)   RECORD NAMES
              1      19      683.92       500      610      700      900      950      970     1000      129      960     1100   
                                          VAR    BASINP    GEOM    SYMINP    ZMAT    AOBASIS   BASIS     P2S    ABASIS      S 
                                         1400     1410     1200     1210     1080     1600     1650     1300     1700   
                                           T        V       H0       H01     AOSYM     SMH    MOLCAS    ERIS     OPER   

 PROGRAMS   *        TOTAL       INT
 CPU TIMES  *         5.35      5.31
 REAL TIME  *         6.74 SEC
 DISK USED  *         2.56 GB      
 GA USED    *         0.00 MB       (max)       0.00 MB       (current)
 **********************************************************************************************************************************

1PROGRAM * RHF-SCF (CLOSED SHELL)       Authors: W. Meyer, H.-J. Werner


 NUMBER OF ELECTRONS:      24+   24-
 CONVERGENCE THRESHOLDS:    1.00E-10 (Density)    1.00E-13 (Energy)
 MAX. NUMBER OF ITERATIONS:      200
 INTERPOLATION TYPE:            DIIS
 INTERPOLATION STEPS:              2 (START)      1 (STEP)
 LEVEL SHIFTS:                  0.00 (CLOSED)  0.00 (OPEN) 



 Orbital guess generated from atomic densities. Full valence occupancy:   18  18

 Molecular orbital dump at record        2100.2

 Initial alpha occupancy:  12  12
 Initial beta  occupancy:  12  12
 Wave function symmetry:    1

 ITERATION    DDIFF          GRAD             ENERGY        2-EL.EN.            DIPOLE MOMENTS         DIIS
    1      0.000D+00      0.000D+00      -337.80590502    704.628003    0.00000    0.00000    0.00000    0
    2      0.000D+00      0.794D-02      -337.88337004    699.012088    0.00000    0.00000    0.00000    1
    3      0.151D-01      0.579D-02      -337.94117828    701.754828    0.00000    0.00000    0.00000    2
    4      0.612D-02      0.764D-03      -337.94339298    701.657745    0.00000    0.00000    0.00000    3
    5      0.146D-02      0.264D-03      -337.94366226    701.591354    0.00000    0.00000    0.00000    4
    6      0.498D-03      0.867D-04      -337.94372398    701.616912    0.00000    0.00000    0.00000    5
    7      0.221D-03      0.384D-04      -337.94373507    701.607936    0.00000    0.00000    0.00000    6
    8      0.105D-03      0.114D-04      -337.94373602    701.613549    0.00000    0.00000    0.00000    7
    9      0.331D-04      0.346D-05      -337.94373610    701.611062    0.00000    0.00000    0.00000    8
   10      0.870D-05      0.120D-05      -337.94373611    701.611604    0.00000    0.00000    0.00000    7
   11      0.362D-05      0.287D-06      -337.94373611    701.611531    0.00000    0.00000    0.00000    8
   12      0.833D-06      0.435D-07      -337.94373611    701.611538    0.00000    0.00000    0.00000    7
   13      0.123D-06      0.101D-07      -337.94373611    701.611539    0.00000    0.00000    0.00000    7
   14      0.308D-07      0.180D-08      -337.94373611    701.611539    0.00000    0.00000    0.00000    6
   15      0.486D-08      0.500D-09      -337.94373611    701.611539    0.00000    0.00000    0.00000    6
   16      0.117D-08      0.220D-09      -337.94373611    701.611539    0.00000    0.00000    0.00000    6
   17      0.392D-09      0.744D-10      -337.94373611    701.611539    0.00000    0.00000    0.00000    7
   18      0.158D-09      0.195D-10      -337.94373611    701.611539    0.00000    0.00000    0.00000    7
   19      0.480D-10      0.676D-11      -337.94373611    701.611539    0.00000    0.00000    0.00000    7
   20      0.168D-10      0.240D-11      -337.94373611    701.611539    0.00000    0.00000    0.00000    7
   21      0.866D-11      0.635D-12      -337.94373611    701.611539    0.00000    0.00000    0.00000    8
   22      0.393D-11      0.234D-12      -337.94373611    701.611539    0.00000    0.00000    0.00000    0

 Final occupancy:  12  12

 !RHF STATE 1.1 Energy               -337.943736106969
 Nuclear energy                       230.46944351
 One-electron energy                 -919.21894902
 Two-electron energy                  350.80576941
 Virial quotient                       -1.00173755
 !RHF STATE 1.1 Dipole moment           0.00000000     0.00000000     0.00000000
 Dipole moment /Debye                   0.00000000     0.00000000     0.00000000

 Orbital energies:

         1.1          2.1          3.1          4.1          5.1          6.1          7.1          8.1          9.1         10.1
    -20.541297   -15.588708   -11.367846    -1.389255    -1.211738    -0.861155    -0.749453    -0.645235    -0.619839    -0.565321

        11.1         12.1         13.1         14.1
     -0.454526    -0.420161     0.033389     0.059158

         1.2          2.2          3.2          4.2          5.2          6.2          7.2          8.2          9.2         10.2
    -20.541296   -15.588708   -11.367847    -1.384535    -1.217938    -0.835893    -0.740689    -0.705983    -0.594036    -0.573392

        11.2         12.2         13.2         14.2
     -0.429290    -0.409564     0.036358     0.052537


 **********************************************************************************************************************************
 DATASETS  * FILE   NREC   LENGTH (MB)   RECORD NAMES
              1      19      683.92       500      610      700      900      950      970     1000      129      960     1100   
                                          VAR    BASINP    GEOM    SYMINP    ZMAT    AOBASIS   BASIS     P2S    ABASIS      S 
                                         1400     1410     1200     1210     1080     1600     1650     1300     1700   
                                           T        V       H0       H01     AOSYM     SMH    MOLCAS    ERIS     OPER   

              2       3        0.85       700     1000     2100   
                                         GEOM     BASIS     RHF  

 PROGRAMS   *        TOTAL       RHF       INT
 CPU TIMES  *        13.58      8.23      5.31
 REAL TIME  *        16.37 SEC
 DISK USED  *         2.56 GB      
 GA USED    *         0.00 MB       (max)       0.00 MB       (current)
 **********************************************************************************************************************************


1PROGRAM * CCSD (Closed-shell coupled cluster)     Authors: C. Hampel, H.-J. Werner, 1991, M. Deegan, P.J. Knowles, 1992


 Convergence thresholds:  THRVAR = 1.00D-08  THRDEN = 1.00D-12

 CCSD(T)     terms to be evaluated (factor= 1.000)


 Number of core orbitals:           6 (   3   3 )
 Number of closed-shell orbitals:  18 (   9   9 )
 Number of external orbitals:     168 (  84  84 )

 Molecular orbitals read from record     2100.2  Type=RHF/CANONICAL (state 1.1)

 Number of N-1 electron functions:              18
 Number of N-2 electron functions:             171
 Number of singly external CSFs:              1512
 Number of doubly external CSFs:           2287656
 Total number of CSFs:                     2289169

 Length of J-op  integral file:               0.00 MB
 Length of K-op  integral file:               1.31 MB
 Length of 3-ext integral record:             0.00 MB

 Memory could be reduced to 54.59 Mwords without degradation in triples

 Integral transformation finished. Total CPU:   3.58 sec, npass=  1  Memory used:  28.81 MW

 Reference energy:                   -337.94373611

 MP2 singlet pair energy:              -0.62280957
 MP2 triplet pair energy:              -0.40617130
 MP2 correlation energy:               -1.02898087
 MP2 total energy:                   -338.97271698

 SCS-MP2 correlation energy:           -1.00010029   (PS=  1.200000  PT=  0.333333)
 SCS-MP2 total energy:               -338.94383640

 ITER.      SQ.NORM     CORR.ENERGY   TOTAL ENERGY   ENERGY CHANGE        DEN1      VAR(S)    VAR(P)  DIIS     TIME
   1      1.31941642    -1.05749811  -339.00123422    -0.02851724     0.00281405  0.10D-01  0.60D-02  1  1     8.26
   2      1.34494525    -1.05937895  -339.00311506    -0.00188083    -0.02596746  0.22D-03  0.11D-02  2  2    13.19
   3      1.35760422    -1.06027356  -339.00400967    -0.00089461    -0.00556998  0.22D-03  0.52D-04  3  3    18.14
   4      1.36283231    -1.06000905  -339.00374515     0.00026452    -0.00169757  0.22D-04  0.96D-05  4  4    23.10
   5      1.36498976    -1.05995149  -339.00368760     0.00005756    -0.00045071  0.27D-05  0.12D-05  5  5    28.06
   6      1.36551324    -1.05992278  -339.00365889     0.00002871    -0.00004987  0.27D-06  0.19D-06  6  6    33.02
   7      1.36564103    -1.05991046  -339.00364657     0.00001232    -0.00000199  0.35D-07  0.23D-07  6  1    37.98
   8      1.36567833    -1.05990928  -339.00364538     0.00000119    -0.00000700  0.73D-08  0.33D-08  6  2    42.94
   9      1.36567980    -1.05990945  -339.00364556    -0.00000018     0.00000266  0.13D-08  0.48D-09  6  3    47.89
  10      1.36568456    -1.05990891  -339.00364502     0.00000054    -0.00000110  0.32D-09  0.68D-10  6  4    52.85
  11      1.36568432    -1.05990917  -339.00364527    -0.00000025     0.00000046  0.58D-10  0.13D-10  6  5    57.82
  12      1.36568432    -1.05990914  -339.00364525     0.00000002     0.00000002  0.46D-11  0.35D-11  6  6    62.78
  13      1.36568404    -1.05990919  -339.00364529    -0.00000004     0.00000012  0.11D-11  0.39D-12  6  1    67.73
  14      1.36568394    -1.05990919  -339.00364530    -0.00000001     0.00000004  0.90D-13  0.75D-13  6  2    72.67
  15      1.36568392    -1.05990919  -339.00364530     0.00000000     0.00000001  0.24D-13  0.12D-13  6  3    77.62
  16      1.36568392    -1.05990919  -339.00364530    -0.00000000     0.00000000  0.50D-14  0.22D-14  6  4    82.57
  17      1.36568392    -1.05990919  -339.00364530     0.00000000    -0.00000000  0.95D-15  0.46D-15  6  5    87.52
  18      1.36568392    -1.05990919  -339.00364530     0.00000000    -0.00000000  0.26D-15  0.99D-16  6  2    92.49
  19      1.36568392    -1.05990919  -339.00364530     0.00000000    -0.00000000  0.45D-16  0.15D-16  6  6    97.46
  20      1.36568392    -1.05990919  -339.00364530    -0.00000000     0.00000000  0.12D-16  0.29D-17  6  1   102.41
  21      1.36568392    -1.05990919  -339.00364530     0.00000000    -0.00000000  0.33D-17  0.11D-17  6  4   107.37
  22      1.36568392    -1.05990919  -339.00364530    -0.00000000     0.00000000  0.10D-17  0.23D-18  6  3   112.33
  23      1.36568392    -1.05990919  -339.00364530     0.00000000    -0.00000000  0.52D-19  0.31D-19  6  5   117.30
  24      1.36568392    -1.05990919  -339.00364530     0.00000000    -0.00000000  0.12D-19  0.54D-20  6  2   122.25
  25      1.36568392    -1.05990919  -339.00364530    -0.00000000     0.00000000  0.17D-20  0.11D-20  6  4   127.22
  26      1.36568392    -1.05990919  -339.00364530     0.00000000    -0.00000000  0.13D-21  0.10D-21  6  6   132.19

 Norm of t1 vector:      0.14845802      S-energy:     0.00000000      T1 diagnostic:  0.01749595
                                                                       D1 diagnostic:  0.05918071


 Total CPU time for triples:    144.83 sec


 RESULTS
 =======

  Reference energy                   -337.943736106970
  CCSD singlet pair energy             -0.699748845659
  CCSD triplet pair energy             -0.360160349031
  CCSD correlation energy              -1.059909194689

  Triples (T) contribution             -0.039961006017
  Total correlation energy             -1.099870200706

  CCSD total energy                  -339.003645301659
  CCSD[T] energy                     -339.046834706754
  CCSD-T energy                      -339.042481222189
 !CCSD(T) total energy               -339.043606307676

 Timing summary (sec):

 STEP                 CPU(USER)    SYS     CPU(TOT)    WALL
 Transformation          3.64      0.30      3.94      3.94
 CCSD iterations       128.55      4.37    132.92    134.31
 Triples               144.83      3.21    148.04    148.06

 Program statistics:

 Available memory in ccsd:               999998604
 Min. memory needed in ccsd:               5718748
 Max. memory used in ccsd:                 7826908
 Max. memory used in cckext:               7427053 (26 integral passes)



 **********************************************************************************************************************************
 DATASETS  * FILE   NREC   LENGTH (MB)   RECORD NAMES
              1      20      895.17       500      610      700      900      950      970     1000      129      960     1100   
                                          VAR    BASINP    GEOM    SYMINP    ZMAT    AOBASIS   BASIS     P2S    ABASIS      S 
                                         1400     1410     1200     1210     1080     1600     1650     1300     1700     1380   
                                           T        V       H0       H01     AOSYM     SMH    MOLCAS    ERIS     OPER     JKOP   

              2       3        0.85       700     1000     2100   
                                         GEOM     BASIS     RHF  

 PROGRAMS   *        TOTAL   CCSD(T)       RHF       INT
 CPU TIMES  *       290.61    277.03      8.23      5.31
 REAL TIME  *       302.74 SEC
 DISK USED  *         2.56 GB      
 GA USED    *         0.00 MB       (max)       0.00 MB       (current)
 **********************************************************************************************************************************

        CCSD(T)         RHF-SCF 
   -339.04360631   -337.94373611
 **********************************************************************************************************************************
 Variable memory released
