
 Primary working directories    : /tmp/1065196.737.gen4.q
 Secondary working directories  : /tmp/1065196.737.gen4.q
 Wavefunction directory         : /home/vulcan/jj04645/wfu/
 Main file repository           : /tmp/1065196.737.gen4.q/

 ARCHNAME  : Linux/x86_64
 FC        : /opt/intel/compilers_and_libraries_2016.1.150/linux/bin/intel64/ifort
 FCVERSION : 16.0.1
 BLASLIB   : -mkl
 id        : ccgc

 Nodes     nprocs
 n027         1
 ga_uses_ma=false, calling ma_init with nominal heap.
 GA-space will be limited to   8.0 MW (determined by -G option)

 Using customized tuning parameters: mindgm=10; mindgv=16; mindgc=4; mindgr=1; noblas=0; mincuda=1000; minvec=7
 default implementation of scratch files=df  

 ***,Optimization of t-butanol
 memory,1000,m
 gthresh,energy=1.0d-12,orbital=1.0d-10,oneint=1.0d-16,twoint=1.0d-16,optgrad=1.0d-6,compress=1.0d-13
 geomtyp=xyz
 
 bohr
 geometry = {
  C    0.0051936803   -0.0581731961    0.0001532347
  O   -0.0219907020    2.6545925782   -0.0015162738
  C   -2.7674943924   -0.8330086462    0.0006524862
  C    1.3367592050   -1.0191394324   -2.3766225457
  C    1.3367975051   -1.0162128722    2.3780887253
  H    1.7106255951    3.2090424643   -0.0018714984
  H   -2.9456586294   -2.8890754476    0.0019194457
  H   -3.7104008734   -0.0837762276   -1.6739180934
  H   -3.7103739059   -0.0817153629    1.6743146686
  H    1.3132720871   -3.0768617951   -2.4570485531
  H    3.3117698954   -0.3961535664   -2.4028854713
  H    0.4052989664   -0.2699165701   -4.0611064203
  H    1.3133312131   -3.0738335071    2.4610824918
  H    3.3155183806   -0.4048367166    2.3968304125
  H    0.3969645364   -0.2760505008    4.0619273910
 }
 
 basis=VDZ
 {rhf;maxit,200}
 {ccsd(t);maxit,200}

 Variables initialized (661), CPU time= 0.00 sec
 Commands  initialized (458), CPU time= 0.00 sec, 486 directives.
 Default parameters read. Elapsed time= 0.05 sec

 Checking input...
 Passed
1


                                         ***  PROGRAM SYSTEM MOLPRO  ***
                         Copyright, University College Cardiff Consultants Limited, 2008

                                    Version 2010.1 linked May 16 2016 07:17:05


 **********************************************************************************************************************************
 LABEL *   Optimization of t-butanol                                                     
 Linux-4.4.3/n027(x86_64) 64 bit mpp version                                             DATE: 20-May-24          TIME: 13:20:20  
 **********************************************************************************************************************************

 SHA1:             9e8077add272b0f3cad6f7df79ec5211205f459d
 **********************************************************************************************************************************

 THRESHOLDS:

 ZERO    =  1.00D-12  ONEINT  =  1.00D-16  TWOINT  =  1.00D-16  PREFAC  =  1.00D-14  LOCALI  =  1.00D-09  EORDER  =  1.00D-04
 ENERGY  =  1.00D-12  ETEST   =  0.00D+00  EDENS   =  0.00D+00  THRDEDEF=  1.00D-06  GRADIENT=  1.00D-02  STEP    =  1.00D-03
 ORBITAL =  1.00D-10  CIVEC   =  1.00D-05  COEFF   =  1.00D-04  PRINTCI =  5.00D-02  PUNCHCI =  9.90D+01  OPTGRAD =  1.00D-06
 OPTENERG=  1.00D-06  OPTSTEP =  3.00D-04  THRGRAD =  1.00D-10  COMPRESS=  1.00D-13  VARMIN  =  1.00D-07  VARMAX  =  1.00D-03
 THRDOUB =  0.00D+00  THRDIV  =  1.00D-05  THRRED  =  1.00D-07  THRPSP  =  1.00D+00  THRDC   =  1.00D-10  THRCS   =  1.00D-10
 THRNRM  =  1.00D-08  THREQ   =  0.00D+00  THRDE   =  1.00D+00  THRREF  =  1.00D-05  SPARFAC =  1.00D+00  THRDLP  =  1.00D-07
 THRDIA  =  1.00D-10  THRDLS  =  1.00D-07  THRGPS  =  0.00D+00  THRKEX  =  0.00D+00  THRDIS  =  2.00D-01  THRVAR  =  1.00D-10
 THRLOC  =  1.00D-06  THRGAP  =  1.00D-06  THRLOCT = -1.00D+00  THRGAPT = -1.00D+00  THRORB  =  1.00D-06  THRMLTP =  0.00D+00
 THRCPQCI=  1.00D-10  KEXTA   =  0.00D+00  THRCOARS=  0.00D+00  SYMTOL  =  1.00D-06  GRADTOL =  1.00D-06  THROVL  =  1.00D-08
 THRORTH =  1.00D-08  GRID    =  1.00D-06  GRIDMAX =  1.00D-03  DTMAX   =  0.00D+00

 SETTING GEOMTYP        =    XYZ
 ZUNIT=BOHR
 

 Variable memory set to 1000000000 words,  buffer space   230000 words

 SETTING BASIS          =    VDZ


 Recomputing integrals since basis changed


 Using spherical harmonics

 Library entry C      S cc-pVDZ              selected for orbital group  1
 Library entry C      P cc-pVDZ              selected for orbital group  1
 Library entry C      D cc-pVDZ              selected for orbital group  1
 Library entry O      S cc-pVDZ              selected for orbital group  2
 Library entry O      P cc-pVDZ              selected for orbital group  2
 Library entry O      D cc-pVDZ              selected for orbital group  2
 Library entry H      S cc-pVDZ              selected for orbital group  4
 Library entry H      P cc-pVDZ              selected for orbital group  4

1PROGRAM * SEWARD (Integral evaluation for generally contracted gaussian basis sets)     Author: Roland Lindh, 1990

 Geometry written to block  1 of record 700


 Point group  C1  



 ATOMIC COORDINATES

 NR  ATOM    CHARGE       X              Y              Z

   1  C       6.00    0.005193680   -0.058173196    0.000153235
   2  O       8.00   -0.021990702    2.654592578   -0.001516274
   3  C       6.00   -2.767494392   -0.833008646    0.000652486
   4  C       6.00    1.336759205   -1.019139432   -2.376622546
   5  C       6.00    1.336797505   -1.016212872    2.378088725
   6  H       1.00    1.710625595    3.209042464   -0.001871498
   7  H       1.00   -2.945658629   -2.889075448    0.001919446
   8  H       1.00   -3.710400873   -0.083776228   -1.673918093
   9  H       1.00   -3.710373906   -0.081715363    1.674314669
  10  H       1.00    1.313272087   -3.076861795   -2.457048553
  11  H       1.00    3.311769895   -0.396153566   -2.402885471
  12  H       1.00    0.405298966   -0.269916570   -4.061106420
  13  H       1.00    1.313331213   -3.073833507    2.461082492
  14  H       1.00    3.315518381   -0.404836717    2.396830412
  15  H       1.00    0.396964536   -0.276050501    4.061927391

 Bond lengths in Bohr (Angstrom)

 1-2  2.712902491  1-3  2.878918091  1-4  2.888872784  1-5  2.888872784  2-6  1.819168501
     ( 1.435606168)     ( 1.523457840)     ( 1.528725637)     ( 1.528725637)     ( 0.962662510)

  3- 7  2.063771982   3- 8  2.062670229   3- 9  2.062670229   4-10  2.059427423   4-11  2.071103174
       ( 1.092101097)       ( 1.091518075)       ( 1.091518075)       ( 1.089802056)       ( 1.095980597)

  4-12  2.065536007   5-13  2.059427423   5-14  2.071103174   5-15  2.065536007
       ( 1.093034579)       ( 1.089802056)       ( 1.095980597)       ( 1.093034579)

 Bond angles

  1-2-6  107.17091859   1-3-7  110.56564859   1-3-8  110.02067675   1-3-9  110.02067682

  1- 4-10  111.05363903   1- 4-11  110.48225586   1- 4-12  110.02558714   1- 5-13  111.05473867

  1- 5-14  110.48335320   1- 5-15  110.02668445   2- 1- 3  105.03903602   2- 1- 4  109.67835923

  2-1-5  109.67835923   3-1-4  110.76498583   3-1-5  110.76498583   4-1-5  110.75948302

  7- 3- 8  108.83916947   7- 3- 9  108.83916954   8- 3- 9  108.51019466  10- 4-11  108.11530603

 10- 4-12  108.99188313  11- 4-12  108.09428834  13- 5-14  107.78560833  13- 5-15  108.66218536

 14- 5-15  108.75697806

 NUCLEAR CHARGE:                   42
 NUMBER OF PRIMITIVE AOS:         205
 NUMBER OF SYMMETRY AOS:          200
 NUMBER OF CONTRACTIONS:          120   ( 120A   )
 NUMBER OF CORE ORBITALS:           5   (   5A   )
 NUMBER OF VALENCE ORBITALS:       30   (  30A   )


 NUCLEAR REPULSION ENERGY  199.65094821


 Eigenvalues of metric

         1 0.261E-02 0.488E-02 0.490E-02 0.834E-02 0.169E-01 0.191E-01 0.192E-01 0.240E-01


 Contracted 2-electron integrals neglected if value below      1.0D-16
 AO integral compression algorithm  1   Integral accuracy      1.0D-16

     221.512 MB (compressed) written to integral file ( 96.8%)

     Node minimum: 221.512 MB, node maximum: 221.512 MB


 NUMBER OF SORTED TWO-ELECTRON INTEGRALS:   26357430.     BUFFER LENGTH:  32768
 NUMBER OF SEGMENTS:   2  SEGMENT LENGTH:   15997996      RECORD LENGTH: 524288

 Memory used in sort:      16.56 MW

 SORT1 READ    28587749. AND WROTE    26318594. INTEGRALS IN     76 RECORDS. CPU TIME:     0.30 SEC, REAL TIME:     0.46 SEC
 SORT2 READ    26318594. AND WROTE    26357430. INTEGRALS IN    845 RECORDS. CPU TIME:     0.24 SEC, REAL TIME:     0.37 SEC

 FILE SIZES:   FILE 1:   206.7 MBYTE,  FILE 4:   318.8 MBYTE,   TOTAL:    525.5 MBYTE

 OPERATOR DM      FOR CENTER  0  COORDINATES:    0.000000    0.000000    0.000000


 **********************************************************************************************************************************
 DATASETS  * FILE   NREC   LENGTH (MB)   RECORD NAMES
              1      19      206.91       500      610      700      900      950      970     1000      129      960     1100   
                                          VAR    BASINP    GEOM    SYMINP    ZMAT    AOBASIS   BASIS     P2S    ABASIS      S 
                                         1400     1410     1200     1210     1080     1600     1650     1300     1700   
                                           T        V       H0       H01     AOSYM     SMH    MOLCAS    ERIS     OPER   

 PROGRAMS   *        TOTAL       INT
 CPU TIMES  *         3.47      3.42
 REAL TIME  *         4.04 SEC
 DISK USED  *       748.01 MB      
 GA USED    *         0.01 MB       (max)       0.00 MB       (current)
 **********************************************************************************************************************************

1PROGRAM * RHF-SCF (CLOSED SHELL)       Authors: W. Meyer, H.-J. Werner


 NUMBER OF ELECTRONS:      21+   21-    SPACE SYMMETRY=1    SPIN SYMMETRY: Singlet 
 CONVERGENCE THRESHOLDS:    1.00E-10 (Density)    1.00E-13 (Energy)
 MAX. NUMBER OF ITERATIONS:      200
 INTERPOLATION TYPE:            DIIS
 INTERPOLATION STEPS:              2 (START)      1 (STEP)
 LEVEL SHIFTS:                  0.00 (CLOSED)  0.00 (OPEN) 



 Orbital guess generated from atomic densities. Full valence occupancy:   35

 Molecular orbital dump at record        2100.2

 ITERATION    DDIFF          GRAD             ENERGY        2-EL.EN.            DIPOLE MOMENTS         DIIS
    1      0.000D+00      0.000D+00      -232.08676137    561.120237    0.89012   -0.62174   -0.00044    0
    2      0.000D+00      0.616D-02      -232.16303896    555.894279    0.40835   -0.32679   -0.00013    1
    3      0.122D-01      0.265D-02      -232.17372726    557.893435    0.52959   -0.43243   -0.00017    2
    4      0.389D-02      0.733D-03      -232.17502688    557.665479    0.50258   -0.39661   -0.00018    3
    5      0.141D-02      0.192D-03      -232.17510394    557.602528    0.50184   -0.40899   -0.00016    4
    6      0.307D-03      0.357D-04      -232.17510698    557.622625    0.50122   -0.40734   -0.00016    5
    7      0.899D-04      0.658D-05      -232.17510712    557.616987    0.50115   -0.40750   -0.00016    6
    8      0.184D-04      0.210D-05      -232.17510713    557.618565    0.50116   -0.40760   -0.00016    7
    9      0.398D-05      0.678D-06      -232.17510713    557.618219    0.50112   -0.40761   -0.00016    7
   10      0.154D-05      0.189D-06      -232.17510713    557.618273    0.50113   -0.40763   -0.00017    7
   11      0.500D-06      0.388D-07      -232.17510713    557.618261    0.50113   -0.40763   -0.00017    7
   12      0.122D-06      0.119D-07      -232.17510713    557.618269    0.50113   -0.40764   -0.00017    7
   13      0.241D-07      0.517D-08      -232.17510713    557.618267    0.50113   -0.40764   -0.00017    7
   14      0.101D-07      0.169D-08      -232.17510713    557.618267    0.50113   -0.40764   -0.00017    8
   15      0.301D-08      0.441D-09      -232.17510713    557.618267    0.50113   -0.40764   -0.00017    8
   16      0.106D-08      0.109D-09      -232.17510713    557.618267    0.50113   -0.40764   -0.00017    7
   17      0.254D-09      0.301D-10      -232.17510713    557.618267    0.50113   -0.40764   -0.00017    7
   18      0.788D-10      0.853D-11      -232.17510713    557.618267    0.50113   -0.40764   -0.00017    8
   19      0.173D-10      0.230D-11      -232.17510713    557.618267    0.50113   -0.40764   -0.00017    8
   20      0.639D-11      0.761D-12      -232.17510713    557.618267    0.50113   -0.40764   -0.00017    7
   21      0.183D-11      0.260D-12      -232.17510713    557.618267    0.50113   -0.40764   -0.00017    7
   22      0.652D-12      0.919D-13      -232.17510713    557.618267    0.50113   -0.40764   -0.00017    7
   23      0.334D-12      0.463D-13      -232.17510713    557.618267    0.50113   -0.40764   -0.00017    8
   24      0.194D-12      0.292D-13      -232.17510713    557.618267    0.50113   -0.40764   -0.00017    0

 Final occupancy:  21

 !RHF STATE 1.1 Energy               -232.175107129796
 Nuclear energy                       199.65094821
 One-electron energy                 -710.63518882
 Two-electron energy                  278.80913349
 Virial quotient                       -1.00088985
 !RHF STATE 1.1 Dipole moment           0.50112865    -0.40763529    -0.00016502
 Dipole moment /Debye                   1.27365856    -1.03603769    -0.00041940

 Orbital energies:

         1.1          2.1          3.1          4.1          5.1          6.1          7.1          8.1          9.1         10.1
    -20.545049   -11.282097   -11.220481   -11.220460   -11.214437    -1.352110    -1.064320    -0.939940    -0.938136    -0.766749

        11.1         12.1         13.1         14.1         15.1         16.1         17.1         18.1         19.1         20.1
     -0.665387    -0.620886    -0.618292    -0.573183    -0.554228    -0.527852    -0.514147    -0.505520    -0.500244    -0.458092

        21.1         22.1         23.1
     -0.426851     0.166883     0.220165


 **********************************************************************************************************************************
 DATASETS  * FILE   NREC   LENGTH (MB)   RECORD NAMES
              1      19      206.91       500      610      700      900      950      970     1000      129      960     1100   
                                          VAR    BASINP    GEOM    SYMINP    ZMAT    AOBASIS   BASIS     P2S    ABASIS      S 
                                         1400     1410     1200     1210     1080     1600     1650     1300     1700   
                                           T        V       H0       H01     AOSYM     SMH    MOLCAS    ERIS     OPER   

              2       3        0.80       700     1000     2100   
                                         GEOM     BASIS     RHF  

 PROGRAMS   *        TOTAL       RHF       INT
 CPU TIMES  *         8.42      4.95      3.42
 REAL TIME  *         9.56 SEC
 DISK USED  *       748.01 MB      
 GA USED    *         0.01 MB       (max)       0.00 MB       (current)
 **********************************************************************************************************************************


1PROGRAM * CCSD (Closed-shell coupled cluster)     Authors: C. Hampel, H.-J. Werner, 1991, M. Deegan, P.J. Knowles, 1992


 Convergence thresholds:  THRVAR = 1.00D-08  THRDEN = 1.00D-12

 CCSD(T)     terms to be evaluated (factor= 1.000)


 Number of core orbitals:           5 (   5 )
 Number of closed-shell orbitals:  16 (  16 )
 Number of external orbitals:      99 (  99 )

 Molecular orbitals read from record     2100.2  Type=RHF/CANONICAL (state 1.1)

 Number of N-1 electron functions:              16
 Number of N-2 electron functions:             136
 Number of singly external CSFs:              1584
 Number of doubly external CSFs:           1255320
 Total number of CSFs:                     1256905

 Length of J-op  integral file:               0.00 MB
 Length of K-op  integral file:               1.03 MB
 Length of 3-ext integral record:             0.00 MB

 Memory could be reduced to 21.47 Mwords without degradation in triples

 Integral transformation finished. Total CPU:   1.77 sec, npass=  1  Memory used:  18.35 MW

 Reference energy:                   -232.17510713

 MP2 singlet pair energy:              -0.49759322
 MP2 triplet pair energy:              -0.27475237
 MP2 correlation energy:               -0.77234559
 MP2 total energy:                   -232.94745272

 SCS-MP2 correlation energy:           -0.76806889   (PS=  1.200000  PT=  0.333333)
 SCS-MP2 total energy:               -232.94317602

 ITER.      SQ.NORM     CORR.ENERGY   TOTAL ENERGY   ENERGY CHANGE        DEN1      VAR(S)    VAR(P)  DIIS     TIME
   1      1.27363046    -0.82954440  -233.00465153    -0.05719881    -0.03606032  0.25D-02  0.44D-02  1  1     7.25
   2      1.29481612    -0.83386537  -233.00897250    -0.00432097    -0.02220468  0.67D-04  0.42D-03  2  2    12.70
   3      1.29934237    -0.83407556  -233.00918269    -0.00021019    -0.00277737  0.24D-04  0.24D-04  3  3    18.15
   4      1.30061046    -0.83408146  -233.00918859    -0.00000590    -0.00060324  0.64D-06  0.21D-05  4  4    23.61
   5      1.30084185    -0.83409043  -233.00919756    -0.00000897    -0.00008105  0.19D-06  0.15D-06  5  5    29.06
   6      1.30088294    -0.83408716  -233.00919429     0.00000327    -0.00001318  0.26D-07  0.14D-07  6  6    34.65
   7      1.30088986    -0.83408595  -233.00919308     0.00000121    -0.00000071  0.38D-08  0.17D-08  6  1    40.21
   8      1.30089342    -0.83408596  -233.00919309    -0.00000001    -0.00000041  0.68D-09  0.22D-09  6  2    45.66
   9      1.30089399    -0.83408590  -233.00919303     0.00000006     0.00000057  0.64D-10  0.39D-10  6  4    51.12
  10      1.30089457    -0.83408588  -233.00919301     0.00000001    -0.00000001  0.50D-11  0.38D-11  6  3    56.66
  11      1.30089455    -0.83408589  -233.00919302    -0.00000000     0.00000005  0.78D-12  0.47D-12  6  5    62.11
  12      1.30089449    -0.83408589  -233.00919302    -0.00000000     0.00000003  0.14D-12  0.66D-13  6  6    67.58
  13      1.30089443    -0.83408589  -233.00919302    -0.00000000     0.00000003  0.11D-13  0.10D-13  6  2    73.04
  14      1.30089442    -0.83408589  -233.00919302    -0.00000000     0.00000001  0.17D-14  0.61D-15  6  1    78.52
  15      1.30089442    -0.83408589  -233.00919302    -0.00000000     0.00000000  0.22D-15  0.13D-15  6  4    83.97
  16      1.30089442    -0.83408589  -233.00919302     0.00000000    -0.00000000  0.35D-16  0.20D-16  6  3    89.43
  17      1.30089442    -0.83408589  -233.00919302     0.00000000    -0.00000000  0.34D-17  0.26D-17  6  5    94.90
  18      1.30089442    -0.83408589  -233.00919302    -0.00000000    -0.00000000  0.90D-18  0.35D-18  6  6   100.36
  19      1.30089442    -0.83408589  -233.00919302    -0.00000000    -0.00000000  0.22D-18  0.64D-19  6  2   106.04
  20      1.30089442    -0.83408589  -233.00919302    -0.00000000     0.00000000  0.34D-19  0.12D-19  6  1   111.56
  21      1.30089442    -0.83408589  -233.00919302    -0.00000000     0.00000000  0.42D-20  0.21D-20  6  4   117.01
  22      1.30089442    -0.83408589  -233.00919302     0.00000000    -0.00000000  0.74D-21  0.33D-21  6  3   122.47

 Norm of t1 vector:      0.06603360      S-energy:    -0.00000000      T1 diagnostic:  0.00825420
                                                                       D1 diagnostic:  0.02160748


 Total CPU time for triples:     78.60 sec


 RESULTS
 =======

  Reference energy                   -232.175107129796
  CCSD singlet pair energy             -0.581021216930
  CCSD triplet pair energy             -0.253064674942
  CCSD correlation energy              -0.834085891873

  Triples (T) contribution             -0.023259960728
  Total correlation energy             -0.857345852600

  CCSD total energy                  -233.009193021669
  CCSD[T] energy                     -233.033149632094
  CCSD-T energy                      -233.032116992563
 !CCSD(T) total energy               -233.032452982396

 Timing summary (sec):

 STEP                 CPU(USER)    SYS     CPU(TOT)    WALL
 Transformation          1.87      0.15      2.02      2.02
 CCSD iterations       120.61      1.98    122.59    122.68
 Triples                78.60      1.24     79.84     79.85

 Program statistics:

 Available memory in ccsd:               999998876
 Min. memory needed in ccsd:               3310297
 Max. memory used in ccsd:                 4412497
 Max. memory used in cckext:               4149679 (22 integral passes)



 **********************************************************************************************************************************
 DATASETS  * FILE   NREC   LENGTH (MB)   RECORD NAMES
              1      20      293.57       500      610      700      900      950      970     1000      129      960     1100   
                                          VAR    BASINP    GEOM    SYMINP    ZMAT    AOBASIS   BASIS     P2S    ABASIS      S 
                                         1400     1410     1200     1210     1080     1600     1650     1300     1700     1380   
                                           T        V       H0       H01     AOSYM     SMH    MOLCAS    ERIS     OPER     JKOP   

              2       3        0.80       700     1000     2100   
                                         GEOM     BASIS     RHF  

 PROGRAMS   *        TOTAL   CCSD(T)       RHF       INT
 CPU TIMES  *       209.51    201.09      4.95      3.42
 REAL TIME  *       214.17 SEC
 DISK USED  *       748.01 MB      
 GA USED    *         0.01 MB       (max)       0.00 MB       (current)
 **********************************************************************************************************************************

        CCSD(T)         RHF-SCF 
   -233.03245298   -232.17510713
 **********************************************************************************************************************************
 Variable memory released
