
    -----------------------------------------------------------------------
          Psi4: An Open-Source Ab Initio Electronic Structure Package
                               Psi4 1.4a2.dev629 

                         Git: Rev {master} 2938fc2 dirty


    D. G. A. Smith, L. A. Burns, A. C. Simmonett, R. M. Parrish,
    M. C. Schieber, R. Galvelis, P. Kraus, H. Kruse, R. Di Remigio,
    A. Alenaizan, A. M. James, S. Lehtola, J. P. Misiewicz, M. Scheurer,
    R. A. Shaw, J. B. Schriber, Y. Xie, Z. L. Glick, D. A. Sirianni,
    J. S. O'Brien, J. M. Waldrop, A. Kumar, E. G. Hohenstein,
    B. P. Pritchard, B. R. Brooks, H. F. Schaefer III, A. Yu. Sokolov,
    K. Patkowski, A. E. DePrince III, U. Bozkaya, R. A. King,
    F. A. Evangelista, J. M. Turney, T. D. Crawford, C. D. Sherrill,
    J. Chem. Phys. 152(18) 184108 (2020). https://doi.org/10.1063/5.0006002

                            Additional Code Authors
    E. T. Seidl, C. L. Janssen, E. F. Valeev, M. L. Leininger,
    J. F. Gonthier, R. M. Richard, H. R. McAlexander, M. Saitow, X. Wang,
    P. Verma, and M. H. Lechner

             Previous Authors, Complete List of Code Contributors,
                       and Citations for Specific Modules
    https://github.com/psi4/psi4/blob/master/codemeta.json
    https://github.com/psi4/psi4/graphs/contributors
    http://psicode.org/psi4manual/master/introduction.html#citing-psifour

    -----------------------------------------------------------------------


    Psi4 started on: Thursday, 06 January 2022 09:25AM

    Process ID: 4994
    Host:       n085
    PSIDATADIR: /opt/psi/4/master/share/psi4
    Memory:     500.0 MiB
    Threads:    4
    
  ==> Input File <==

--------------------------------------------------------------------------
import os
memory 14 GB 
 
molecule {
 C    1.2664767141    0.0000000000   -0.0000000000
 Cl    3.0079989247   -2.7485513549    0.0000000000
 Cl    3.0079989247    2.7485513549    0.0000000000
 C   -1.2740070143   -0.0000000000    0.0000000000
 Cl   -3.0042337746   -2.7448693074    0.0000000000
 Cl   -3.0042337746    2.7448693074   -0.0000000000
units bohr
}

basis {

assign 6-31g_2dfp_

[ 6-31g_2dfp_ ]

spherical

!----------------------------------------------------------------------
! Basis Set Exchange
! Version v0.8.13
! https://www.basissetexchange.org
!----------------------------------------------------------------------
!   Basis set: 6-31G(2df,p)
! Description: 6-31G(2df,p)
!        Role: orbital
!     Version: 0  (Data from the original Basis Set Exchange)
!----------------------------------------------------------------------


****
H     0
S    3   1.00
     18.7311370              0.03349460
      2.8253937              0.23472695
      0.6401217              0.81375733
S    1   1.00
      0.1612778              1.00000000
P    1   1.00
      1.5000000              1.0000000
P    1   1.00
      0.3750000              1.0000000
****
B     0
S    6   1.00
   2068.8823000              0.0018663
    310.6495700              0.0142515
     70.6830330              0.0695516
     19.8610800              0.2325729
      6.2993048              0.4670787
      2.1270270              0.3634314
SP   3   1.00
      4.7279710             -0.1303938              0.0745976
      1.1903377             -0.1307889              0.3078467
      0.3594117              1.1309444              0.7434568
SP   1   1.00
      0.1267512              1.0000000              1.0000000
D    1   1.00
      0.8020000              1.0000000
D    1   1.00
      0.2005000              1.0000000
F    1   1.00
      0.5000000              1.0000000
****
C     0
S    6   1.00
   3047.5249000              0.0018347
    457.3695100              0.0140373
    103.9486900              0.0688426
     29.2101550              0.2321844
      9.2866630              0.4679413
      3.1639270              0.3623120
SP   3   1.00
      7.8682724             -0.1193324              0.0689991
      1.8812885             -0.1608542              0.3164240
      0.5442493              1.1434564              0.7443083
SP   1   1.00
      0.1687144              1.0000000              1.0000000
D    1   1.00
      1.2520000              1.0000000
D    1   1.00
      0.3130000              1.0000000
F    1   1.00
      0.8000000              1.0000000
****
N     0
S    6   1.00
   4173.5110000              0.0018348
    627.4579000              0.0139950
    142.9021000              0.0685870
     40.2343300              0.2322410
     12.8202100              0.4690700
      4.3904370              0.3604550
SP   3   1.00
     11.6263580             -0.1149610              0.0675800
      2.7162800             -0.1691180              0.3239070
      0.7722180              1.1458520              0.7408950
SP   1   1.00
      0.2120313              1.0000000              1.0000000
D    1   1.00
      1.8260000              1.0000000
D    1   1.00
      0.4565000              1.0000000
F    1   1.00
      1.0000000              1.0000000
****
O     0
S    6   1.00
   5484.6717000              0.0018311
    825.2349500              0.0139501
    188.0469600              0.0684451
     52.9645000              0.2327143
     16.8975700              0.4701930
      5.7996353              0.3585209
SP   3   1.00
     15.5396160             -0.1107775              0.0708743
      3.5999336             -0.1480263              0.3397528
      1.0137618              1.1307670              0.7271586
SP   1   1.00
      0.2700058              1.0000000              1.0000000
D    1   1.00
      2.5840000              1.0000000
D    1   1.00
      0.6460000              1.0000000
F    1   1.00
      1.4000000              1.0000000
****
F     0
S    6   1.00
   7001.7130900              0.0018196169
   1051.3660900              0.0139160796
    239.2856900              0.0684053245
     67.3974453              0.233185760
     21.5199573              0.471267439
      7.40310130             0.356618546
SP   3   1.00
     20.8479528             -0.108506975            0.0716287243
      4.80830834            -0.146451658            0.3459121030
      1.34406986             1.128688580            0.7224699570
SP   1   1.00
      0.358151393            1.0000000              1.0000000
D    1   1.00
      3.5000000              1.0000000
D    1   1.00
      0.8750000              1.0000000
F    1   1.00
      1.8500000              1.0000000
****
Al     0
S    6   1.00
  13983.1000000              0.00194267
   2098.7500000              0.0148599
    477.7050000              0.0728494
    134.3600000              0.2468300
     42.8709000              0.4872580
     14.5189000              0.3234960
SP   6   1.00
    239.6680000             -0.00292619             0.00460285
     57.4419000             -0.0374080              0.0331990
     18.2859000             -0.1144870              0.1362820
      6.5991400              0.1156350              0.3304760
      2.4904900              0.6125950              0.4491460
      0.9445400              0.3937990              0.2657040
SP   3   1.00
      1.2779000             -0.2276060             -0.0175130
      0.3975900              0.00144583             0.2445330
      0.1600950              1.0927900              0.8049340
SP   1   1.00
      0.0556577              1.0000000              1.0000000
D    1   1.00
      0.6500000              1.0000000
D    1   1.00
      0.1625000              1.0000000
F    1   1.00
      0.2500000              1.0000000
****
Si     0
S    6   1.00
  16115.9000000              0.00195948
   2425.5800000              0.01492880
    553.8670000              0.07284780
    156.3400000              0.24613000
     50.0683000              0.48591400
     17.0178000              0.32500200
SP   6   1.00
    292.7180000             -0.00278094             0.00443826
     69.8731000             -0.03571460             0.03266790
     22.3363000             -0.11498500             0.13472100
      8.1503900              0.09356340             0.32867800
      3.1345800              0.60301700             0.44964000
      1.2254300              0.41895900             0.26137200
SP   3   1.00
      1.7273800             -0.24463000            -0.01779510
      0.5729220              0.00431572             0.25353900
      0.2221920              1.09818000             0.80066900
SP   1   1.00
      0.0778369              1.00000000             1.00000000
D    1   1.00
      0.9000000              1.0000000
D    1   1.00
      0.2250000              1.0000000
F    1   1.00
      0.3200000              1.0000000
****
P     0
S    6   1.00
  19413.3000000              0.0018516
   2909.4200000              0.0142062
    661.3640000              0.0699995
    185.7590000              0.2400790
     59.1943000              0.4847620
     20.0310000              0.3352000
SP   6   1.00
    339.4780000             -0.00278217             0.00456462
     81.0101000             -0.0360499              0.03369360
     25.8780000             -0.1166310              0.13975500
      9.4522100              0.0968328              0.33936200
      3.6656600              0.6144180              0.45092100
      1.4674600              0.4037980              0.23858600
SP   3   1.00
      2.1562300             -0.2529230             -0.01776530
      0.7489970              0.0328517              0.27405800
      0.2831450              1.0812500              0.78542100
SP   1   1.00
      0.0998317              1.0000000              1.00000000
D    1   1.00
      1.1000000              1.0000000
D    1   1.00
      0.2750000              1.0000000
F    1   1.00
      0.4500000              1.0000000
****
S     0
S    6   1.00
  21917.1000000              0.0018690
   3301.4900000              0.0142300
    754.1460000              0.0696960
    212.7110000              0.2384870
     67.9896000              0.4833070
     23.0515000              0.3380740
SP   6   1.00
    423.7350000             -0.0023767              0.0040610
    100.7100000             -0.0316930              0.0306810
     32.1599000             -0.1133170              0.1304520
     11.8079000              0.0560900              0.3272050
      4.6311000              0.5922550              0.4528510
      1.8702500              0.4550060              0.2560420
SP   3   1.00
      2.6158400             -0.2503740             -0.0145110
      0.9221670              0.0669570              0.3102630
      0.3412870              1.0545100              0.7544830
SP   1   1.00
      0.1171670              1.0000000              1.0000000
D    1   1.00
      1.3000000              1.0000000
D    1   1.00
      0.3250000              1.0000000
F    1   1.00
      0.5500000              1.0000000
****
Cl     0
S    6   1.00
  25180.1000000              0.0018330
   3780.3500000              0.0140340
    860.4740000              0.0690970
    242.1450000              0.2374520
     77.3349000              0.4830340
     26.2470000              0.3398560
SP   6   1.00
    491.7650000             -0.0022974              0.0039894
    116.9840000             -0.0307140              0.0303180
     37.4153000             -0.1125280              0.1298800
     13.7834000              0.0450160              0.3279510
      5.4521500              0.5893530              0.4535270
      2.2258800              0.4652060              0.2521540
SP   3   1.00
      3.1864900             -0.2518300             -0.0142990
      1.1442700              0.0615890              0.3235720
      0.4203770              1.0601800              0.7435070
SP   1   1.00
      0.1426570              1.0000000              1.0000000
D    1   1.00
      1.5000000              1.0000000
D    1   1.00
      0.3750000              1.0000000
F    1   1.00
      0.7000000              1.0000000
****
}


set {
reference rhf                          
freeze_core true
e_convergence 10                       
d_convergence 10                      
dft_spherical_points 1202
dft_radial_points 99
}

e = energy('b3lyp')

print_out('Grab this energy {0}'.format(e))
--------------------------------------------------------------------------

  Memory set to  13.039 GiB by Python driver.

Scratch directory: /tmp/

*** tstart() called on n085
*** at Thu Jan  6 09:25:32 2022

   => Loading Basis Set <=

    Name: ANONYMOUSBE7A4234
    Role: ORBITAL
    Keyword: BASIS
    atoms 1, 4     entry C          line    48 inputblock 6-31g_2dfp_ 
    atoms 2-3, 5-6 entry CL         line   244 inputblock 6-31g_2dfp_ 


         ---------------------------------------------------------
                                   SCF
               by Justin Turney, Rob Parrish, Andy Simmonett
                          and Daniel G. A. Smith
                              RKS Reference
                        4 Threads,  13351 MiB Core
         ---------------------------------------------------------

  ==> Geometry <==

    Molecular point group: c2v
    Full point group: C2v

    Geometry (in Bohr), charge = 0, multiplicity = 1:

       Center              X                  Y                   Z               Mass       
    ------------   -----------------  -----------------  -----------------  -----------------
         C            0.000000000000     0.000000000000     1.265421263772    12.000000000000
         CL          -0.000000000000     2.748551354900     3.006943474372    34.968852682000
         CL           0.000000000000    -2.748551354900     3.006943474372    34.968852682000
         C            0.000000000000     0.000000000000    -1.275062464628    12.000000000000
         CL          -0.000000000000     2.744869307400    -3.005289224928    34.968852682000
         CL           0.000000000000    -2.744869307400    -3.005289224928    34.968852682000

  Running in c2v symmetry.

  Rotational constants: A =      0.05705  B =      0.04621  C =      0.02553 [cm^-1]
  Rotational constants: A =   1710.20291  B =   1385.34037  C =    765.36263 [MHz]
  Nuclear repulsion =  492.340300680657890

  Charge       = 0
  Multiplicity = 1
  Electrons    = 80
  Nalpha       = 40
  Nbeta        = 40

  ==> Algorithm <==

  SCF Algorithm Type is DF.
  DIIS enabled.
  MOM disabled.
  Fractional occupation disabled.
  Guess Type is SAD.
  Energy threshold   = 1.00e-10
  Density threshold  = 1.00e-10
  Integral threshold = 0.00e+00

  ==> Primary Basis <==

  Basis Set: ANONYMOUSBE7A4234
    Blend: 6-31G_2DFP_
    Number of shells: 56
    Number of basis function: 172
    Number of Cartesian functions: 202
    Spherical Harmonics?: true
    Max angular momentum: 3

  ==> DFT Potential <==

   => Composite Functional: B3LYP <= 

    B3LYP Hyb-GGA Exchange-Correlation Functional

    P. J. Stephens, F. J. Devlin, C. F. Chabalowski, and M. J. Frisch, J. Phys. Chem. 98, 11623 (1994)

    Deriv               =              1
    GGA                 =           TRUE
    Meta                =          FALSE

    Exchange Hybrid     =           TRUE
    MP2 Hybrid          =          FALSE

   => Exchange Functionals <=

    0.0800   Slater exchange
    0.7200         Becke 88

   => Exact (HF) Exchange <=

    0.2000               HF 

   => Correlation Functionals <=

    0.1900   Vosko, Wilk & Nusair (VWN5_RPA)
    0.8100   Lee, Yang & Parr

   => Molecular Quadrature <=

    Radial Scheme          =       TREUTLER
    Pruning Scheme         =           NONE
    Nuclear Scheme         =       TREUTLER

    BS radius alpha        =              1
    Pruning alpha          =              1
    Radial Points          =             99
    Spherical Points       =           1202
    Total Points           =         641656
    Total Blocks           =           4625
    Max Points             =            256
    Max Functions          =            160
    Weights Tolerance      =       1.00E-15

   => Loading Basis Set <=

    Name: (ANONYMOUSBE7A4234 AUX)
    Role: JKFIT
    Keyword: DF_BASIS_SCF
    atoms 1, 4     entry C          line   198 file /opt/psi/4/master/share/psi4/basis/def2-universal-jkfit.gbs 
    atoms 2-3, 5-6 entry CL         line   986 file /opt/psi/4/master/share/psi4/basis/def2-universal-jkfit.gbs 

  ==> Integral Setup <==

  DFHelper Memory: AOs need 0.150 GiB; user supplied 7.462 GiB. Using in-core AOs.

  ==> MemDFJK: Density-Fitted J/K Matrices <==

    J tasked:                   Yes
    K tasked:                   Yes
    wK tasked:                   No
    OpenMP threads:               4
    Memory [MiB]:              7641
    Algorithm:                 Core
    Schwarz Cutoff:           1E-12
    Mask sparsity (%):       4.2185
    Fitting Condition:        1E-10

   => Auxiliary Basis Set <=

  Basis Set: (ANONYMOUSBE7A4234 AUX)
    Blend: DEF2-UNIVERSAL-JKFIT
    Number of shells: 202
    Number of basis function: 662
    Number of Cartesian functions: 798
    Spherical Harmonics?: true
    Max angular momentum: 4

  Cached 100.0% of DFT collocation blocks in 2.317 [GiB].

  Minimum eigenvalue in the overlap matrix is 5.9228665290E-04.
  Reciprocal condition number of the overlap matrix is 1.3184092823E-04.
    Using symmetric orthogonalization.

  ==> Pre-Iterations <==

  SCF Guess: Superposition of Atomic Densities via on-the-fly atomic UHF (no occupation information).

   -------------------------
    Irrep   Nso     Nmo    
   -------------------------
     A1        62      62 
     A2        26      26 
     B1        32      32 
     B2        52      52 
   -------------------------
    Total     172     172
   -------------------------

  ==> Iterations <==

                           Total Energy        Delta E     RMS |[F,P]|

   @DF-RKS iter SAD: -1917.13253456253119   -1.91713e+03   0.00000e+00 
   @DF-RKS iter   1: -1916.89354165507552    2.38993e-01   3.82992e-03 DIIS
   @DF-RKS iter   2: -1916.84945144726066    4.40902e-02   4.94659e-03 DIIS
   @DF-RKS iter   3: -1916.95103496840215   -1.01584e-01   1.39376e-03 DIIS
   @DF-RKS iter   4: -1916.95908957367578   -8.05461e-03   8.27596e-05 DIIS
   @DF-RKS iter   5: -1916.95911540785505   -2.58342e-05   3.85880e-05 DIIS
   @DF-RKS iter   6: -1916.95912119429818   -5.78644e-06   9.43082e-06 DIIS
   @DF-RKS iter   7: -1916.95912139838242   -2.04084e-07   6.34269e-06 DIIS
   @DF-RKS iter   8: -1916.95912156511554   -1.66733e-07   5.66419e-07 DIIS
   @DF-RKS iter   9: -1916.95912156642657   -1.31104e-09   1.87407e-07 DIIS
   @DF-RKS iter  10: -1916.95912156658687   -1.60298e-10   1.84096e-08 DIIS
   @DF-RKS iter  11: -1916.95912156658778   -9.09495e-13   6.30032e-09 DIIS
   @DF-RKS iter  12: -1916.95912156659119   -3.41061e-12   1.70865e-09 DIIS
   @DF-RKS iter  13: -1916.95912156659119    0.00000e+00   1.28022e-10 DIIS
   @DF-RKS iter  14: -1916.95912156659074    4.54747e-13   2.53955e-11 DIIS
  Energy and wave function converged.


  ==> Post-Iterations <==

    Orbital Energies [Eh]
    ---------------------

    Doubly Occupied:                                                      

       1B2  -101.569568     1A1  -101.569552     2B2  -101.569239  
       2A1  -101.569223     3A1   -10.322094     4A1   -10.321386  
       3B2    -9.497309     5A1    -9.497266     4B2    -9.496900  
       6A1    -9.496858     7A1    -7.260596     5B2    -7.260589  
       8A1    -7.260213     6B2    -7.260204     1A2    -7.251317  
       1B1    -7.251298     2A2    -7.250916     2B1    -7.250899  
       9A1    -7.250808     7B2    -7.250803    10A1    -7.250413  
       8B2    -7.250405    11A1    -0.962855    12A1    -0.909757  
       9B2    -0.868585    10B2    -0.845894    13A1    -0.734740  
      14A1    -0.570402    15A1    -0.513552    11B2    -0.511989  
       3B1    -0.453984    12B2    -0.442276     4B1    -0.387408  
      16A1    -0.366589    17A1    -0.355826     3A2    -0.354094  
      13B2    -0.348306     4A2    -0.342119    14B2    -0.313196  
       5B1    -0.257242  

    Virtual:                                                              

       6B1    -0.039957    15B2    -0.017056    18A1    -0.012090  
      19A1    -0.005375    16B2     0.123358    20A1     0.224942  
      21A1     0.231661    17B2     0.272253    22A1     0.293397  
      23A1     0.310826     5A2     0.327808    18B2     0.329354  
      24A1     0.334185    25A1     0.348788     7B1     0.352400  
       6A2     0.369992    19B2     0.370565     8B1     0.386034  
       7A2     0.386046    26A1     0.386059     9B1     0.387623  
      27A1     0.402109    28A1     0.402742    20B2     0.404309  
      21B2     0.405254    10B1     0.426226    22B2     0.428589  
      23B2     0.430939    11B1     0.446279     8A2     0.461159  
       9A2     0.496217    12B1     0.523502    10A2     0.537681  
      29A1     0.549918    24B2     0.582045    25B2     0.624238  
      13B1     0.653879    30A1     0.671877    31A1     0.713910  
      26B2     0.723391    32A1     0.781404    27B2     0.819630  
      33A1     0.825116    14B1     0.839625    11A2     0.863271  
      28B2     0.882161    15B1     0.891079    29B2     0.926746  
      34A1     0.932501    35A1     1.006032    36A1     1.038218  
      37A1     1.163029    16B1     1.172264    12A2     1.205427  
      30B2     1.209944    31B2     1.334429    38A1     1.451709  
      39A1     1.516877    32B2     1.708905    17B1     1.918951  
      40A1     1.929839    13A2     1.938417    18B1     1.986516  
      14A2     1.991231    33B2     1.996529    34B2     2.025876  
      19B1     2.031811    41A1     2.036505    35B2     2.039267  
      15A2     2.043174    20B1     2.043834    16A2     2.047435  
      36B2     2.048488    37B2     2.057540    42A1     2.060076  
      43A1     2.096706    17A2     2.098272    44A1     2.114690  
      21B1     2.117565    38B2     2.174740    18A2     2.179849  
      45A1     2.191366    39B2     2.211156    46A1     2.218262  
      22B1     2.233210    47A1     2.266939    23B1     2.292184  
      40B2     2.320078    19A2     2.334073    20A2     2.349504  
      41B2     2.357651    48A1     2.397311    49A1     2.399518  
      24B1     2.401098    42B2     2.409048    50A1     2.444331  
      21A2     2.447647    25B1     2.482785    43B2     2.557595  
      51A1     2.568534    26B1     2.605704    44B2     2.615136  
      52A1     2.626669    45B2     2.649862    22A2     2.757664  
      27B1     2.838272    53A1     2.842080    46B2     2.884942  
      54A1     3.001575    55A1     3.003645    47B2     3.067482  
      28B1     3.133181    23A2     3.215271    29B1     3.234118  
      56A1     3.246188    24A2     3.327106    48B2     3.336645  
      57A1     3.374051    25A2     3.441290    58A1     3.547153  
      49B2     3.556868    30B1     3.571650    31B1     3.594220  
      50B2     3.682089    59A1     3.779905    26A2     3.906833  
      60A1     4.001654    51B2     4.090874    32B1     4.129081  
      61A1     4.522645    62A1     4.529959    52B2     4.670586  

    Final Occupation by Irrep:
             A1    A2    B1    B2 
    DOCC [    17,    4,    5,   14 ]

  @DF-RKS Final Energy: -1916.95912156659074

   => Energetics <=

    Nuclear Repulsion Energy =            492.3403006806578901
    One-Electron Energy =               -3624.6292844464655900
    Two-Electron Energy =                1315.1278025054061800
    DFT Exchange-Correlation Energy =     -99.7979403061892896
    Empirical Dispersion Energy =           0.0000000000000000
    VV10 Nonlocal Energy =                  0.0000000000000000
    Total Energy =                      -1916.9591215665907384

Computation Completed


Properties will be evaluated at   0.000000,   0.000000,   0.000000 [a0]

Properties computed using the SCF density matrix

  Nuclear Dipole Moment: [e a0]
     X:     0.0000      Y:     0.0000      Z:    -0.0016

  Electronic Dipole Moment: [e a0]
     X:     0.0000      Y:     0.0000      Z:    -0.0073

  Dipole Moment: [e a0]
     X:     0.0000      Y:     0.0000      Z:    -0.0089     Total:     0.0089

  Dipole Moment: [D]
     X:     0.0000      Y:     0.0000      Z:    -0.0225     Total:     0.0225


*** tstop() called on n085 at Thu Jan  6 09:25:45 2022
Module time:
	user time   =      47.81 seconds =       0.80 minutes
	system time =       0.70 seconds =       0.01 minutes
	total time  =         13 seconds =       0.22 minutes
Total time:
	user time   =      47.81 seconds =       0.80 minutes
	system time =       0.70 seconds =       0.01 minutes
	total time  =         13 seconds =       0.22 minutes
Grab this energy -1916.9591215665907
    Psi4 stopped on: Thursday, 06 January 2022 09:25AM
    Psi4 wall time for execution: 0:00:12.47

*** Psi4 exiting successfully. Buy a developer a beer!
