
 Primary working directories    : /tmp/944438.205.gen6.q
 Secondary working directories  : /tmp/944438.205.gen6.q
 Wavefunction directory         : /home/vulcan/mel64643/wfu/
 Main file repository           : /tmp/944438.205.gen6.q/

 ARCHNAME  : Linux/x86_64
 FC        : /opt/intel/compilers_and_libraries_2016.1.150/linux/bin/intel64/ifort
 FCVERSION : 16.0.1
 BLASLIB   : -mkl
 id        : ccgc

 Nodes     nprocs
 n085         1
 ga_uses_ma=false, calling ma_init with nominal heap.
 GA-space will be limited to   8.0 MW (determined by -G option)

 Using customized tuning parameters: mindgm=10; mindgv=16; mindgc=4; mindgr=1; noblas=0; mincuda=1000; minvec=7
 default implementation of scratch files=df  

 ***,Optimization of min3
 memory,1000,m
 gthresh,energy=1.0d-12,orbital=1.0d-10,oneint=1.0d-16,twoint=1.0d-16,optgrad=1.0d-6,compress=1.0d-13
 geomtyp=xyz
 
 
 
  bohr
  geometry = {
  C   -0.2840854839    2.3989845634   -2.1303873671
  C    0.7669750960    0.0042793817   -0.8937296253
  C    0.1918883335    0.0043720537    1.8336954646
  N   -0.2983152520    0.0044289767    3.9765949210
  H    2.8265090855    0.0051117348   -1.0630663368
  C   -0.2872301568   -2.4033079808   -2.1358490056
  H   -2.3423023805   -2.4445529870   -1.9595660894
  H    0.4759802927   -4.1024970791   -1.2548702126
  H    0.1981042426   -2.4211741270   -4.1404819164
  H   -2.3391911812    2.4385702287   -1.9541142555
  H    0.2012341530    2.4167663666   -4.1350246019
  H    0.4777172810    4.0990188683   -1.2498208875
 }
 
 basis=cc-pvdz
 {rhf;maxit,200}
 {ccsd(t);maxit,200}

 Variables initialized (661), CPU time= 0.00 sec
 Commands  initialized (458), CPU time= 0.01 sec, 486 directives.
 Default parameters read. Elapsed time= 0.04 sec

 Checking input...
 Passed
1


                                         ***  PROGRAM SYSTEM MOLPRO  ***
                         Copyright, University College Cardiff Consultants Limited, 2008

                                    Version 2010.1 linked May 16 2016 07:17:05


 **********************************************************************************************************************************
 LABEL *   Optimization of min3                                                          
 Linux-4.4.3/n085(x86_64) 64 bit mpp version                                             DATE: 27-Oct-23          TIME: 10:37:19  
 **********************************************************************************************************************************

 SHA1:             9e8077add272b0f3cad6f7df79ec5211205f459d
 **********************************************************************************************************************************

 THRESHOLDS:

 ZERO    =  1.00D-12  ONEINT  =  1.00D-16  TWOINT  =  1.00D-16  PREFAC  =  1.00D-14  LOCALI  =  1.00D-09  EORDER  =  1.00D-04
 ENERGY  =  1.00D-12  ETEST   =  0.00D+00  EDENS   =  0.00D+00  THRDEDEF=  1.00D-06  GRADIENT=  1.00D-02  STEP    =  1.00D-03
 ORBITAL =  1.00D-10  CIVEC   =  1.00D-05  COEFF   =  1.00D-04  PRINTCI =  5.00D-02  PUNCHCI =  9.90D+01  OPTGRAD =  1.00D-06
 OPTENERG=  1.00D-06  OPTSTEP =  3.00D-04  THRGRAD =  1.00D-10  COMPRESS=  1.00D-13  VARMIN  =  1.00D-07  VARMAX  =  1.00D-03
 THRDOUB =  0.00D+00  THRDIV  =  1.00D-05  THRRED  =  1.00D-07  THRPSP  =  1.00D+00  THRDC   =  1.00D-10  THRCS   =  1.00D-10
 THRNRM  =  1.00D-08  THREQ   =  0.00D+00  THRDE   =  1.00D+00  THRREF  =  1.00D-05  SPARFAC =  1.00D+00  THRDLP  =  1.00D-07
 THRDIA  =  1.00D-10  THRDLS  =  1.00D-07  THRGPS  =  0.00D+00  THRKEX  =  0.00D+00  THRDIS  =  2.00D-01  THRVAR  =  1.00D-10
 THRLOC  =  1.00D-06  THRGAP  =  1.00D-06  THRLOCT = -1.00D+00  THRGAPT = -1.00D+00  THRORB  =  1.00D-06  THRMLTP =  0.00D+00
 THRCPQCI=  1.00D-10  KEXTA   =  0.00D+00  THRCOARS=  0.00D+00  SYMTOL  =  1.00D-06  GRADTOL =  1.00D-06  THROVL  =  1.00D-08
 THRORTH =  1.00D-08  GRID    =  1.00D-06  GRIDMAX =  1.00D-03  DTMAX   =  0.00D+00

 SETTING GEOMTYP        =    XYZ
 ZUNIT=BOHR
 

 Variable memory set to 1000000000 words,  buffer space   230000 words

 SETTING BASIS          =    CC-PVDZ


 Recomputing integrals since basis changed


 Using spherical harmonics

 Library entry C      S cc-pVDZ              selected for orbital group  1
 Library entry C      P cc-pVDZ              selected for orbital group  1
 Library entry C      D cc-pVDZ              selected for orbital group  1
 Library entry N      S cc-pVDZ              selected for orbital group  2
 Library entry N      P cc-pVDZ              selected for orbital group  2
 Library entry N      D cc-pVDZ              selected for orbital group  2
 Library entry H      S cc-pVDZ              selected for orbital group  3
 Library entry H      P cc-pVDZ              selected for orbital group  3

1PROGRAM * SEWARD (Integral evaluation for generally contracted gaussian basis sets)     Author: Roland Lindh, 1990

 Geometry written to block  1 of record 700


 Point group  C1  



 ATOMIC COORDINATES

 NR  ATOM    CHARGE       X              Y              Z

   1  C       6.00   -0.284085484    2.398984563   -2.130387367
   2  C       6.00    0.766975096    0.004279382   -0.893729625
   3  C       6.00    0.191888334    0.004372054    1.833695465
   4  N       7.00   -0.298315252    0.004428977    3.976594921
   5  H       1.00    2.826509086    0.005111735   -1.063066337
   6  C       6.00   -0.287230157   -2.403307981   -2.135849006
   7  H       1.00   -2.342302381   -2.444552987   -1.959566089
   8  H       1.00    0.475980293   -4.102497079   -1.254870213
   9  H       1.00    0.198104243   -2.421174127   -4.140481916
  10  H       1.00   -2.339191181    2.438570229   -1.954114255
  11  H       1.00    0.201234153    2.416766367   -4.135024602
  12  H       1.00    0.477717281    4.099018868   -1.249820888

 Bond lengths in Bohr (Angstrom)

  1- 2  2.892864259   1-10  2.063031425   1-11  2.062624975   1-12  2.060547844   2- 3  2.787395274
       ( 1.530837835)       ( 1.091709212)       ( 1.091494127)       ( 1.090394957)       ( 1.475026052)

 2-5  2.066483939  2-6  2.907006395  3-4  2.198253315  6-7  2.063031425  6-8  2.060547844
     ( 1.093536203)     ( 1.538321530)     ( 1.163265554)     ( 1.091709212)     ( 1.090394957)

 6-9  2.062624975
     ( 1.091494127)

 Bond angles

  1- 2- 3  110.07805272   1- 2- 5  109.07122528   1- 2- 6  111.78757135   2- 1-10  109.95553338

  2- 1-11  109.70122692   2- 1-12  111.46641852   2- 3- 4  179.02148593   2- 6- 7  109.95553338

  2-6-8  111.46641851   2-6-9  109.70122692   3-2-5  106.60693501   3-2-6  110.07805271

  5-2-6  109.07122528   7-6-8  108.41778304   7-6-9  108.49757255   8-6-9  108.73728632

 10- 1-11  108.49757255  10- 1-12  108.41778304  11- 1-12  108.73728631

 NUCLEAR CHARGE:                   38
 NUMBER OF PRIMITIVE AOS:         184
 NUMBER OF SYMMETRY AOS:          179
 NUMBER OF CONTRACTIONS:          105   ( 105A   )
 NUMBER OF CORE ORBITALS:           5   (   5A   )
 NUMBER OF VALENCE ORBITALS:       27   (  27A   )


 NUCLEAR REPULSION ENERGY  158.95144537


 Eigenvalues of metric

         1 0.197E-02 0.463E-02 0.573E-02 0.602E-02 0.167E-01 0.195E-01 0.210E-01 0.265E-01


 Contracted 2-electron integrals neglected if value below      1.0D-16
 AO integral compression algorithm  1   Integral accuracy      1.0D-16

     129.499 MB (compressed) written to integral file ( 94.7%)

     Node minimum: 129.499 MB, node maximum: 129.499 MB


 NUMBER OF SORTED TWO-ELECTRON INTEGRALS:   15487395.     BUFFER LENGTH:  32768
 NUMBER OF SEGMENTS:   1  SEGMENT LENGTH:   15487395      RECORD LENGTH: 524288

 Memory used in sort:      16.04 MW

 SORT1 READ    17101285. AND WROTE    15442541. INTEGRALS IN     45 RECORDS. CPU TIME:     0.14 SEC, REAL TIME:     0.22 SEC
 SORT2 READ    15442541. AND WROTE    15487395. INTEGRALS IN    494 RECORDS. CPU TIME:     0.12 SEC, REAL TIME:     0.20 SEC

 FILE SIZES:   FILE 1:   120.4 MBYTE,  FILE 4:   188.8 MBYTE,   TOTAL:    309.2 MBYTE

 OPERATOR DM      FOR CENTER  0  COORDINATES:    0.000000    0.000000    0.000000


 **********************************************************************************************************************************
 DATASETS  * FILE   NREC   LENGTH (MB)   RECORD NAMES
              1      19      120.57       500      610      700      900      950      970     1000      129      960     1100   
                                          VAR    BASINP    GEOM    SYMINP    ZMAT    AOBASIS   BASIS     P2S    ABASIS      S 
                                         1400     1410     1200     1210     1080     1600     1650     1300     1700   
                                           T        V       H0       H01     AOSYM     SMH    MOLCAS    ERIS     OPER   

 PROGRAMS   *        TOTAL       INT
 CPU TIMES  *         1.55      1.51
 REAL TIME  *         1.96 SEC
 DISK USED  *       439.56 MB      
 GA USED    *         0.00 MB       (max)       0.00 MB       (current)
 **********************************************************************************************************************************

1PROGRAM * RHF-SCF (CLOSED SHELL)       Authors: W. Meyer, H.-J. Werner


 NUMBER OF ELECTRONS:      19+   19-    SPACE SYMMETRY=1    SPIN SYMMETRY: Singlet 
 CONVERGENCE THRESHOLDS:    1.00E-10 (Density)    1.00E-13 (Energy)
 MAX. NUMBER OF ITERATIONS:      200
 INTERPOLATION TYPE:            DIIS
 INTERPOLATION STEPS:              2 (START)      1 (STEP)
 LEVEL SHIFTS:                  0.00 (CLOSED)  0.00 (OPEN) 



 Orbital guess generated from atomic densities. Full valence occupancy:   32

 Molecular orbital dump at record        2100.2

 ITERATION    DDIFF          GRAD             ENERGY        2-EL.EN.            DIPOLE MOMENTS         DIIS
    1      0.000D+00      0.000D+00      -209.94376635    457.124353    0.48475    0.00021   -2.25021    0
    2      0.000D+00      0.590D-02      -209.98970646    456.680808    0.15173   -0.00108   -1.29365    1
    3      0.124D-01      0.414D-02      -210.01003226    456.364937    0.30771   -0.00100   -1.70183    2
    4      0.554D-02      0.106D-02      -210.01227950    456.692051    0.29424   -0.00125   -1.61365    3
    5      0.196D-02      0.235D-03      -210.01239743    456.532555    0.28809   -0.00122   -1.62492    4
    6      0.425D-03      0.579D-04      -210.01240680    456.551590    0.28829   -0.00125   -1.62299    5
    7      0.169D-03      0.160D-04      -210.01240735    456.549583    0.28865   -0.00125   -1.62430    6
    8      0.306D-04      0.501D-05      -210.01240740    456.549253    0.28852   -0.00125   -1.62441    7
    9      0.110D-04      0.107D-05      -210.01240741    456.549189    0.28854   -0.00125   -1.62441    7
   10      0.262D-05      0.379D-06      -210.01240741    456.549285    0.28854   -0.00125   -1.62443    7
   11      0.953D-06      0.200D-06      -210.01240741    456.549253    0.28854   -0.00125   -1.62443    7
   12      0.673D-06      0.919D-07      -210.01240741    456.549269    0.28854   -0.00125   -1.62443    7
   13      0.430D-06      0.240D-07      -210.01240741    456.549263    0.28854   -0.00125   -1.62443    8
   14      0.114D-06      0.470D-08      -210.01240741    456.549262    0.28854   -0.00125   -1.62443    8
   15      0.147D-07      0.191D-08      -210.01240741    456.549263    0.28854   -0.00125   -1.62443    8
   16      0.364D-08      0.526D-09      -210.01240741    456.549263    0.28854   -0.00125   -1.62443    8
   17      0.113D-08      0.105D-09      -210.01240741    456.549263    0.28854   -0.00125   -1.62443    8
   18      0.236D-09      0.273D-10      -210.01240741    456.549263    0.28854   -0.00125   -1.62443    7
   19      0.634D-10      0.899D-11      -210.01240741    456.549263    0.28854   -0.00125   -1.62443    7
   20      0.214D-10      0.308D-11      -210.01240741    456.549263    0.28854   -0.00125   -1.62443    0

 Final occupancy:  19

 !RHF STATE 1.1 Energy               -210.012407406785
 Nuclear energy                       158.95144537
 One-electron energy                 -597.23848408
 Two-electron energy                  228.27463130
 Virial quotient                       -1.00163787
 !RHF STATE 1.1 Dipole moment           0.28853991    -0.00124996    -1.62442974
 Dipole moment /Debye                   0.73334727    -0.00317687    -4.12861813

 Orbital energies:

         1.1          2.1          3.1          4.1          5.1          6.1          7.1          8.1          9.1         10.1
    -15.572688   -11.290152   -11.274847   -11.250456   -11.249878    -1.212710    -1.107796    -0.960680    -0.876363    -0.704091

        11.1         12.1         13.1         14.1         15.1         16.1         17.1         18.1         19.1         20.1
     -0.642924    -0.596736    -0.572586    -0.563609    -0.530372    -0.523354    -0.520532    -0.447597    -0.447238     0.155299

        21.1
      0.190254


 **********************************************************************************************************************************
 DATASETS  * FILE   NREC   LENGTH (MB)   RECORD NAMES
              1      19      120.57       500      610      700      900      950      970     1000      129      960     1100   
                                          VAR    BASINP    GEOM    SYMINP    ZMAT    AOBASIS   BASIS     P2S    ABASIS      S 
                                         1400     1410     1200     1210     1080     1600     1650     1300     1700   
                                           T        V       H0       H01     AOSYM     SMH    MOLCAS    ERIS     OPER   

              2       3        0.68       700     1000     2100   
                                         GEOM     BASIS     RHF  

 PROGRAMS   *        TOTAL       RHF       INT
 CPU TIMES  *         3.37      1.82      1.51
 REAL TIME  *         4.04 SEC
 DISK USED  *       439.56 MB      
 GA USED    *         0.00 MB       (max)       0.00 MB       (current)
 **********************************************************************************************************************************


1PROGRAM * CCSD (Closed-shell coupled cluster)     Authors: C. Hampel, H.-J. Werner, 1991, M. Deegan, P.J. Knowles, 1992


 Convergence thresholds:  THRVAR = 1.00D-08  THRDEN = 1.00D-12

 CCSD(T)     terms to be evaluated (factor= 1.000)


 Number of core orbitals:           5 (   5 )
 Number of closed-shell orbitals:  14 (  14 )
 Number of external orbitals:      86 (  86 )

 Molecular orbitals read from record     2100.2  Type=RHF/CANONICAL (state 1.1)

 Number of N-1 electron functions:              14
 Number of N-2 electron functions:             105
 Number of singly external CSFs:              1204
 Number of doubly external CSFs:            725410
 Total number of CSFs:                      726615

 Length of J-op  integral file:               0.00 MB
 Length of K-op  integral file:               0.79 MB
 Length of 3-ext integral record:             0.00 MB

 Memory could be reduced to 12.72 Mwords without degradation in triples

 Integral transformation finished. Total CPU:   0.56 sec, npass=  1  Memory used:  10.92 MW

 Reference energy:                   -210.01240741

 MP2 singlet pair energy:              -0.45164149
 MP2 triplet pair energy:              -0.25977059
 MP2 correlation energy:               -0.71141208
 MP2 total energy:                   -210.72381948

 SCS-MP2 correlation energy:           -0.70360482   (PS=  1.200000  PT=  0.333333)
 SCS-MP2 total energy:               -210.71601223

 ITER.      SQ.NORM     CORR.ENERGY   TOTAL ENERGY   ENERGY CHANGE        DEN1      VAR(S)    VAR(P)  DIIS     TIME
   1      1.27016756    -0.75348385  -210.76589126    -0.04207178    -0.01887436  0.35D-02  0.56D-02  1  1     2.13
   2      1.29282896    -0.75714084  -210.76954825    -0.00365699    -0.02204600  0.58D-04  0.76D-03  2  2     3.72
   3      1.30021045    -0.75751750  -210.76992491    -0.00037666    -0.00407603  0.27D-04  0.55D-04  3  3     5.32
   4      1.30277542    -0.75761426  -210.77002167    -0.00009676    -0.00100785  0.13D-05  0.65D-05  4  4     6.91
   5      1.30334301    -0.75762283  -210.77003024    -0.00000857    -0.00016835  0.16D-06  0.78D-06  5  5     8.50
   6      1.30346585    -0.75761726  -210.77002467     0.00000557    -0.00003131  0.97D-08  0.53D-07  6  6    10.10
   7      1.30348399    -0.75761966  -210.77002707    -0.00000240    -0.00000405  0.15D-08  0.48D-08  6  2    11.69
   8      1.30348543    -0.75761958  -210.77002699     0.00000008    -0.00000004  0.14D-09  0.42D-09  6  1    13.29
   9      1.30348579    -0.75761957  -210.77002697     0.00000002     0.00000023  0.16D-10  0.36D-10  6  3    14.88
  10      1.30348605    -0.75761958  -210.77002699    -0.00000001    -0.00000006  0.17D-11  0.33D-11  6  4    16.48
  11      1.30348568    -0.75761960  -210.77002701    -0.00000002     0.00000023  0.35D-12  0.34D-12  6  6    18.08
  12      1.30348560    -0.75761961  -210.77002702    -0.00000001     0.00000004  0.44D-13  0.27D-13  6  5    19.68
  13      1.30348557    -0.75761961  -210.77002702    -0.00000000     0.00000002  0.51D-14  0.45D-14  6  2    21.28
  14      1.30348556    -0.75761961  -210.77002702     0.00000000     0.00000000  0.15D-14  0.65D-15  6  1    22.87
  15      1.30348556    -0.75761961  -210.77002702     0.00000000    -0.00000000  0.99D-16  0.10D-15  6  4    24.46
  16      1.30348556    -0.75761961  -210.77002702     0.00000000    -0.00000000  0.15D-16  0.71D-17  6  3    26.06
  17      1.30348556    -0.75761961  -210.77002702     0.00000000    -0.00000000  0.33D-17  0.15D-17  6  6    27.65
  18      1.30348556    -0.75761961  -210.77002702    -0.00000000    -0.00000000  0.54D-18  0.25D-18  6  5    29.25
  19      1.30348556    -0.75761961  -210.77002702     0.00000000     0.00000000  0.60D-19  0.41D-19  6  2    30.85
  20      1.30348556    -0.75761961  -210.77002702     0.00000000    -0.00000000  0.63D-20  0.40D-20  6  4    32.45

 Norm of t1 vector:      0.07770447      S-energy:    -0.00000000      T1 diagnostic:  0.01038370
                                                                       D1 diagnostic:  0.02935636


 Total CPU time for triples:     19.83 sec


 RESULTS
 =======

  Reference energy                   -210.012407406784
  CCSD singlet pair energy             -0.527331525386
  CCSD triplet pair energy             -0.230288086600
  CCSD correlation energy              -0.757619611987

  Triples (T) contribution             -0.026792770849
  Total correlation energy             -0.784412382835

  CCSD total energy                  -210.770027018771
  CCSD[T] energy                     -210.797829196504
  CCSD-T energy                      -210.796349882614
 !CCSD(T) total energy               -210.796819789619

 Timing summary (sec):

 STEP                 CPU(USER)    SYS     CPU(TOT)    WALL
 Transformation          0.59      0.08      0.67      0.68
 CCSD iterations        31.86      0.88     32.74     32.76
 Triples                19.83      0.45     20.28     20.28

 Program statistics:

 Available memory in ccsd:               999999116
 Min. memory needed in ccsd:               1995783
 Max. memory used in ccsd:                 2628247
 Max. memory used in cckext:               2458865 (20 integral passes)



 **********************************************************************************************************************************
 DATASETS  * FILE   NREC   LENGTH (MB)   RECORD NAMES
              1      20      170.72       500      610      700      900      950      970     1000      129      960     1100   
                                          VAR    BASINP    GEOM    SYMINP    ZMAT    AOBASIS   BASIS     P2S    ABASIS      S 
                                         1400     1410     1200     1210     1080     1600     1650     1300     1700     1380   
                                           T        V       H0       H01     AOSYM     SMH    MOLCAS    ERIS     OPER     JKOP   

              2       3        0.68       700     1000     2100   
                                         GEOM     BASIS     RHF  

 PROGRAMS   *        TOTAL   CCSD(T)       RHF       INT
 CPU TIMES  *        55.66     52.29      1.82      1.51
 REAL TIME  *        57.80 SEC
 DISK USED  *       439.56 MB      
 GA USED    *         0.00 MB       (max)       0.00 MB       (current)
 **********************************************************************************************************************************

        CCSD(T)         RHF-SCF 
   -210.79681979   -210.01240741
 **********************************************************************************************************************************
 Variable memory released
