
    -----------------------------------------------------------------------
          Psi4: An Open-Source Ab Initio Electronic Structure Package
                               Psi4 1.4a2.dev629 

                         Git: Rev {master} 2938fc2 dirty


    D. G. A. Smith, L. A. Burns, A. C. Simmonett, R. M. Parrish,
    M. C. Schieber, R. Galvelis, P. Kraus, H. Kruse, R. Di Remigio,
    A. Alenaizan, A. M. James, S. Lehtola, J. P. Misiewicz, M. Scheurer,
    R. A. Shaw, J. B. Schriber, Y. Xie, Z. L. Glick, D. A. Sirianni,
    J. S. O'Brien, J. M. Waldrop, A. Kumar, E. G. Hohenstein,
    B. P. Pritchard, B. R. Brooks, H. F. Schaefer III, A. Yu. Sokolov,
    K. Patkowski, A. E. DePrince III, U. Bozkaya, R. A. King,
    F. A. Evangelista, J. M. Turney, T. D. Crawford, C. D. Sherrill,
    J. Chem. Phys. 152(18) 184108 (2020). https://doi.org/10.1063/5.0006002

                            Additional Code Authors
    E. T. Seidl, C. L. Janssen, E. F. Valeev, M. L. Leininger,
    J. F. Gonthier, R. M. Richard, H. R. McAlexander, M. Saitow, X. Wang,
    P. Verma, and M. H. Lechner

             Previous Authors, Complete List of Code Contributors,
                       and Citations for Specific Modules
    https://github.com/psi4/psi4/blob/master/codemeta.json
    https://github.com/psi4/psi4/graphs/contributors
    http://psicode.org/psi4manual/master/introduction.html#citing-psifour

    -----------------------------------------------------------------------


    Psi4 started on: Monday, 15 November 2021 05:10PM

    Process ID: 18888
    Host:       n083
    PSIDATADIR: /opt/psi/4/master/share/psi4
    Memory:     500.0 MiB
    Threads:    4
    
  ==> Input File <==

--------------------------------------------------------------------------
import os
memory 14 GB 
 
molecule {
 C   -1.4415013041    1.4415958616   -0.2734949107
 C    1.4403180784   -1.4402231446   -0.2730735976
 C    1.4415012342    1.4415959318    0.2734949108
 C   -1.4403180082   -1.4402232144    0.2730735975
 H   -2.6511888237    2.6506464086    0.8669183227
 H   -1.8100760806    1.8099134574   -2.2687172768
 H    2.6532023819   -2.6537462791    0.8726765997
 H    1.8080241836   -1.8081863041   -2.2737705398
 H    2.6511886933    2.6506465383   -0.8669183219
 H    1.8100759908    1.8099135477    2.2687172761
 H   -2.6532022523   -2.6537464095   -0.8726766005
 H   -1.8080240934   -1.8081863937    2.2737705405
units bohr
}

basis {

assign 6-31g_2dfp_

[ 6-31g_2dfp_ ]

spherical

!----------------------------------------------------------------------
! Basis Set Exchange
! Version v0.8.13
! https://www.basissetexchange.org
!----------------------------------------------------------------------
!   Basis set: 6-31G(2df,p)
! Description: 6-31G(2df,p)
!        Role: orbital
!     Version: 0  (Data from the original Basis Set Exchange)
!----------------------------------------------------------------------


****
H     0
S    3   1.00
     18.7311370              0.03349460
      2.8253937              0.23472695
      0.6401217              0.81375733
S    1   1.00
      0.1612778              1.00000000
P    1   1.00
      1.5000000              1.0000000
P    1   1.00
      0.3750000              1.0000000
****
B     0
S    6   1.00
   2068.8823000              0.0018663
    310.6495700              0.0142515
     70.6830330              0.0695516
     19.8610800              0.2325729
      6.2993048              0.4670787
      2.1270270              0.3634314
SP   3   1.00
      4.7279710             -0.1303938              0.0745976
      1.1903377             -0.1307889              0.3078467
      0.3594117              1.1309444              0.7434568
SP   1   1.00
      0.1267512              1.0000000              1.0000000
D    1   1.00
      0.8020000              1.0000000
D    1   1.00
      0.2005000              1.0000000
F    1   1.00
      0.5000000              1.0000000
****
C     0
S    6   1.00
   3047.5249000              0.0018347
    457.3695100              0.0140373
    103.9486900              0.0688426
     29.2101550              0.2321844
      9.2866630              0.4679413
      3.1639270              0.3623120
SP   3   1.00
      7.8682724             -0.1193324              0.0689991
      1.8812885             -0.1608542              0.3164240
      0.5442493              1.1434564              0.7443083
SP   1   1.00
      0.1687144              1.0000000              1.0000000
D    1   1.00
      1.2520000              1.0000000
D    1   1.00
      0.3130000              1.0000000
F    1   1.00
      0.8000000              1.0000000
****
N     0
S    6   1.00
   4173.5110000              0.0018348
    627.4579000              0.0139950
    142.9021000              0.0685870
     40.2343300              0.2322410
     12.8202100              0.4690700
      4.3904370              0.3604550
SP   3   1.00
     11.6263580             -0.1149610              0.0675800
      2.7162800             -0.1691180              0.3239070
      0.7722180              1.1458520              0.7408950
SP   1   1.00
      0.2120313              1.0000000              1.0000000
D    1   1.00
      1.8260000              1.0000000
D    1   1.00
      0.4565000              1.0000000
F    1   1.00
      1.0000000              1.0000000
****
O     0
S    6   1.00
   5484.6717000              0.0018311
    825.2349500              0.0139501
    188.0469600              0.0684451
     52.9645000              0.2327143
     16.8975700              0.4701930
      5.7996353              0.3585209
SP   3   1.00
     15.5396160             -0.1107775              0.0708743
      3.5999336             -0.1480263              0.3397528
      1.0137618              1.1307670              0.7271586
SP   1   1.00
      0.2700058              1.0000000              1.0000000
D    1   1.00
      2.5840000              1.0000000
D    1   1.00
      0.6460000              1.0000000
F    1   1.00
      1.4000000              1.0000000
****
F     0
S    6   1.00
   7001.7130900              0.0018196169
   1051.3660900              0.0139160796
    239.2856900              0.0684053245
     67.3974453              0.233185760
     21.5199573              0.471267439
      7.40310130             0.356618546
SP   3   1.00
     20.8479528             -0.108506975            0.0716287243
      4.80830834            -0.146451658            0.3459121030
      1.34406986             1.128688580            0.7224699570
SP   1   1.00
      0.358151393            1.0000000              1.0000000
D    1   1.00
      3.5000000              1.0000000
D    1   1.00
      0.8750000              1.0000000
F    1   1.00
      1.8500000              1.0000000
****
Al     0
S    6   1.00
  13983.1000000              0.00194267
   2098.7500000              0.0148599
    477.7050000              0.0728494
    134.3600000              0.2468300
     42.8709000              0.4872580
     14.5189000              0.3234960
SP   6   1.00
    239.6680000             -0.00292619             0.00460285
     57.4419000             -0.0374080              0.0331990
     18.2859000             -0.1144870              0.1362820
      6.5991400              0.1156350              0.3304760
      2.4904900              0.6125950              0.4491460
      0.9445400              0.3937990              0.2657040
SP   3   1.00
      1.2779000             -0.2276060             -0.0175130
      0.3975900              0.00144583             0.2445330
      0.1600950              1.0927900              0.8049340
SP   1   1.00
      0.0556577              1.0000000              1.0000000
D    1   1.00
      0.6500000              1.0000000
D    1   1.00
      0.1625000              1.0000000
F    1   1.00
      0.2500000              1.0000000
****
Si     0
S    6   1.00
  16115.9000000              0.00195948
   2425.5800000              0.01492880
    553.8670000              0.07284780
    156.3400000              0.24613000
     50.0683000              0.48591400
     17.0178000              0.32500200
SP   6   1.00
    292.7180000             -0.00278094             0.00443826
     69.8731000             -0.03571460             0.03266790
     22.3363000             -0.11498500             0.13472100
      8.1503900              0.09356340             0.32867800
      3.1345800              0.60301700             0.44964000
      1.2254300              0.41895900             0.26137200
SP   3   1.00
      1.7273800             -0.24463000            -0.01779510
      0.5729220              0.00431572             0.25353900
      0.2221920              1.09818000             0.80066900
SP   1   1.00
      0.0778369              1.00000000             1.00000000
D    1   1.00
      0.9000000              1.0000000
D    1   1.00
      0.2250000              1.0000000
F    1   1.00
      0.3200000              1.0000000
****
P     0
S    6   1.00
  19413.3000000              0.0018516
   2909.4200000              0.0142062
    661.3640000              0.0699995
    185.7590000              0.2400790
     59.1943000              0.4847620
     20.0310000              0.3352000
SP   6   1.00
    339.4780000             -0.00278217             0.00456462
     81.0101000             -0.0360499              0.03369360
     25.8780000             -0.1166310              0.13975500
      9.4522100              0.0968328              0.33936200
      3.6656600              0.6144180              0.45092100
      1.4674600              0.4037980              0.23858600
SP   3   1.00
      2.1562300             -0.2529230             -0.01776530
      0.7489970              0.0328517              0.27405800
      0.2831450              1.0812500              0.78542100
SP   1   1.00
      0.0998317              1.0000000              1.00000000
D    1   1.00
      1.1000000              1.0000000
D    1   1.00
      0.2750000              1.0000000
F    1   1.00
      0.4500000              1.0000000
****
S     0
S    6   1.00
  21917.1000000              0.0018690
   3301.4900000              0.0142300
    754.1460000              0.0696960
    212.7110000              0.2384870
     67.9896000              0.4833070
     23.0515000              0.3380740
SP   6   1.00
    423.7350000             -0.0023767              0.0040610
    100.7100000             -0.0316930              0.0306810
     32.1599000             -0.1133170              0.1304520
     11.8079000              0.0560900              0.3272050
      4.6311000              0.5922550              0.4528510
      1.8702500              0.4550060              0.2560420
SP   3   1.00
      2.6158400             -0.2503740             -0.0145110
      0.9221670              0.0669570              0.3102630
      0.3412870              1.0545100              0.7544830
SP   1   1.00
      0.1171670              1.0000000              1.0000000
D    1   1.00
      1.3000000              1.0000000
D    1   1.00
      0.3250000              1.0000000
F    1   1.00
      0.5500000              1.0000000
****
Cl     0
S    6   1.00
  25180.1000000              0.0018330
   3780.3500000              0.0140340
    860.4740000              0.0690970
    242.1450000              0.2374520
     77.3349000              0.4830340
     26.2470000              0.3398560
SP   6   1.00
    491.7650000             -0.0022974              0.0039894
    116.9840000             -0.0307140              0.0303180
     37.4153000             -0.1125280              0.1298800
     13.7834000              0.0450160              0.3279510
      5.4521500              0.5893530              0.4535270
      2.2258800              0.4652060              0.2521540
SP   3   1.00
      3.1864900             -0.2518300             -0.0142990
      1.1442700              0.0615890              0.3235720
      0.4203770              1.0601800              0.7435070
SP   1   1.00
      0.1426570              1.0000000              1.0000000
D    1   1.00
      1.5000000              1.0000000
D    1   1.00
      0.3750000              1.0000000
F    1   1.00
      0.7000000              1.0000000
****
}


set {
reference rhf                          
freeze_core true
e_convergence 10                       
d_convergence 10                      
dft_spherical_points 1202
dft_radial_points 99
}

e = energy('b3lyp')

print_out('Grab this energy {0}'.format(e))
--------------------------------------------------------------------------

  Memory set to  13.039 GiB by Python driver.

Scratch directory: /tmp/

*** tstart() called on n083
*** at Mon Nov 15 17:10:17 2021

   => Loading Basis Set <=

    Name: ANONYMOUSB7E09D00
    Role: ORBITAL
    Keyword: BASIS
    atoms 1-4  entry C          line    48 inputblock 6-31g_2dfp_ 
    atoms 5-12 entry H          line    15 inputblock 6-31g_2dfp_ 


         ---------------------------------------------------------
                                   SCF
               by Justin Turney, Rob Parrish, Andy Simmonett
                          and Daniel G. A. Smith
                              RKS Reference
                        4 Threads,  13351 MiB Core
         ---------------------------------------------------------

  ==> Geometry <==

    Molecular point group: c2
    Full point group: C2

    Geometry (in Bohr), charge = 0, multiplicity = 1:

       Center              X                  Y                   Z               Mass       
    ------------   -----------------  -----------------  -----------------  -----------------
         C            1.441501269150    -0.273494910750     1.441057600311    12.000000000000
         C           -1.440318043300    -0.273073597550    -1.440761475889    12.000000000000
         C           -1.441501269150     0.273494910750     1.441057600311    12.000000000000
         C            1.440318043300     0.273073597550    -1.440761475889    12.000000000000
         H            2.651188758500     0.866918322300     2.650108177061     1.007825032230
         H            1.810076035700    -2.268717276450     1.809375206161     1.007825032230
         H           -2.653202317100     0.872676600100    -2.654284640689     1.007825032230
         H           -1.808024138500    -2.273770540150    -1.808724645289     1.007825032230
         H           -2.651188758500    -0.866918322300     2.650108177061     1.007825032230
         H           -1.810076035700     2.268717276450     1.809375206161     1.007825032230
         H            2.653202317100    -0.872676600100    -2.654284640689     1.007825032230
         H            1.808024138500     2.273770540150    -1.808724645289     1.007825032230

  Running in c2 symmetry.

  Rotational constants: A =      0.35697  B =      0.35697  C =      0.21316 [cm^-1]
  Rotational constants: A =  10701.81201  B =  10701.81036  C =   6390.34465 [MHz]
  Nuclear repulsion =  127.118796124160610

  Charge       = 0
  Multiplicity = 1
  Electrons    = 32
  Nalpha       = 16
  Nbeta        = 16

  ==> Algorithm <==

  SCF Algorithm Type is DF.
  DIIS enabled.
  MOM disabled.
  Fractional occupation disabled.
  Guess Type is SAD.
  Energy threshold   = 1.00e-10
  Density threshold  = 1.00e-10
  Integral threshold = 0.00e+00

  ==> Primary Basis <==

  Basis Set: ANONYMOUSB7E09D00
    Blend: 6-31G_2DFP_
    Number of shells: 64
    Number of basis function: 168
    Number of Cartesian functions: 188
    Spherical Harmonics?: true
    Max angular momentum: 3

  ==> DFT Potential <==

   => Composite Functional: B3LYP <= 

    B3LYP Hyb-GGA Exchange-Correlation Functional

    P. J. Stephens, F. J. Devlin, C. F. Chabalowski, and M. J. Frisch, J. Phys. Chem. 98, 11623 (1994)

    Deriv               =              1
    GGA                 =           TRUE
    Meta                =          FALSE

    Exchange Hybrid     =           TRUE
    MP2 Hybrid          =          FALSE

   => Exchange Functionals <=

    0.0800   Slater exchange
    0.7200         Becke 88

   => Exact (HF) Exchange <=

    0.2000               HF 

   => Correlation Functionals <=

    0.1900   Vosko, Wilk & Nusair (VWN5_RPA)
    0.8100   Lee, Yang & Parr

   => Molecular Quadrature <=

    Radial Scheme          =       TREUTLER
    Pruning Scheme         =           NONE
    Nuclear Scheme         =       TREUTLER

    BS radius alpha        =              1
    Pruning alpha          =              1
    Radial Points          =             99
    Spherical Points       =           1202
    Total Points           =        1325048
    Total Blocks           =           8818
    Max Points             =            256
    Max Functions          =            168
    Weights Tolerance      =       1.00E-15

   => Loading Basis Set <=

    Name: (ANONYMOUSB7E09D00 AUX)
    Role: JKFIT
    Keyword: DF_BASIS_SCF
    atoms 1-4  entry C          line   198 file /opt/psi/4/master/share/psi4/basis/def2-universal-jkfit.gbs 
    atoms 5-12 entry H          line    18 file /opt/psi/4/master/share/psi4/basis/def2-universal-jkfit.gbs 

  ==> Integral Setup <==

  DFHelper Memory: AOs need 0.101 GiB; user supplied 4.301 GiB. Using in-core AOs.

  ==> MemDFJK: Density-Fitted J/K Matrices <==

    J tasked:                   Yes
    K tasked:                   Yes
    wK tasked:                   No
    OpenMP threads:               4
    Memory [MiB]:              4403
    Algorithm:                 Core
    Schwarz Cutoff:           1E-12
    Mask sparsity (%):       0.4677
    Fitting Condition:        1E-10

   => Auxiliary Basis Set <=

  Basis Set: (ANONYMOUSB7E09D00 AUX)
    Blend: DEF2-UNIVERSAL-JKFIT
    Number of shells: 148
    Number of basis function: 444
    Number of Cartesian functions: 516
    Spherical Harmonics?: true
    Max angular momentum: 4

  Cached 100.0% of DFT collocation blocks in 5.478 [GiB].

  Minimum eigenvalue in the overlap matrix is 1.4053969463E-03.
  Reciprocal condition number of the overlap matrix is 2.1764418511E-04.
    Using symmetric orthogonalization.

  ==> Pre-Iterations <==

  SCF Guess: Superposition of Atomic Densities via on-the-fly atomic UHF (no occupation information).

   -------------------------
    Irrep   Nso     Nmo    
   -------------------------
     A         84      84 
     B         84      84 
   -------------------------
    Total     168     168
   -------------------------

  ==> Iterations <==

                           Total Energy        Delta E     RMS |[F,P]|

   @DF-RKS iter SAD:  -156.73792673189163   -1.56738e+02   0.00000e+00 
   @DF-RKS iter   1:  -156.89066616223684   -1.52739e-01   6.54293e-03 DIIS
   @DF-RKS iter   2:  -156.63699446540454    2.53672e-01   8.78306e-03 DIIS
   @DF-RKS iter   3:  -157.22536399021374   -5.88370e-01   4.87709e-04 DIIS
   @DF-RKS iter   4:  -157.22680709125439   -1.44310e-03   8.92329e-05 DIIS
   @DF-RKS iter   5:  -157.22686306910282   -5.59778e-05   8.40203e-06 DIIS
   @DF-RKS iter   6:  -157.22686350813129   -4.39028e-07   3.75797e-06 DIIS
   @DF-RKS iter   7:  -157.22686360652688   -9.83956e-08   5.43604e-07 DIIS
   @DF-RKS iter   8:  -157.22686360865976   -2.13288e-09   3.20771e-08 DIIS
   @DF-RKS iter   9:  -157.22686360866717   -7.41807e-12   3.64895e-09 DIIS
   @DF-RKS iter  10:  -157.22686360866746   -2.84217e-13   3.42506e-10 DIIS
   @DF-RKS iter  11:  -157.22686360866751   -5.68434e-14   4.72817e-11 DIIS
  Energy and wave function converged.


  ==> Post-Iterations <==

    Orbital Energies [Eh]
    ---------------------

    Doubly Occupied:                                                      

       1A    -10.171229     1B    -10.171117     2A    -10.170663  
       2B    -10.170550     3A     -0.834033     3B     -0.649157  
       4A     -0.649156     4B     -0.544005     5B     -0.472211  
       5A     -0.469449     6A     -0.379247     6B     -0.379245  
       7A     -0.344188     8A     -0.312774     7B     -0.300333  
       9A     -0.300333  

    Virtual:                                                              

      10A      0.082035     8B      0.097178     9B      0.122529  
      11A      0.122530    10B      0.164248    12A      0.183818  
      11B      0.183820    13A      0.194232    12B      0.194240  
      14A      0.211324    13B      0.226786    14B      0.303064  
      15B      0.381730    15A      0.419984    16B      0.439764  
      16A      0.439764    17A      0.448668    18A      0.472648  
      17B      0.475230    18B      0.502233    19A      0.502233  
      19B      0.544938    20A      0.544941    20B      0.600253  
      21B      0.617653    21A      0.620079    22B      0.620113  
      22A      0.628960    23B      0.634041    24B      0.652787  
      23A      0.652790    25B      0.664213    24A      0.712671  
      25A      0.751931    26A      0.822362    26B      0.858960  
      27A      0.858968    27B      0.906971    28A      0.906973  
      29A      0.993840    28B      1.019623    30A      1.094035  
      29B      1.096839    31A      1.096897    30B      1.110407  
      31B      1.132352    32B      1.158633    32A      1.158643  
      33B      1.171046    34B      1.210329    33A      1.241186  
      35B      1.241189    34A      1.268622    35A      1.362053  
      36B      1.362395    36A      1.367191    37A      1.403992  
      37B      1.403993    38B      1.426891    38A      1.431335  
      39B      1.431521    39A      1.466589    40B      1.466594  
      41B      1.487157    40A      1.566385    42B      1.577480  
      41A      1.577530    42A      1.591880    43A      1.644304  
      43B      1.723327    44A      1.759110    44B      1.759120  
      45B      1.922104    45A      1.922609    46B      1.926442  
      46A      1.928779    47A      2.248830    47B      2.250142  
      48A      2.252089    48B      2.430689    49A      2.612587  
      50A      2.685277    49B      2.774855    51A      2.774893  
      50B      2.775969    51B      2.798653    52A      2.833440  
      52B      2.922298    53A      2.922305    53B      2.957832  
      54A      3.088472    54B      3.088512    55A      3.090844  
      56A      3.149275    55B      3.150399    56B      3.200914  
      57A      3.200922    57B      3.222981    58B      3.319171  
      58A      3.335532    59B      3.335539    60B      3.472674  
      59A      3.475373    61B      3.475936    60A      3.514527  
      62B      3.514533    63B      3.619477    61A      3.619543  
      62A      3.631790    64B      3.631822    65B      3.658869  
      63A      3.709847    64A      3.714767    65A      3.792262  
      66A      3.890526    66B      3.890532    67B      3.996596  
      67A      3.996600    68A      4.057697    68B      4.067925  
      69A      4.073298    70A      4.122464    69B      4.122552  
      71A      4.134053    70B      4.134561    72A      4.230391  
      71B      4.230467    72B      4.280723    73A      4.345497  
      74A      4.391303    73B      4.391306    75A      4.419037  
      74B      4.419058    75B      4.465616    76B      4.490968  
      76A      4.536364    77B      4.536505    77A      4.541905  
      78A      4.593783    78B      4.606197    79A      4.778649  
      79B      4.813277    80A      4.914379    80B      4.914392  
      81A      5.075148    81B      5.118376    82B      5.178884  
      82A      5.178938    83B      5.260953    83A      5.315943  
      84B      5.316330    84A      5.381303  

    Final Occupation by Irrep:
              A     B 
    DOCC [     9,    7 ]

  @DF-RKS Final Energy:  -157.22686360866751

   => Energetics <=

    Nuclear Repulsion Energy =            127.1187961241606104
    One-Electron Energy =                -461.6595284238441650
    Two-Electron Energy =                 197.3379421513301963
    DFT Exchange-Correlation Energy =     -20.0240734603141526
    Empirical Dispersion Energy =           0.0000000000000000
    VV10 Nonlocal Energy =                  0.0000000000000000
    Total Energy =                       -157.2268636086675144

Computation Completed


Properties will be evaluated at   0.000000,   0.000000,   0.000000 [a0]

Properties computed using the SCF density matrix

  Nuclear Dipole Moment: [e a0]
     X:     0.0000      Y:     0.0000      Z:    -0.0035

  Electronic Dipole Moment: [e a0]
     X:     0.0000      Y:     0.0000      Z:     0.0062

  Dipole Moment: [e a0]
     X:     0.0000      Y:     0.0000      Z:     0.0027     Total:     0.0027

  Dipole Moment: [D]
     X:     0.0000      Y:     0.0000      Z:     0.0067     Total:     0.0067


*** tstop() called on n083 at Mon Nov 15 17:10:39 2021
Module time:
	user time   =      85.87 seconds =       1.43 minutes
	system time =       1.47 seconds =       0.02 minutes
	total time  =         22 seconds =       0.37 minutes
Total time:
	user time   =      85.87 seconds =       1.43 minutes
	system time =       1.47 seconds =       0.02 minutes
	total time  =         22 seconds =       0.37 minutes
Grab this energy -157.22686360866751
    Psi4 stopped on: Monday, 15 November 2021 05:10PM
    Psi4 wall time for execution: 0:00:22.49

*** Psi4 exiting successfully. Buy a developer a beer!
