
    -----------------------------------------------------------------------
          Psi4: An Open-Source Ab Initio Electronic Structure Package
                               Psi4 1.4a2.dev629 

                         Git: Rev {master} 2938fc2 dirty


    D. G. A. Smith, L. A. Burns, A. C. Simmonett, R. M. Parrish,
    M. C. Schieber, R. Galvelis, P. Kraus, H. Kruse, R. Di Remigio,
    A. Alenaizan, A. M. James, S. Lehtola, J. P. Misiewicz, M. Scheurer,
    R. A. Shaw, J. B. Schriber, Y. Xie, Z. L. Glick, D. A. Sirianni,
    J. S. O'Brien, J. M. Waldrop, A. Kumar, E. G. Hohenstein,
    B. P. Pritchard, B. R. Brooks, H. F. Schaefer III, A. Yu. Sokolov,
    K. Patkowski, A. E. DePrince III, U. Bozkaya, R. A. King,
    F. A. Evangelista, J. M. Turney, T. D. Crawford, C. D. Sherrill,
    J. Chem. Phys. 152(18) 184108 (2020). https://doi.org/10.1063/5.0006002

                            Additional Code Authors
    E. T. Seidl, C. L. Janssen, E. F. Valeev, M. L. Leininger,
    J. F. Gonthier, R. M. Richard, H. R. McAlexander, M. Saitow, X. Wang,
    P. Verma, and M. H. Lechner

             Previous Authors, Complete List of Code Contributors,
                       and Citations for Specific Modules
    https://github.com/psi4/psi4/blob/master/codemeta.json
    https://github.com/psi4/psi4/graphs/contributors
    http://psicode.org/psi4manual/master/introduction.html#citing-psifour

    -----------------------------------------------------------------------


    Psi4 started on: Monday, 15 November 2021 05:32PM

    Process ID: 28771
    Host:       n092
    PSIDATADIR: /opt/psi/4/master/share/psi4
    Memory:     500.0 MiB
    Threads:    4
    
  ==> Input File <==

--------------------------------------------------------------------------
import os
memory 14 GB 
 
molecule {
 C   -1.4399383610    1.4417979317   -0.2733723816
 C    1.4399383610   -1.4417979317   -0.2733723816
 C    1.4399382910    1.4417980017    0.2733723816
 C   -1.4399382910   -1.4417980017    0.2733723816
 H   -2.6528535283    2.6521167906    0.8731937853
 H   -1.8092986418    1.8085752491   -2.2665880616
 H    2.6528535283   -2.6521167906    0.8731937853
 H    1.8092986418   -1.8085752491   -2.2665880616
 H    2.6528533983    2.6521169207   -0.8731937853
 H    1.8092985518    1.8085753391    2.2665880616
 H   -2.6528533983   -2.6521169207   -0.8731937853
 H   -1.8092985518   -1.8085753391    2.2665880616
units bohr
}

basis {

assign 6-31g_2dfp_

[ 6-31g_2dfp_ ]

spherical

!----------------------------------------------------------------------
! Basis Set Exchange
! Version v0.8.13
! https://www.basissetexchange.org
!----------------------------------------------------------------------
!   Basis set: 6-31G(2df,p)
! Description: 6-31G(2df,p)
!        Role: orbital
!     Version: 0  (Data from the original Basis Set Exchange)
!----------------------------------------------------------------------


****
H     0
S    3   1.00
     18.7311370              0.03349460
      2.8253937              0.23472695
      0.6401217              0.81375733
S    1   1.00
      0.1612778              1.00000000
P    1   1.00
      1.5000000              1.0000000
P    1   1.00
      0.3750000              1.0000000
****
B     0
S    6   1.00
   2068.8823000              0.0018663
    310.6495700              0.0142515
     70.6830330              0.0695516
     19.8610800              0.2325729
      6.2993048              0.4670787
      2.1270270              0.3634314
SP   3   1.00
      4.7279710             -0.1303938              0.0745976
      1.1903377             -0.1307889              0.3078467
      0.3594117              1.1309444              0.7434568
SP   1   1.00
      0.1267512              1.0000000              1.0000000
D    1   1.00
      0.8020000              1.0000000
D    1   1.00
      0.2005000              1.0000000
F    1   1.00
      0.5000000              1.0000000
****
C     0
S    6   1.00
   3047.5249000              0.0018347
    457.3695100              0.0140373
    103.9486900              0.0688426
     29.2101550              0.2321844
      9.2866630              0.4679413
      3.1639270              0.3623120
SP   3   1.00
      7.8682724             -0.1193324              0.0689991
      1.8812885             -0.1608542              0.3164240
      0.5442493              1.1434564              0.7443083
SP   1   1.00
      0.1687144              1.0000000              1.0000000
D    1   1.00
      1.2520000              1.0000000
D    1   1.00
      0.3130000              1.0000000
F    1   1.00
      0.8000000              1.0000000
****
N     0
S    6   1.00
   4173.5110000              0.0018348
    627.4579000              0.0139950
    142.9021000              0.0685870
     40.2343300              0.2322410
     12.8202100              0.4690700
      4.3904370              0.3604550
SP   3   1.00
     11.6263580             -0.1149610              0.0675800
      2.7162800             -0.1691180              0.3239070
      0.7722180              1.1458520              0.7408950
SP   1   1.00
      0.2120313              1.0000000              1.0000000
D    1   1.00
      1.8260000              1.0000000
D    1   1.00
      0.4565000              1.0000000
F    1   1.00
      1.0000000              1.0000000
****
O     0
S    6   1.00
   5484.6717000              0.0018311
    825.2349500              0.0139501
    188.0469600              0.0684451
     52.9645000              0.2327143
     16.8975700              0.4701930
      5.7996353              0.3585209
SP   3   1.00
     15.5396160             -0.1107775              0.0708743
      3.5999336             -0.1480263              0.3397528
      1.0137618              1.1307670              0.7271586
SP   1   1.00
      0.2700058              1.0000000              1.0000000
D    1   1.00
      2.5840000              1.0000000
D    1   1.00
      0.6460000              1.0000000
F    1   1.00
      1.4000000              1.0000000
****
F     0
S    6   1.00
   7001.7130900              0.0018196169
   1051.3660900              0.0139160796
    239.2856900              0.0684053245
     67.3974453              0.233185760
     21.5199573              0.471267439
      7.40310130             0.356618546
SP   3   1.00
     20.8479528             -0.108506975            0.0716287243
      4.80830834            -0.146451658            0.3459121030
      1.34406986             1.128688580            0.7224699570
SP   1   1.00
      0.358151393            1.0000000              1.0000000
D    1   1.00
      3.5000000              1.0000000
D    1   1.00
      0.8750000              1.0000000
F    1   1.00
      1.8500000              1.0000000
****
Al     0
S    6   1.00
  13983.1000000              0.00194267
   2098.7500000              0.0148599
    477.7050000              0.0728494
    134.3600000              0.2468300
     42.8709000              0.4872580
     14.5189000              0.3234960
SP   6   1.00
    239.6680000             -0.00292619             0.00460285
     57.4419000             -0.0374080              0.0331990
     18.2859000             -0.1144870              0.1362820
      6.5991400              0.1156350              0.3304760
      2.4904900              0.6125950              0.4491460
      0.9445400              0.3937990              0.2657040
SP   3   1.00
      1.2779000             -0.2276060             -0.0175130
      0.3975900              0.00144583             0.2445330
      0.1600950              1.0927900              0.8049340
SP   1   1.00
      0.0556577              1.0000000              1.0000000
D    1   1.00
      0.6500000              1.0000000
D    1   1.00
      0.1625000              1.0000000
F    1   1.00
      0.2500000              1.0000000
****
Si     0
S    6   1.00
  16115.9000000              0.00195948
   2425.5800000              0.01492880
    553.8670000              0.07284780
    156.3400000              0.24613000
     50.0683000              0.48591400
     17.0178000              0.32500200
SP   6   1.00
    292.7180000             -0.00278094             0.00443826
     69.8731000             -0.03571460             0.03266790
     22.3363000             -0.11498500             0.13472100
      8.1503900              0.09356340             0.32867800
      3.1345800              0.60301700             0.44964000
      1.2254300              0.41895900             0.26137200
SP   3   1.00
      1.7273800             -0.24463000            -0.01779510
      0.5729220              0.00431572             0.25353900
      0.2221920              1.09818000             0.80066900
SP   1   1.00
      0.0778369              1.00000000             1.00000000
D    1   1.00
      0.9000000              1.0000000
D    1   1.00
      0.2250000              1.0000000
F    1   1.00
      0.3200000              1.0000000
****
P     0
S    6   1.00
  19413.3000000              0.0018516
   2909.4200000              0.0142062
    661.3640000              0.0699995
    185.7590000              0.2400790
     59.1943000              0.4847620
     20.0310000              0.3352000
SP   6   1.00
    339.4780000             -0.00278217             0.00456462
     81.0101000             -0.0360499              0.03369360
     25.8780000             -0.1166310              0.13975500
      9.4522100              0.0968328              0.33936200
      3.6656600              0.6144180              0.45092100
      1.4674600              0.4037980              0.23858600
SP   3   1.00
      2.1562300             -0.2529230             -0.01776530
      0.7489970              0.0328517              0.27405800
      0.2831450              1.0812500              0.78542100
SP   1   1.00
      0.0998317              1.0000000              1.00000000
D    1   1.00
      1.1000000              1.0000000
D    1   1.00
      0.2750000              1.0000000
F    1   1.00
      0.4500000              1.0000000
****
S     0
S    6   1.00
  21917.1000000              0.0018690
   3301.4900000              0.0142300
    754.1460000              0.0696960
    212.7110000              0.2384870
     67.9896000              0.4833070
     23.0515000              0.3380740
SP   6   1.00
    423.7350000             -0.0023767              0.0040610
    100.7100000             -0.0316930              0.0306810
     32.1599000             -0.1133170              0.1304520
     11.8079000              0.0560900              0.3272050
      4.6311000              0.5922550              0.4528510
      1.8702500              0.4550060              0.2560420
SP   3   1.00
      2.6158400             -0.2503740             -0.0145110
      0.9221670              0.0669570              0.3102630
      0.3412870              1.0545100              0.7544830
SP   1   1.00
      0.1171670              1.0000000              1.0000000
D    1   1.00
      1.3000000              1.0000000
D    1   1.00
      0.3250000              1.0000000
F    1   1.00
      0.5500000              1.0000000
****
Cl     0
S    6   1.00
  25180.1000000              0.0018330
   3780.3500000              0.0140340
    860.4740000              0.0690970
    242.1450000              0.2374520
     77.3349000              0.4830340
     26.2470000              0.3398560
SP   6   1.00
    491.7650000             -0.0022974              0.0039894
    116.9840000             -0.0307140              0.0303180
     37.4153000             -0.1125280              0.1298800
     13.7834000              0.0450160              0.3279510
      5.4521500              0.5893530              0.4535270
      2.2258800              0.4652060              0.2521540
SP   3   1.00
      3.1864900             -0.2518300             -0.0142990
      1.1442700              0.0615890              0.3235720
      0.4203770              1.0601800              0.7435070
SP   1   1.00
      0.1426570              1.0000000              1.0000000
D    1   1.00
      1.5000000              1.0000000
D    1   1.00
      0.3750000              1.0000000
F    1   1.00
      0.7000000              1.0000000
****
}


set {
reference rhf                          
freeze_core true
e_convergence 10                       
d_convergence 10                      
dft_spherical_points 1202
dft_radial_points 99
}

e = energy('b3lyp')

print_out('Grab this energy {0}'.format(e))
--------------------------------------------------------------------------

  Memory set to  13.039 GiB by Python driver.

Scratch directory: /tmp/

*** tstart() called on n092
*** at Mon Nov 15 17:32:17 2021

   => Loading Basis Set <=

    Name: ANONYMOUS1D0CEA1C
    Role: ORBITAL
    Keyword: BASIS
    atoms 1-4  entry C          line    48 inputblock 6-31g_2dfp_ 
    atoms 5-12 entry H          line    15 inputblock 6-31g_2dfp_ 


         ---------------------------------------------------------
                                   SCF
               by Justin Turney, Rob Parrish, Andy Simmonett
                          and Daniel G. A. Smith
                              RKS Reference
                        4 Threads,  13351 MiB Core
         ---------------------------------------------------------

  ==> Geometry <==

    Molecular point group: d2
    Full point group: D2

    Geometry (in Bohr), charge = 0, multiplicity = 1:

       Center              X                  Y                   Z               Mass       
    ------------   -----------------  -----------------  -----------------  -----------------
         C           -1.439938326000     1.441797966700    -0.273372381600    12.000000000000
         C            1.439938326000    -1.441797966700    -0.273372381600    12.000000000000
         C            1.439938326000     1.441797966700     0.273372381600    12.000000000000
         C           -1.439938326000    -1.441797966700     0.273372381600    12.000000000000
         H           -2.652853463300     2.652116855650     0.873193785300     1.007825032230
         H           -1.809298596800     1.808575294100    -2.266588061600     1.007825032230
         H            2.652853463300    -2.652116855650     0.873193785300     1.007825032230
         H            1.809298596800    -1.808575294100    -2.266588061600     1.007825032230
         H            2.652853463300     2.652116855650    -0.873193785300     1.007825032230
         H            1.809298596800     1.808575294100     2.266588061600     1.007825032230
         H           -2.652853463300    -2.652116855650    -0.873193785300     1.007825032230
         H           -1.809298596800    -1.808575294100     2.266588061600     1.007825032230

  Running in d2 symmetry.

  Rotational constants: A =      0.35735  B =      0.35686  C =      0.21316 [cm^-1]
  Rotational constants: A =  10712.97199  B =  10698.30674  C =   6390.39841 [MHz]
  Nuclear repulsion =  127.142093601675185

  Charge       = 0
  Multiplicity = 1
  Electrons    = 32
  Nalpha       = 16
  Nbeta        = 16

  ==> Algorithm <==

  SCF Algorithm Type is DF.
  DIIS enabled.
  MOM disabled.
  Fractional occupation disabled.
  Guess Type is SAD.
  Energy threshold   = 1.00e-10
  Density threshold  = 1.00e-10
  Integral threshold = 0.00e+00

  ==> Primary Basis <==

  Basis Set: ANONYMOUS1D0CEA1C
    Blend: 6-31G_2DFP_
    Number of shells: 64
    Number of basis function: 168
    Number of Cartesian functions: 188
    Spherical Harmonics?: true
    Max angular momentum: 3

  ==> DFT Potential <==

   => Composite Functional: B3LYP <= 

    B3LYP Hyb-GGA Exchange-Correlation Functional

    P. J. Stephens, F. J. Devlin, C. F. Chabalowski, and M. J. Frisch, J. Phys. Chem. 98, 11623 (1994)

    Deriv               =              1
    GGA                 =           TRUE
    Meta                =          FALSE

    Exchange Hybrid     =           TRUE
    MP2 Hybrid          =          FALSE

   => Exchange Functionals <=

    0.0800   Slater exchange
    0.7200         Becke 88

   => Exact (HF) Exchange <=

    0.2000               HF 

   => Correlation Functionals <=

    0.1900   Vosko, Wilk & Nusair (VWN5_RPA)
    0.8100   Lee, Yang & Parr

   => Molecular Quadrature <=

    Radial Scheme          =       TREUTLER
    Pruning Scheme         =           NONE
    Nuclear Scheme         =       TREUTLER

    BS radius alpha        =              1
    Pruning alpha          =              1
    Radial Points          =             99
    Spherical Points       =           1202
    Total Points           =        1325024
    Total Blocks           =           8848
    Max Points             =            256
    Max Functions          =            168
    Weights Tolerance      =       1.00E-15

   => Loading Basis Set <=

    Name: (ANONYMOUS1D0CEA1C AUX)
    Role: JKFIT
    Keyword: DF_BASIS_SCF
    atoms 1-4  entry C          line   198 file /opt/psi/4/master/share/psi4/basis/def2-universal-jkfit.gbs 
    atoms 5-12 entry H          line    18 file /opt/psi/4/master/share/psi4/basis/def2-universal-jkfit.gbs 

  ==> Integral Setup <==

  DFHelper Memory: AOs need 0.101 GiB; user supplied 4.300 GiB. Using in-core AOs.

  ==> MemDFJK: Density-Fitted J/K Matrices <==

    J tasked:                   Yes
    K tasked:                   Yes
    wK tasked:                   No
    OpenMP threads:               4
    Memory [MiB]:              4403
    Algorithm:                 Core
    Schwarz Cutoff:           1E-12
    Mask sparsity (%):       0.4677
    Fitting Condition:        1E-10

   => Auxiliary Basis Set <=

  Basis Set: (ANONYMOUS1D0CEA1C AUX)
    Blend: DEF2-UNIVERSAL-JKFIT
    Number of shells: 148
    Number of basis function: 444
    Number of Cartesian functions: 516
    Spherical Harmonics?: true
    Max angular momentum: 4

  Cached 100.0% of DFT collocation blocks in 5.479 [GiB].

  Minimum eigenvalue in the overlap matrix is 2.2786687466E-03.
  Reciprocal condition number of the overlap matrix is 3.7927083197E-04.
    Using symmetric orthogonalization.

  ==> Pre-Iterations <==

  SCF Guess: Superposition of Atomic Densities via on-the-fly atomic UHF (no occupation information).

   -------------------------
    Irrep   Nso     Nmo    
   -------------------------
     A         42      42 
     B1        42      42 
     B2        42      42 
     B3        42      42 
   -------------------------
    Total     168     168
   -------------------------

  ==> Iterations <==

                           Total Energy        Delta E     RMS |[F,P]|

   @DF-RKS iter SAD:  -156.73966082255279   -1.56740e+02   0.00000e+00 
   @DF-RKS iter   1:  -156.89056639154933   -1.50906e-01   9.25525e-03 DIIS
   @DF-RKS iter   2:  -156.63739291996234    2.53173e-01   1.24183e-02 DIIS
   @DF-RKS iter   3:  -157.22535894603325   -5.87966e-01   6.90063e-04 DIIS
   @DF-RKS iter   4:  -157.22680317212959   -1.44423e-03   1.26004e-04 DIIS
   @DF-RKS iter   5:  -157.22685903626066   -5.58641e-05   1.09949e-05 DIIS
   @DF-RKS iter   6:  -157.22685950220205   -4.65941e-07   5.28624e-07 DIIS
   @DF-RKS iter   7:  -157.22685950333269   -1.13064e-09   8.65358e-08 DIIS
   @DF-RKS iter   8:  -157.22685950336134   -2.86491e-11   1.25499e-08 DIIS
   @DF-RKS iter   9:  -157.22685950336188   -5.40012e-13   2.46066e-09 DIIS
   @DF-RKS iter  10:  -157.22685950336231   -4.26326e-13   4.75302e-10 DIIS
   @DF-RKS iter  11:  -157.22685950336214    1.70530e-13   2.18930e-11 DIIS
  Energy and wave function converged.


  ==> Post-Iterations <==

    Orbital Energies [Eh]
    ---------------------

    Doubly Occupied:                                                      

       1A    -10.170830     1B2   -10.170723     1B3   -10.170721  
       1B1   -10.170604     2A     -0.834112     2B2    -0.649404  
       2B3    -0.649054     2B1    -0.544345     3B1    -0.472122  
       3A     -0.469245     3B3    -0.379691     3B2    -0.379510  
       4A     -0.344151     5A     -0.313065     4B2    -0.300570  
       4B3    -0.299698  

    Virtual:                                                              

       6A      0.082028     4B1     0.097403     5B2     0.122519  
       5B3     0.122705     5B1     0.164301     6B2     0.184129  
       6B3     0.184482     7B2     0.193950     7B3     0.194197  
       7A      0.211483     6B1     0.226797     7B1     0.303194  
       8B1     0.382032     8A      0.420039     8B2     0.439492  
       8B3     0.439762     9A      0.448559    10A      0.472760  
       9B1     0.475184     9B2     0.502056     9B3     0.502607  
      10B3     0.544801    10B2     0.544842    10B1     0.600258  
      11B1     0.617815    11B3     0.621212    11B2     0.621356  
      11A      0.630264    12B1     0.633628    12B2     0.652360  
      12B3     0.652534    13B1     0.664837    12A      0.712310  
      13A      0.752598    14A      0.822356    13B3     0.859067  
      13B2     0.859073    14B2     0.906801    14B3     0.907190  
      15A      0.994371    14B1     1.019507    16A      1.093423  
      15B3     1.096799    15B2     1.097539    15B1     1.110739  
      16B1     1.131909    16B3     1.159196    16B2     1.159597  
      17B1     1.172362    18B1     1.210596    17B2     1.241212  
      17B3     1.241507    17A      1.268942    18A      1.362277  
      19B1     1.362859    19A      1.367861    18B2     1.403743  
      18B3     1.403929    20B1     1.426869    19B2     1.431222  
      19B3     1.431609    20B3     1.466164    20B2     1.466553  
      21B1     1.487131    20A      1.565743    21B3     1.578424  
      21B2     1.579043    21A      1.592241    22A      1.646321  
      22B1     1.722666    22B2     1.758667    22B3     1.760004  
      23B3     1.922796    23B2     1.923017    23B1     1.928675  
      23A      1.929953    24B3     2.248714    24A      2.250242  
      24B2     2.251473    24B1     2.430478    25A      2.612737  
      26A      2.685802    25B2     2.774876    25B3     2.775935  
      25B1     2.776901    26B1     2.798537    27A      2.833342  
      26B3     2.922526    26B2     2.922740    27B1     2.957243  
      27B2     3.088999    27B3     3.089217    28A      3.090195  
      29A      3.148194    28B1     3.151159    28B2     3.199979  
      28B3     3.200410    29B1     3.223698    30B1     3.318996  
      29B3     3.336684    29B2     3.336733    30B2     3.473368  
      31B1     3.474328    30B3     3.474740    31B3     3.514958  
      31B2     3.515395    32B1     3.618596    30A      3.621748  
      32B3     3.631396    32B2     3.631526    33B1     3.658554  
      31A      3.710068    32A      3.713951    33A      3.793634  
      33B3     3.890740    33B2     3.890794    34B2     3.996720  
      34B3     3.998377    34A      4.059238    34B1     4.067110  
      35A      4.074278    35B3     4.123426    35B2     4.123561  
      36A      4.133771    35B1     4.134557    36B3     4.230699  
      36B2     4.231322    36B1     4.280231    37A      4.345523  
      37B2     4.394270    37B3     4.394498    38B3     4.418687  
      38B2     4.420488    37B1     4.470579    38B1     4.492475  
      39B2     4.534395    39B3     4.535253    38A      4.542674  
      39A      4.593202    39B1     4.608290    40A      4.781804  
      40B1     4.811500    40B3     4.912769    40B2     4.916467  
      41A      5.076651    41B1     5.119569    41B2     5.181127  
      41B3     5.181556    42B1     5.262378    42B3     5.316317  
      42B2     5.316673    42A      5.383989  

    Final Occupation by Irrep:
              A    B1    B2    B3 
    DOCC [     5,    3,    4,    4 ]

  @DF-RKS Final Energy:  -157.22685950336214

   => Energetics <=

    Nuclear Repulsion Energy =            127.1420936016751853
    One-Electron Energy =                -461.7047716914207740
    Two-Electron Energy =                 197.3613707860970408
    DFT Exchange-Correlation Energy =     -20.0255521997135943
    Empirical Dispersion Energy =           0.0000000000000000
    VV10 Nonlocal Energy =                  0.0000000000000000
    Total Energy =                       -157.2268595033621352

Computation Completed


Properties will be evaluated at   0.000000,   0.000000,   0.000000 [a0]

Properties computed using the SCF density matrix

  Nuclear Dipole Moment: [e a0]
     X:    -0.0000      Y:     0.0000      Z:    -0.0000

  Electronic Dipole Moment: [e a0]
     X:     0.0000      Y:     0.0000      Z:     0.0000

  Dipole Moment: [e a0]
     X:    -0.0000      Y:     0.0000      Z:    -0.0000     Total:     0.0000

  Dipole Moment: [D]
     X:    -0.0000      Y:     0.0000      Z:    -0.0000     Total:     0.0000


*** tstop() called on n092 at Mon Nov 15 17:32:40 2021
Module time:
	user time   =      86.16 seconds =       1.44 minutes
	system time =       1.50 seconds =       0.03 minutes
	total time  =         23 seconds =       0.38 minutes
Total time:
	user time   =      86.16 seconds =       1.44 minutes
	system time =       1.50 seconds =       0.03 minutes
	total time  =         23 seconds =       0.38 minutes
Grab this energy -157.22685950336214
    Psi4 stopped on: Monday, 15 November 2021 05:32PM
    Psi4 wall time for execution: 0:00:22.59

*** Psi4 exiting successfully. Buy a developer a beer!
