
    -----------------------------------------------------------------------
          Psi4: An Open-Source Ab Initio Electronic Structure Package
                               Psi4 1.4a2.dev629 

                         Git: Rev {master} 2938fc2 dirty


    D. G. A. Smith, L. A. Burns, A. C. Simmonett, R. M. Parrish,
    M. C. Schieber, R. Galvelis, P. Kraus, H. Kruse, R. Di Remigio,
    A. Alenaizan, A. M. James, S. Lehtola, J. P. Misiewicz, M. Scheurer,
    R. A. Shaw, J. B. Schriber, Y. Xie, Z. L. Glick, D. A. Sirianni,
    J. S. O'Brien, J. M. Waldrop, A. Kumar, E. G. Hohenstein,
    B. P. Pritchard, B. R. Brooks, H. F. Schaefer III, A. Yu. Sokolov,
    K. Patkowski, A. E. DePrince III, U. Bozkaya, R. A. King,
    F. A. Evangelista, J. M. Turney, T. D. Crawford, C. D. Sherrill,
    J. Chem. Phys. 152(18) 184108 (2020). https://doi.org/10.1063/5.0006002

                            Additional Code Authors
    E. T. Seidl, C. L. Janssen, E. F. Valeev, M. L. Leininger,
    J. F. Gonthier, R. M. Richard, H. R. McAlexander, M. Saitow, X. Wang,
    P. Verma, and M. H. Lechner

             Previous Authors, Complete List of Code Contributors,
                       and Citations for Specific Modules
    https://github.com/psi4/psi4/blob/master/codemeta.json
    https://github.com/psi4/psi4/graphs/contributors
    http://psicode.org/psi4manual/master/introduction.html#citing-psifour

    -----------------------------------------------------------------------


    Psi4 started on: Monday, 14 March 2022 07:52PM

    Process ID: 11723
    Host:       n033
    PSIDATADIR: /opt/psi/4/master/share/psi4
    Memory:     500.0 MiB
    Threads:    4
    
  ==> Input File <==

--------------------------------------------------------------------------
import os
memory 14 GB 
 
molecule {
 C    1.4424458212    1.4424458912    0.2721024374
 C   -1.4424458212   -1.4424458912    0.2721024374
 C   -1.4416028174    1.4416027473   -0.2764321280
 C    1.4416028174   -1.4416027473   -0.2764321280
 H    2.6518041017    2.6518041717   -0.8690280031
 H    1.8085135103    1.8085136103    2.2721933645
 H   -2.6518041017   -2.6518041717   -0.8690280031
 H   -1.8085135103   -1.8085136103    2.2721933645
 H   -2.6518156848    2.6518154948    0.8716048454
 H   -1.8086211880    1.8086211081   -2.2704405161
 H    2.6518156848   -2.6518154948    0.8716048454
 H    1.8086211880   -1.8086211081   -2.2704405161
units bohr
}

basis {

assign 6-31g_2dfp_

[ 6-31g_2dfp_ ]

spherical

!----------------------------------------------------------------------
! Basis Set Exchange
! Version v0.8.13
! https://www.basissetexchange.org
!----------------------------------------------------------------------
!   Basis set: 6-31G(2df,p)
! Description: 6-31G(2df,p)
!        Role: orbital
!     Version: 0  (Data from the original Basis Set Exchange)
!----------------------------------------------------------------------


****
H     0
S    3   1.00
     18.7311370              0.03349460
      2.8253937              0.23472695
      0.6401217              0.81375733
S    1   1.00
      0.1612778              1.00000000
P    1   1.00
      1.5000000              1.0000000
P    1   1.00
      0.3750000              1.0000000
****
B     0
S    6   1.00
   2068.8823000              0.0018663
    310.6495700              0.0142515
     70.6830330              0.0695516
     19.8610800              0.2325729
      6.2993048              0.4670787
      2.1270270              0.3634314
SP   3   1.00
      4.7279710             -0.1303938              0.0745976
      1.1903377             -0.1307889              0.3078467
      0.3594117              1.1309444              0.7434568
SP   1   1.00
      0.1267512              1.0000000              1.0000000
D    1   1.00
      0.8020000              1.0000000
D    1   1.00
      0.2005000              1.0000000
F    1   1.00
      0.5000000              1.0000000
****
C     0
S    6   1.00
   3047.5249000              0.0018347
    457.3695100              0.0140373
    103.9486900              0.0688426
     29.2101550              0.2321844
      9.2866630              0.4679413
      3.1639270              0.3623120
SP   3   1.00
      7.8682724             -0.1193324              0.0689991
      1.8812885             -0.1608542              0.3164240
      0.5442493              1.1434564              0.7443083
SP   1   1.00
      0.1687144              1.0000000              1.0000000
D    1   1.00
      1.2520000              1.0000000
D    1   1.00
      0.3130000              1.0000000
F    1   1.00
      0.8000000              1.0000000
****
N     0
S    6   1.00
   4173.5110000              0.0018348
    627.4579000              0.0139950
    142.9021000              0.0685870
     40.2343300              0.2322410
     12.8202100              0.4690700
      4.3904370              0.3604550
SP   3   1.00
     11.6263580             -0.1149610              0.0675800
      2.7162800             -0.1691180              0.3239070
      0.7722180              1.1458520              0.7408950
SP   1   1.00
      0.2120313              1.0000000              1.0000000
D    1   1.00
      1.8260000              1.0000000
D    1   1.00
      0.4565000              1.0000000
F    1   1.00
      1.0000000              1.0000000
****
O     0
S    6   1.00
   5484.6717000              0.0018311
    825.2349500              0.0139501
    188.0469600              0.0684451
     52.9645000              0.2327143
     16.8975700              0.4701930
      5.7996353              0.3585209
SP   3   1.00
     15.5396160             -0.1107775              0.0708743
      3.5999336             -0.1480263              0.3397528
      1.0137618              1.1307670              0.7271586
SP   1   1.00
      0.2700058              1.0000000              1.0000000
D    1   1.00
      2.5840000              1.0000000
D    1   1.00
      0.6460000              1.0000000
F    1   1.00
      1.4000000              1.0000000
****
F     0
S    6   1.00
   7001.7130900              0.0018196169
   1051.3660900              0.0139160796
    239.2856900              0.0684053245
     67.3974453              0.233185760
     21.5199573              0.471267439
      7.40310130             0.356618546
SP   3   1.00
     20.8479528             -0.108506975            0.0716287243
      4.80830834            -0.146451658            0.3459121030
      1.34406986             1.128688580            0.7224699570
SP   1   1.00
      0.358151393            1.0000000              1.0000000
D    1   1.00
      3.5000000              1.0000000
D    1   1.00
      0.8750000              1.0000000
F    1   1.00
      1.8500000              1.0000000
****
Al     0
S    6   1.00
  13983.1000000              0.00194267
   2098.7500000              0.0148599
    477.7050000              0.0728494
    134.3600000              0.2468300
     42.8709000              0.4872580
     14.5189000              0.3234960
SP   6   1.00
    239.6680000             -0.00292619             0.00460285
     57.4419000             -0.0374080              0.0331990
     18.2859000             -0.1144870              0.1362820
      6.5991400              0.1156350              0.3304760
      2.4904900              0.6125950              0.4491460
      0.9445400              0.3937990              0.2657040
SP   3   1.00
      1.2779000             -0.2276060             -0.0175130
      0.3975900              0.00144583             0.2445330
      0.1600950              1.0927900              0.8049340
SP   1   1.00
      0.0556577              1.0000000              1.0000000
D    1   1.00
      0.6500000              1.0000000
D    1   1.00
      0.1625000              1.0000000
F    1   1.00
      0.2500000              1.0000000
****
Si     0
S    6   1.00
  16115.9000000              0.00195948
   2425.5800000              0.01492880
    553.8670000              0.07284780
    156.3400000              0.24613000
     50.0683000              0.48591400
     17.0178000              0.32500200
SP   6   1.00
    292.7180000             -0.00278094             0.00443826
     69.8731000             -0.03571460             0.03266790
     22.3363000             -0.11498500             0.13472100
      8.1503900              0.09356340             0.32867800
      3.1345800              0.60301700             0.44964000
      1.2254300              0.41895900             0.26137200
SP   3   1.00
      1.7273800             -0.24463000            -0.01779510
      0.5729220              0.00431572             0.25353900
      0.2221920              1.09818000             0.80066900
SP   1   1.00
      0.0778369              1.00000000             1.00000000
D    1   1.00
      0.9000000              1.0000000
D    1   1.00
      0.2250000              1.0000000
F    1   1.00
      0.3200000              1.0000000
****
P     0
S    6   1.00
  19413.3000000              0.0018516
   2909.4200000              0.0142062
    661.3640000              0.0699995
    185.7590000              0.2400790
     59.1943000              0.4847620
     20.0310000              0.3352000
SP   6   1.00
    339.4780000             -0.00278217             0.00456462
     81.0101000             -0.0360499              0.03369360
     25.8780000             -0.1166310              0.13975500
      9.4522100              0.0968328              0.33936200
      3.6656600              0.6144180              0.45092100
      1.4674600              0.4037980              0.23858600
SP   3   1.00
      2.1562300             -0.2529230             -0.01776530
      0.7489970              0.0328517              0.27405800
      0.2831450              1.0812500              0.78542100
SP   1   1.00
      0.0998317              1.0000000              1.00000000
D    1   1.00
      1.1000000              1.0000000
D    1   1.00
      0.2750000              1.0000000
F    1   1.00
      0.4500000              1.0000000
****
S     0
S    6   1.00
  21917.1000000              0.0018690
   3301.4900000              0.0142300
    754.1460000              0.0696960
    212.7110000              0.2384870
     67.9896000              0.4833070
     23.0515000              0.3380740
SP   6   1.00
    423.7350000             -0.0023767              0.0040610
    100.7100000             -0.0316930              0.0306810
     32.1599000             -0.1133170              0.1304520
     11.8079000              0.0560900              0.3272050
      4.6311000              0.5922550              0.4528510
      1.8702500              0.4550060              0.2560420
SP   3   1.00
      2.6158400             -0.2503740             -0.0145110
      0.9221670              0.0669570              0.3102630
      0.3412870              1.0545100              0.7544830
SP   1   1.00
      0.1171670              1.0000000              1.0000000
D    1   1.00
      1.3000000              1.0000000
D    1   1.00
      0.3250000              1.0000000
F    1   1.00
      0.5500000              1.0000000
****
Cl     0
S    6   1.00
  25180.1000000              0.0018330
   3780.3500000              0.0140340
    860.4740000              0.0690970
    242.1450000              0.2374520
     77.3349000              0.4830340
     26.2470000              0.3398560
SP   6   1.00
    491.7650000             -0.0022974              0.0039894
    116.9840000             -0.0307140              0.0303180
     37.4153000             -0.1125280              0.1298800
     13.7834000              0.0450160              0.3279510
      5.4521500              0.5893530              0.4535270
      2.2258800              0.4652060              0.2521540
SP   3   1.00
      3.1864900             -0.2518300             -0.0142990
      1.1442700              0.0615890              0.3235720
      0.4203770              1.0601800              0.7435070
SP   1   1.00
      0.1426570              1.0000000              1.0000000
D    1   1.00
      1.5000000              1.0000000
D    1   1.00
      0.3750000              1.0000000
F    1   1.00
      0.7000000              1.0000000
****
}


set {
reference rhf                          
freeze_core true
e_convergence 10                       
d_convergence 10                      
dft_spherical_points 1202
dft_radial_points 99
}

e = energy('b3lyp')

print_out('Grab this energy {0}'.format(e))
--------------------------------------------------------------------------

  Memory set to  13.039 GiB by Python driver.

Scratch directory: /tmp/

*** tstart() called on n033
*** at Mon Mar 14 19:52:05 2022

   => Loading Basis Set <=

    Name: ANONYMOUS76211A44
    Role: ORBITAL
    Keyword: BASIS
    atoms 1-4  entry C          line    48 inputblock 6-31g_2dfp_ 
    atoms 5-12 entry H          line    15 inputblock 6-31g_2dfp_ 


         ---------------------------------------------------------
                                   SCF
               by Justin Turney, Rob Parrish, Andy Simmonett
                          and Daniel G. A. Smith
                              RKS Reference
                        4 Threads,  13351 MiB Core
         ---------------------------------------------------------

  ==> Geometry <==

    Molecular point group: c2
    Full point group: C2

    Geometry (in Bohr), charge = 0, multiplicity = 1:

       Center              X                  Y                   Z               Mass       
    ------------   -----------------  -----------------  -----------------  -----------------
         C            1.442445821200     1.442445891200     0.273800279324    12.000000000000
         C           -1.442445821200    -1.442445891200     0.273800279324    12.000000000000
         C           -1.441602817400     1.441602747300    -0.274734286076    12.000000000000
         C            1.441602817400    -1.441602747300    -0.274734286076    12.000000000000
         H            2.651804101700     2.651804171700    -0.867330161176     1.007825032230
         H            1.808513510300     1.808513610300     2.273891206424     1.007825032230
         H           -2.651804101700    -2.651804171700    -0.867330161176     1.007825032230
         H           -1.808513510300    -1.808513610300     2.273891206424     1.007825032230
         H           -2.651815684800     2.651815494800     0.873302687324     1.007825032230
         H           -1.808621188000     1.808621108100    -2.268742674176     1.007825032230
         H            2.651815684800    -2.651815494800     0.873302687324     1.007825032230
         H            1.808621188000    -1.808621108100    -2.268742674176     1.007825032230

  Running in c2 symmetry.

  Rotational constants: A =      0.35674  B =      0.35649  C =      0.21295 [cm^-1]
  Rotational constants: A =  10694.68712  B =  10687.41044  C =   6384.06324 [MHz]
  Nuclear repulsion =  127.071541917109641

  Charge       = 0
  Multiplicity = 1
  Electrons    = 32
  Nalpha       = 16
  Nbeta        = 16

  ==> Algorithm <==

  SCF Algorithm Type is DF.
  DIIS enabled.
  MOM disabled.
  Fractional occupation disabled.
  Guess Type is SAD.
  Energy threshold   = 1.00e-10
  Density threshold  = 1.00e-10
  Integral threshold = 0.00e+00

  ==> Primary Basis <==

  Basis Set: ANONYMOUS76211A44
    Blend: 6-31G_2DFP_
    Number of shells: 64
    Number of basis function: 168
    Number of Cartesian functions: 188
    Spherical Harmonics?: true
    Max angular momentum: 3

  ==> DFT Potential <==

   => Composite Functional: B3LYP <= 

    B3LYP Hyb-GGA Exchange-Correlation Functional

    P. J. Stephens, F. J. Devlin, C. F. Chabalowski, and M. J. Frisch, J. Phys. Chem. 98, 11623 (1994)

    Deriv               =              1
    GGA                 =           TRUE
    Meta                =          FALSE

    Exchange Hybrid     =           TRUE
    MP2 Hybrid          =          FALSE

   => Exchange Functionals <=

    0.0800   Slater exchange
    0.7200         Becke 88

   => Exact (HF) Exchange <=

    0.2000               HF 

   => Correlation Functionals <=

    0.1900   Vosko, Wilk & Nusair (VWN5_RPA)
    0.8100   Lee, Yang & Parr

   => Molecular Quadrature <=

    Radial Scheme          =       TREUTLER
    Pruning Scheme         =           NONE
    Nuclear Scheme         =       TREUTLER

    BS radius alpha        =              1
    Pruning alpha          =              1
    Radial Points          =             99
    Spherical Points       =           1202
    Total Points           =        1327204
    Total Blocks           =           8810
    Max Points             =            256
    Max Functions          =            168
    Weights Tolerance      =       1.00E-15

   => Loading Basis Set <=

    Name: (ANONYMOUS76211A44 AUX)
    Role: JKFIT
    Keyword: DF_BASIS_SCF
    atoms 1-4  entry C          line   198 file /opt/psi/4/master/share/psi4/basis/def2-universal-jkfit.gbs 
    atoms 5-12 entry H          line    18 file /opt/psi/4/master/share/psi4/basis/def2-universal-jkfit.gbs 

  ==> Integral Setup <==

  DFHelper Memory: AOs need 0.101 GiB; user supplied 4.297 GiB. Using in-core AOs.

  ==> MemDFJK: Density-Fitted J/K Matrices <==

    J tasked:                   Yes
    K tasked:                   Yes
    wK tasked:                   No
    OpenMP threads:               4
    Memory [MiB]:              4400
    Algorithm:                 Core
    Schwarz Cutoff:           1E-12
    Mask sparsity (%):       0.4677
    Fitting Condition:        1E-10

   => Auxiliary Basis Set <=

  Basis Set: (ANONYMOUS76211A44 AUX)
    Blend: DEF2-UNIVERSAL-JKFIT
    Number of shells: 148
    Number of basis function: 444
    Number of Cartesian functions: 516
    Spherical Harmonics?: true
    Max angular momentum: 4

  Cached 100.0% of DFT collocation blocks in 5.482 [GiB].

  Minimum eigenvalue in the overlap matrix is 6.6085720786E-04.
  Reciprocal condition number of the overlap matrix is 1.1061765431E-04.
    Using symmetric orthogonalization.

  ==> Pre-Iterations <==

  SCF Guess: Superposition of Atomic Densities via on-the-fly atomic UHF (no occupation information).

   -------------------------
    Irrep   Nso     Nmo    
   -------------------------
     A         84      84 
     B         84      84 
   -------------------------
    Total     168     168
   -------------------------

  ==> Iterations <==

                           Total Energy        Delta E     RMS |[F,P]|

   @DF-RKS iter SAD:  -156.73386996907658   -1.56734e+02   0.00000e+00 
   @DF-RKS iter   1:  -156.89159251910931   -1.57723e-01   6.53283e-03 DIIS
   @DF-RKS iter   2:  -156.64076805328656    2.50824e-01   8.75464e-03 DIIS
   @DF-RKS iter   3:  -157.22533762731268   -5.84570e-01   4.88117e-04 DIIS
   @DF-RKS iter   4:  -157.22678463477467   -1.44701e-03   8.86123e-05 DIIS
   @DF-RKS iter   5:  -157.22683994988063   -5.53151e-05   7.79535e-06 DIIS
   @DF-RKS iter   6:  -157.22684040776295   -4.57882e-07   1.25024e-06 DIIS
   @DF-RKS iter   7:  -157.22684041429758   -6.53463e-09   7.95657e-07 DIIS
   @DF-RKS iter   8:  -157.22684041861723   -4.31965e-09   4.04696e-08 DIIS
   @DF-RKS iter   9:  -157.22684041862888   -1.16529e-11   7.72637e-09 DIIS
   @DF-RKS iter  10:  -157.22684041862925   -3.69482e-13   2.62141e-09 DIIS
   @DF-RKS iter  11:  -157.22684041862937   -1.13687e-13   2.14134e-10 DIIS
   @DF-RKS iter  12:  -157.22684041862919    1.70530e-13   1.02850e-11 DIIS
  Energy and wave function converged.


  ==> Post-Iterations <==

    Orbital Energies [Eh]
    ---------------------

    Doubly Occupied:                                                      

       1A    -10.170980     1B    -10.170883     2B    -10.170864  
       2A    -10.170757     3A     -0.833433     3B     -0.649134  
       4B     -0.649069     4A     -0.544189     5A     -0.472283  
       6A     -0.468999     5B     -0.379756     6B     -0.379342  
       7A     -0.343777     8A     -0.313228     7B     -0.300347  
       8B     -0.299734  

    Virtual:                                                              

       9A      0.082072    10A      0.097564     9B      0.122409  
      10B      0.122436    11A      0.164396    11B      0.183610  
      12B      0.184098    13B      0.194050    14B      0.194420  
      12A      0.211442    13A      0.226158    14A      0.302515  
      15A      0.381680    16A      0.420185    15B      0.439346  
      16B      0.439963    17A      0.448981    18A      0.472747  
      19A      0.475107    17B      0.502160    18B      0.502177  
      19B      0.545107    20B      0.545113    20A      0.600118  
      21A      0.616691    21B      0.619861    22B      0.621131  
      22A      0.629193    23A      0.634083    23B      0.652693  
      24B      0.653161    24A      0.664425    25A      0.712732  
      26A      0.751934    27A      0.822267    25B      0.858814  
      26B      0.858880    27B      0.906987    28B      0.907221  
      28A      0.993891    29A      1.019746    30A      1.093776  
      29B      1.096169    30B      1.097087    31A      1.110492  
      32A      1.132130    31B      1.157927    32B      1.158871  
      33A      1.171215    34A      1.209844    33B      1.240728  
      34B      1.240965    35A      1.269532    36A      1.361100  
      37A      1.362420    38A      1.367475    35B      1.403748  
      36B      1.404877    39A      1.425785    37B      1.430908  
      38B      1.431169    39B      1.466429    40B      1.467167  
      40A      1.486238    41A      1.566167    41B      1.577844  
      42B      1.578609    42A      1.591630    43A      1.644842  
      44A      1.723793    43B      1.758821    44B      1.759200  
      45B      1.923476    46B      1.923590    45A      1.925404  
      46A      1.928371    47B      2.248646    48B      2.248941  
      47A      2.250132    48A      2.429773    49A      2.612131  
      50A      2.684976    49B      2.773788    50B      2.775136  
      51A      2.777097    52A      2.798365    53A      2.833463  
      51B      2.921990    52B      2.922111    54A      2.957741  
      53B      3.088235    54B      3.088246    55A      3.090890  
      56A      3.150380    57A      3.150887    55B      3.200116  
      56B      3.200459    58A      3.223358    59A      3.318534  
      57B      3.335140    58B      3.335181    60A      3.473499  
      59B      3.474363    60B      3.476096    61B      3.513412  
      62B      3.513762    61A      3.617963    62A      3.619381  
      63B      3.631672    64B      3.632754    63A      3.656732  
      64A      3.708969    65A      3.714314    66A      3.791942  
      65B      3.888557    66B      3.890419    67B      3.996406  
      68B      3.996918    67A      4.055742    68A      4.068718  
      69A      4.074288    69B      4.122117    70B      4.122181  
      70A      4.132256    71A      4.133727    71B      4.229936  
      72B      4.230009    72A      4.280258    73A      4.343374  
      73B      4.390510    74B      4.393516    75B      4.417354  
      76B      4.417527    74A      4.466791    75A      4.488472  
      77B      4.535177    78B      4.537728    76A      4.541581  
      77A      4.591511    78A      4.605764    79A      4.781305  
      80A      4.811379    79B      4.913662    80B      4.914438  
      81A      5.076358    82A      5.119545    81B      5.178866  
      82B      5.181726    83A      5.262334    83B      5.315090  
      84B      5.316976    84A      5.381005  

    Final Occupation by Irrep:
              A     B 
    DOCC [     8,    8 ]

  @DF-RKS Final Energy:  -157.22684041862919

   => Energetics <=

    Nuclear Repulsion Energy =            127.0715419171096414
    One-Electron Energy =                -461.5668472645011207
    Two-Electron Energy =                 197.2924291455519210
    DFT Exchange-Correlation Energy =     -20.0239642167896363
    Empirical Dispersion Energy =           0.0000000000000000
    VV10 Nonlocal Energy =                  0.0000000000000000
    Total Energy =                       -157.2268404186291946

Computation Completed


Properties will be evaluated at   0.000000,   0.000000,   0.000000 [a0]

Properties computed using the SCF density matrix

  Nuclear Dipole Moment: [e a0]
     X:     0.0000      Y:     0.0000      Z:     0.0110

  Electronic Dipole Moment: [e a0]
     X:     0.0000      Y:     0.0000      Z:    -0.0132

  Dipole Moment: [e a0]
     X:     0.0000      Y:     0.0000      Z:    -0.0022     Total:     0.0022

  Dipole Moment: [D]
     X:     0.0000      Y:     0.0000      Z:    -0.0056     Total:     0.0056


*** tstop() called on n033 at Mon Mar 14 19:52:37 2022
Module time:
	user time   =     126.25 seconds =       2.10 minutes
	system time =       1.32 seconds =       0.02 minutes
	total time  =         32 seconds =       0.53 minutes
Total time:
	user time   =     126.25 seconds =       2.10 minutes
	system time =       1.32 seconds =       0.02 minutes
	total time  =         32 seconds =       0.53 minutes
Grab this energy -157.2268404186292
    Psi4 stopped on: Monday, 14 March 2022 07:52PM
    Psi4 wall time for execution: 0:00:32.72

*** Psi4 exiting successfully. Buy a developer a beer!
