
    -----------------------------------------------------------------------
          Psi4: An Open-Source Ab Initio Electronic Structure Package
                               Psi4 1.4a2.dev629 

                         Git: Rev {master} 2938fc2 dirty


    D. G. A. Smith, L. A. Burns, A. C. Simmonett, R. M. Parrish,
    M. C. Schieber, R. Galvelis, P. Kraus, H. Kruse, R. Di Remigio,
    A. Alenaizan, A. M. James, S. Lehtola, J. P. Misiewicz, M. Scheurer,
    R. A. Shaw, J. B. Schriber, Y. Xie, Z. L. Glick, D. A. Sirianni,
    J. S. O'Brien, J. M. Waldrop, A. Kumar, E. G. Hohenstein,
    B. P. Pritchard, B. R. Brooks, H. F. Schaefer III, A. Yu. Sokolov,
    K. Patkowski, A. E. DePrince III, U. Bozkaya, R. A. King,
    F. A. Evangelista, J. M. Turney, T. D. Crawford, C. D. Sherrill,
    J. Chem. Phys. 152(18) 184108 (2020). https://doi.org/10.1063/5.0006002

                            Additional Code Authors
    E. T. Seidl, C. L. Janssen, E. F. Valeev, M. L. Leininger,
    J. F. Gonthier, R. M. Richard, H. R. McAlexander, M. Saitow, X. Wang,
    P. Verma, and M. H. Lechner

             Previous Authors, Complete List of Code Contributors,
                       and Citations for Specific Modules
    https://github.com/psi4/psi4/blob/master/codemeta.json
    https://github.com/psi4/psi4/graphs/contributors
    http://psicode.org/psi4manual/master/introduction.html#citing-psifour

    -----------------------------------------------------------------------


    Psi4 started on: Monday, 14 March 2022 07:42PM

    Process ID: 27128
    Host:       n023
    PSIDATADIR: /opt/psi/4/master/share/psi4
    Memory:     500.0 MiB
    Threads:    4
    
  ==> Input File <==

--------------------------------------------------------------------------
import os
memory 14 GB 
 
molecule {
 C    1.4422144864    1.4437430717    0.2746009271
 C   -1.4422144864   -1.4437430717    0.2746009271
 C   -1.4437430716    1.4422144861   -0.2746009271
 C    1.4437430716   -1.4422144861   -0.2746009271
 H    2.6558220810    2.6553072951   -0.8710114958
 H    1.8120892796    1.8116266956    2.2721197208
 H   -2.6558220810   -2.6553072951   -0.8710114958
 H   -1.8120892796   -1.8116266956    2.2721197208
 H   -2.6553073553    2.6558220209    0.8710114957
 H   -1.8116266858    1.8120892895   -2.2721197208
 H    2.6553073553   -2.6558220209    0.8710114957
 H    1.8116266858   -1.8120892895   -2.2721197208
units bohr
}

basis {

assign 6-31g_2dfp_

[ 6-31g_2dfp_ ]

spherical

!----------------------------------------------------------------------
! Basis Set Exchange
! Version v0.8.13
! https://www.basissetexchange.org
!----------------------------------------------------------------------
!   Basis set: 6-31G(2df,p)
! Description: 6-31G(2df,p)
!        Role: orbital
!     Version: 0  (Data from the original Basis Set Exchange)
!----------------------------------------------------------------------


****
H     0
S    3   1.00
     18.7311370              0.03349460
      2.8253937              0.23472695
      0.6401217              0.81375733
S    1   1.00
      0.1612778              1.00000000
P    1   1.00
      1.5000000              1.0000000
P    1   1.00
      0.3750000              1.0000000
****
B     0
S    6   1.00
   2068.8823000              0.0018663
    310.6495700              0.0142515
     70.6830330              0.0695516
     19.8610800              0.2325729
      6.2993048              0.4670787
      2.1270270              0.3634314
SP   3   1.00
      4.7279710             -0.1303938              0.0745976
      1.1903377             -0.1307889              0.3078467
      0.3594117              1.1309444              0.7434568
SP   1   1.00
      0.1267512              1.0000000              1.0000000
D    1   1.00
      0.8020000              1.0000000
D    1   1.00
      0.2005000              1.0000000
F    1   1.00
      0.5000000              1.0000000
****
C     0
S    6   1.00
   3047.5249000              0.0018347
    457.3695100              0.0140373
    103.9486900              0.0688426
     29.2101550              0.2321844
      9.2866630              0.4679413
      3.1639270              0.3623120
SP   3   1.00
      7.8682724             -0.1193324              0.0689991
      1.8812885             -0.1608542              0.3164240
      0.5442493              1.1434564              0.7443083
SP   1   1.00
      0.1687144              1.0000000              1.0000000
D    1   1.00
      1.2520000              1.0000000
D    1   1.00
      0.3130000              1.0000000
F    1   1.00
      0.8000000              1.0000000
****
N     0
S    6   1.00
   4173.5110000              0.0018348
    627.4579000              0.0139950
    142.9021000              0.0685870
     40.2343300              0.2322410
     12.8202100              0.4690700
      4.3904370              0.3604550
SP   3   1.00
     11.6263580             -0.1149610              0.0675800
      2.7162800             -0.1691180              0.3239070
      0.7722180              1.1458520              0.7408950
SP   1   1.00
      0.2120313              1.0000000              1.0000000
D    1   1.00
      1.8260000              1.0000000
D    1   1.00
      0.4565000              1.0000000
F    1   1.00
      1.0000000              1.0000000
****
O     0
S    6   1.00
   5484.6717000              0.0018311
    825.2349500              0.0139501
    188.0469600              0.0684451
     52.9645000              0.2327143
     16.8975700              0.4701930
      5.7996353              0.3585209
SP   3   1.00
     15.5396160             -0.1107775              0.0708743
      3.5999336             -0.1480263              0.3397528
      1.0137618              1.1307670              0.7271586
SP   1   1.00
      0.2700058              1.0000000              1.0000000
D    1   1.00
      2.5840000              1.0000000
D    1   1.00
      0.6460000              1.0000000
F    1   1.00
      1.4000000              1.0000000
****
F     0
S    6   1.00
   7001.7130900              0.0018196169
   1051.3660900              0.0139160796
    239.2856900              0.0684053245
     67.3974453              0.233185760
     21.5199573              0.471267439
      7.40310130             0.356618546
SP   3   1.00
     20.8479528             -0.108506975            0.0716287243
      4.80830834            -0.146451658            0.3459121030
      1.34406986             1.128688580            0.7224699570
SP   1   1.00
      0.358151393            1.0000000              1.0000000
D    1   1.00
      3.5000000              1.0000000
D    1   1.00
      0.8750000              1.0000000
F    1   1.00
      1.8500000              1.0000000
****
Al     0
S    6   1.00
  13983.1000000              0.00194267
   2098.7500000              0.0148599
    477.7050000              0.0728494
    134.3600000              0.2468300
     42.8709000              0.4872580
     14.5189000              0.3234960
SP   6   1.00
    239.6680000             -0.00292619             0.00460285
     57.4419000             -0.0374080              0.0331990
     18.2859000             -0.1144870              0.1362820
      6.5991400              0.1156350              0.3304760
      2.4904900              0.6125950              0.4491460
      0.9445400              0.3937990              0.2657040
SP   3   1.00
      1.2779000             -0.2276060             -0.0175130
      0.3975900              0.00144583             0.2445330
      0.1600950              1.0927900              0.8049340
SP   1   1.00
      0.0556577              1.0000000              1.0000000
D    1   1.00
      0.6500000              1.0000000
D    1   1.00
      0.1625000              1.0000000
F    1   1.00
      0.2500000              1.0000000
****
Si     0
S    6   1.00
  16115.9000000              0.00195948
   2425.5800000              0.01492880
    553.8670000              0.07284780
    156.3400000              0.24613000
     50.0683000              0.48591400
     17.0178000              0.32500200
SP   6   1.00
    292.7180000             -0.00278094             0.00443826
     69.8731000             -0.03571460             0.03266790
     22.3363000             -0.11498500             0.13472100
      8.1503900              0.09356340             0.32867800
      3.1345800              0.60301700             0.44964000
      1.2254300              0.41895900             0.26137200
SP   3   1.00
      1.7273800             -0.24463000            -0.01779510
      0.5729220              0.00431572             0.25353900
      0.2221920              1.09818000             0.80066900
SP   1   1.00
      0.0778369              1.00000000             1.00000000
D    1   1.00
      0.9000000              1.0000000
D    1   1.00
      0.2250000              1.0000000
F    1   1.00
      0.3200000              1.0000000
****
P     0
S    6   1.00
  19413.3000000              0.0018516
   2909.4200000              0.0142062
    661.3640000              0.0699995
    185.7590000              0.2400790
     59.1943000              0.4847620
     20.0310000              0.3352000
SP   6   1.00
    339.4780000             -0.00278217             0.00456462
     81.0101000             -0.0360499              0.03369360
     25.8780000             -0.1166310              0.13975500
      9.4522100              0.0968328              0.33936200
      3.6656600              0.6144180              0.45092100
      1.4674600              0.4037980              0.23858600
SP   3   1.00
      2.1562300             -0.2529230             -0.01776530
      0.7489970              0.0328517              0.27405800
      0.2831450              1.0812500              0.78542100
SP   1   1.00
      0.0998317              1.0000000              1.00000000
D    1   1.00
      1.1000000              1.0000000
D    1   1.00
      0.2750000              1.0000000
F    1   1.00
      0.4500000              1.0000000
****
S     0
S    6   1.00
  21917.1000000              0.0018690
   3301.4900000              0.0142300
    754.1460000              0.0696960
    212.7110000              0.2384870
     67.9896000              0.4833070
     23.0515000              0.3380740
SP   6   1.00
    423.7350000             -0.0023767              0.0040610
    100.7100000             -0.0316930              0.0306810
     32.1599000             -0.1133170              0.1304520
     11.8079000              0.0560900              0.3272050
      4.6311000              0.5922550              0.4528510
      1.8702500              0.4550060              0.2560420
SP   3   1.00
      2.6158400             -0.2503740             -0.0145110
      0.9221670              0.0669570              0.3102630
      0.3412870              1.0545100              0.7544830
SP   1   1.00
      0.1171670              1.0000000              1.0000000
D    1   1.00
      1.3000000              1.0000000
D    1   1.00
      0.3250000              1.0000000
F    1   1.00
      0.5500000              1.0000000
****
Cl     0
S    6   1.00
  25180.1000000              0.0018330
   3780.3500000              0.0140340
    860.4740000              0.0690970
    242.1450000              0.2374520
     77.3349000              0.4830340
     26.2470000              0.3398560
SP   6   1.00
    491.7650000             -0.0022974              0.0039894
    116.9840000             -0.0307140              0.0303180
     37.4153000             -0.1125280              0.1298800
     13.7834000              0.0450160              0.3279510
      5.4521500              0.5893530              0.4535270
      2.2258800              0.4652060              0.2521540
SP   3   1.00
      3.1864900             -0.2518300             -0.0142990
      1.1442700              0.0615890              0.3235720
      0.4203770              1.0601800              0.7435070
SP   1   1.00
      0.1426570              1.0000000              1.0000000
D    1   1.00
      1.5000000              1.0000000
D    1   1.00
      0.3750000              1.0000000
F    1   1.00
      0.7000000              1.0000000
****
}


set {
reference rhf                          
freeze_core true
e_convergence 10                       
d_convergence 10                      
dft_spherical_points 1202
dft_radial_points 99
}

e = energy('b3lyp')

print_out('Grab this energy {0}'.format(e))
--------------------------------------------------------------------------

  Memory set to  13.039 GiB by Python driver.

Scratch directory: /tmp/

*** tstart() called on n023
*** at Mon Mar 14 19:42:03 2022

   => Loading Basis Set <=

    Name: ANONYMOUS6867FDC2
    Role: ORBITAL
    Keyword: BASIS
    atoms 1-4  entry C          line    48 inputblock 6-31g_2dfp_ 
    atoms 5-12 entry H          line    15 inputblock 6-31g_2dfp_ 


         ---------------------------------------------------------
                                   SCF
               by Justin Turney, Rob Parrish, Andy Simmonett
                          and Daniel G. A. Smith
                              RKS Reference
                        4 Threads,  13351 MiB Core
         ---------------------------------------------------------

  ==> Geometry <==

    Molecular point group: c2
    Full point group: D1

    Geometry (in Bohr), charge = 0, multiplicity = 1:

       Center              X                  Y                   Z               Mass       
    ------------   -----------------  -----------------  -----------------  -----------------
         C            1.442214486400     1.443743071700     0.274600927104    12.000000000000
         C           -1.442214486400    -1.443743071700     0.274600927104    12.000000000000
         C           -1.443743071600     1.442214486100    -0.274600927096    12.000000000000
         C            1.443743071600    -1.442214486100    -0.274600927096    12.000000000000
         H            2.655822081000     2.655307295100    -0.871011495796     1.007825032230
         H            1.812089279600     1.811626695600     2.272119720804     1.007825032230
         H           -2.655822081000    -2.655307295100    -0.871011495796     1.007825032230
         H           -1.812089279600    -1.811626695600     2.272119720804     1.007825032230
         H           -2.655307355300     2.655822020900     0.871011495704     1.007825032230
         H           -1.811626685800     1.812089289500    -2.272119720796     1.007825032230
         H            2.655307355300    -2.655822020900     0.871011495704     1.007825032230
         H            1.811626685800    -1.812089289500    -2.272119720796     1.007825032230

  Running in c2 symmetry.

  Rotational constants: A =      0.35601  B =      0.35601  C =      0.21256 [cm^-1]
  Rotational constants: A =  10672.78482  B =  10672.78474  C =   6372.31661 [MHz]
  Nuclear repulsion =  126.955334641748138

  Charge       = 0
  Multiplicity = 1
  Electrons    = 32
  Nalpha       = 16
  Nbeta        = 16

  ==> Algorithm <==

  SCF Algorithm Type is DF.
  DIIS enabled.
  MOM disabled.
  Fractional occupation disabled.
  Guess Type is SAD.
  Energy threshold   = 1.00e-10
  Density threshold  = 1.00e-10
  Integral threshold = 0.00e+00

  ==> Primary Basis <==

  Basis Set: ANONYMOUS6867FDC2
    Blend: 6-31G_2DFP_
    Number of shells: 64
    Number of basis function: 168
    Number of Cartesian functions: 188
    Spherical Harmonics?: true
    Max angular momentum: 3

  ==> DFT Potential <==

   => Composite Functional: B3LYP <= 

    B3LYP Hyb-GGA Exchange-Correlation Functional

    P. J. Stephens, F. J. Devlin, C. F. Chabalowski, and M. J. Frisch, J. Phys. Chem. 98, 11623 (1994)

    Deriv               =              1
    GGA                 =           TRUE
    Meta                =          FALSE

    Exchange Hybrid     =           TRUE
    MP2 Hybrid          =          FALSE

   => Exchange Functionals <=

    0.0800   Slater exchange
    0.7200         Becke 88

   => Exact (HF) Exchange <=

    0.2000               HF 

   => Correlation Functionals <=

    0.1900   Vosko, Wilk & Nusair (VWN5_RPA)
    0.8100   Lee, Yang & Parr

   => Molecular Quadrature <=

    Radial Scheme          =       TREUTLER
    Pruning Scheme         =           NONE
    Nuclear Scheme         =       TREUTLER

    BS radius alpha        =              1
    Pruning alpha          =              1
    Radial Points          =             99
    Spherical Points       =           1202
    Total Points           =        1325228
    Total Blocks           =           8814
    Max Points             =            256
    Max Functions          =            168
    Weights Tolerance      =       1.00E-15

   => Loading Basis Set <=

    Name: (ANONYMOUS6867FDC2 AUX)
    Role: JKFIT
    Keyword: DF_BASIS_SCF
    atoms 1-4  entry C          line   198 file /opt/psi/4/master/share/psi4/basis/def2-universal-jkfit.gbs 
    atoms 5-12 entry H          line    18 file /opt/psi/4/master/share/psi4/basis/def2-universal-jkfit.gbs 

  ==> Integral Setup <==

  DFHelper Memory: AOs need 0.101 GiB; user supplied 4.302 GiB. Using in-core AOs.

  ==> MemDFJK: Density-Fitted J/K Matrices <==

    J tasked:                   Yes
    K tasked:                   Yes
    wK tasked:                   No
    OpenMP threads:               4
    Memory [MiB]:              4405
    Algorithm:                 Core
    Schwarz Cutoff:           1E-12
    Mask sparsity (%):       0.4677
    Fitting Condition:        1E-10

   => Auxiliary Basis Set <=

  Basis Set: (ANONYMOUS6867FDC2 AUX)
    Blend: DEF2-UNIVERSAL-JKFIT
    Number of shells: 148
    Number of basis function: 444
    Number of Cartesian functions: 516
    Spherical Harmonics?: true
    Max angular momentum: 4

  Cached 100.0% of DFT collocation blocks in 5.476 [GiB].

  Minimum eigenvalue in the overlap matrix is 6.6088829478E-04.
  Reciprocal condition number of the overlap matrix is 1.1079501693E-04.
    Using symmetric orthogonalization.

  ==> Pre-Iterations <==

  SCF Guess: Superposition of Atomic Densities via on-the-fly atomic UHF (no occupation information).

   -------------------------
    Irrep   Nso     Nmo    
   -------------------------
     A         84      84 
     B         84      84 
   -------------------------
    Total     168     168
   -------------------------

  ==> Iterations <==

                           Total Energy        Delta E     RMS |[F,P]|

   @DF-RKS iter SAD:  -156.72566096417884   -1.56726e+02   0.00000e+00 
   @DF-RKS iter   1:  -156.89245105582012   -1.66790e-01   6.52288e-03 DIIS
   @DF-RKS iter   2:  -156.64063887660006    2.51812e-01   8.75172e-03 DIIS
   @DF-RKS iter   3:  -157.22538624219200   -5.84747e-01   4.87638e-04 DIIS
   @DF-RKS iter   4:  -157.22683189876480   -1.44566e-03   8.85366e-05 DIIS
   @DF-RKS iter   5:  -157.22688716437619   -5.52656e-05   7.74720e-06 DIIS
   @DF-RKS iter   6:  -157.22688762748180   -4.63106e-07   3.69590e-07 DIIS
   @DF-RKS iter   7:  -157.22688762859306   -1.11126e-09   5.94104e-08 DIIS
   @DF-RKS iter   8:  -157.22688762862063   -2.75691e-11   7.05568e-09 DIIS
   @DF-RKS iter   9:  -157.22688762862103   -3.97904e-13   5.17475e-10 DIIS
   @DF-RKS iter  10:  -157.22688762862106   -2.84217e-14   3.97302e-11 DIIS
  Energy and wave function converged.


  ==> Post-Iterations <==

    Orbital Energies [Eh]
    ---------------------

    Doubly Occupied:                                                      

       1A    -10.171515     1B    -10.171410     2B    -10.171410  
       2A    -10.171294     3A     -0.832876     3B     -0.648810  
       4B     -0.648810     4A     -0.544110     5A     -0.471585  
       6A     -0.468768     5B     -0.379252     6B     -0.379252  
       7A     -0.343608     8A     -0.313125     7B     -0.300133  
       8B     -0.300132  

    Virtual:                                                              

       9A      0.081945    10A      0.097248     9B      0.122121  
      10B      0.122121    11A      0.163831    11B      0.183601  
      12B      0.183601    13B      0.193796    14B      0.193796  
      12A      0.211204    13A      0.225607    14A      0.302557  
      15A      0.381617    16A      0.420082    15B      0.439629  
      16B      0.439629    17A      0.448870    18A      0.472169  
      19A      0.475027    17B      0.501729    18B      0.501729  
      19B      0.544405    20B      0.544405    20A      0.599885  
      21A      0.615786    21B      0.620069    22B      0.620069  
      22A      0.628578    23A      0.633324    23B      0.652042  
      24B      0.652042    24A      0.663974    25A      0.711895  
      26A      0.751388    27A      0.822008    25B      0.858061  
      26B      0.858061    27B      0.906002    28B      0.906002  
      28A      0.993216    29A      1.018860    30A      1.093300  
      29B      1.097492    30B      1.097492    31A      1.109458  
      32A      1.131718    31B      1.157400    32B      1.157400  
      33A      1.170425    34A      1.209413    33B      1.240299  
      34B      1.240299    35A      1.267661    36A      1.359815  
      37A      1.361664    38A      1.366490    35B      1.403469  
      36B      1.403469    39A      1.426610    37B      1.430587  
      38B      1.430587    39B      1.465390    40B      1.465390  
      40A      1.485253    41A      1.564420    41B      1.576887  
      42B      1.576887    42A      1.591096    43A      1.643585  
      44A      1.721721    43B      1.757318    44B      1.757318  
      45B      1.920256    46B      1.920256    45A      1.925533  
      46A      1.926837    47B      2.246913    48B      2.246913  
      47A      2.247882    48A      2.425977    49A      2.611339  
      50A      2.683893    49B      2.774325    50B      2.774325  
      51A      2.775558    52A      2.797073    53A      2.832133  
      51B      2.920419    52B      2.920419    54A      2.957174  
      53B      3.087879    54B      3.087879    55A      3.090743  
      56A      3.149360    57A      3.150332    55B      3.199411  
      56B      3.199411    58A      3.224789    59A      3.318339  
      57B      3.335136    58B      3.335136    59B      3.472051  
      60B      3.472051    60A      3.473258    61B      3.512366  
      62B      3.512366    61A      3.617913    62A      3.618155  
      63B      3.631597    64B      3.631597    63A      3.655425  
      64A      3.706746    65A      3.712889    66A      3.789631  
      65B      3.889547    66B      3.889547    67B      3.993153  
      68B      3.993153    67A      4.053662    68A      4.065695  
      69A      4.073467    69B      4.119520    70B      4.119520  
      70A      4.128250    71A      4.132280    71B      4.228499  
      72B      4.228499    72A      4.276188    73A      4.341922  
      73B      4.389350    74B      4.389350    75B      4.414177  
      76B      4.414177    74A      4.463338    75A      4.485602  
      77B      4.533893    78B      4.533893    76A      4.540868  
      77A      4.589939    78A      4.601887    79A      4.778090  
      80A      4.810545    79B      4.910425    80B      4.910425  
      81A      5.073065    82A      5.115656    81B      5.176668  
      82B      5.176668    83A      5.257343    83B      5.312232  
      84B      5.312232    84A      5.377125  

    Final Occupation by Irrep:
              A     B 
    DOCC [     8,    8 ]

  @DF-RKS Final Energy:  -157.22688762862106

   => Energetics <=

    Nuclear Repulsion Energy =            126.9553346417481379
    One-Electron Energy =                -461.3390399019335746
    Two-Electron Energy =                 197.1762355737297412
    DFT Exchange-Correlation Energy =     -20.0194179421653686
    Empirical Dispersion Energy =           0.0000000000000000
    VV10 Nonlocal Energy =                  0.0000000000000000
    Total Energy =                       -157.2268876286210570

Computation Completed


Properties will be evaluated at   0.000000,   0.000000,   0.000000 [a0]

Properties computed using the SCF density matrix

  Nuclear Dipole Moment: [e a0]
     X:     0.0000      Y:     0.0000      Z:    -0.0000

  Electronic Dipole Moment: [e a0]
     X:     0.0000      Y:     0.0000      Z:     0.0000

  Dipole Moment: [e a0]
     X:     0.0000      Y:     0.0000      Z:    -0.0000     Total:     0.0000

  Dipole Moment: [D]
     X:     0.0000      Y:     0.0000      Z:    -0.0000     Total:     0.0000


*** tstop() called on n023 at Mon Mar 14 19:42:32 2022
Module time:
	user time   =     109.62 seconds =       1.83 minutes
	system time =       1.36 seconds =       0.02 minutes
	total time  =         29 seconds =       0.48 minutes
Total time:
	user time   =     109.62 seconds =       1.83 minutes
	system time =       1.36 seconds =       0.02 minutes
	total time  =         29 seconds =       0.48 minutes
Grab this energy -157.22688762862106
    Psi4 stopped on: Monday, 14 March 2022 07:42PM
    Psi4 wall time for execution: 0:00:28.43

*** Psi4 exiting successfully. Buy a developer a beer!
