
    -----------------------------------------------------------------------
          Psi4: An Open-Source Ab Initio Electronic Structure Package
                               Psi4 1.4a2.dev629 

                         Git: Rev {master} 2938fc2 dirty


    D. G. A. Smith, L. A. Burns, A. C. Simmonett, R. M. Parrish,
    M. C. Schieber, R. Galvelis, P. Kraus, H. Kruse, R. Di Remigio,
    A. Alenaizan, A. M. James, S. Lehtola, J. P. Misiewicz, M. Scheurer,
    R. A. Shaw, J. B. Schriber, Y. Xie, Z. L. Glick, D. A. Sirianni,
    J. S. O'Brien, J. M. Waldrop, A. Kumar, E. G. Hohenstein,
    B. P. Pritchard, B. R. Brooks, H. F. Schaefer III, A. Yu. Sokolov,
    K. Patkowski, A. E. DePrince III, U. Bozkaya, R. A. King,
    F. A. Evangelista, J. M. Turney, T. D. Crawford, C. D. Sherrill,
    J. Chem. Phys. 152(18) 184108 (2020). https://doi.org/10.1063/5.0006002

                            Additional Code Authors
    E. T. Seidl, C. L. Janssen, E. F. Valeev, M. L. Leininger,
    J. F. Gonthier, R. M. Richard, H. R. McAlexander, M. Saitow, X. Wang,
    P. Verma, and M. H. Lechner

             Previous Authors, Complete List of Code Contributors,
                       and Citations for Specific Modules
    https://github.com/psi4/psi4/blob/master/codemeta.json
    https://github.com/psi4/psi4/graphs/contributors
    http://psicode.org/psi4manual/master/introduction.html#citing-psifour

    -----------------------------------------------------------------------


    Psi4 started on: Monday, 15 November 2021 05:55PM

    Process ID: 25635
    Host:       n083
    PSIDATADIR: /opt/psi/4/master/share/psi4
    Memory:     500.0 MiB
    Threads:    4
    
  ==> Input File <==

--------------------------------------------------------------------------
import os
memory 14 GB 
 
molecule {
 C   -1.4422924178    1.4423867289   -0.2743909187
 C    1.4436653238   -1.4435711086   -0.2748111902
 C    1.4436652535    1.4435711785    0.2748111902
 C   -1.4422923479   -1.4423867992    0.2743909187
 H   -2.6571129937    2.6565688744    0.8738939138
 H   -1.8109945798    1.8108299163   -2.2746480827
 H    2.6540161586   -2.6545580424    0.8681333524
 H    1.8127185092   -1.8128833490   -2.2695930924
 H    2.6540160287    2.6545581729   -0.8681333532
 H    1.8127184187    1.8128834389    2.2695930931
 H   -2.6571128632   -2.6565690042   -0.8738939130
 H   -1.8109944900   -1.8108300066    2.2746480820
units bohr
}

basis {

assign 6-31g_2dfp_

[ 6-31g_2dfp_ ]

spherical

!----------------------------------------------------------------------
! Basis Set Exchange
! Version v0.8.13
! https://www.basissetexchange.org
!----------------------------------------------------------------------
!   Basis set: 6-31G(2df,p)
! Description: 6-31G(2df,p)
!        Role: orbital
!     Version: 0  (Data from the original Basis Set Exchange)
!----------------------------------------------------------------------


****
H     0
S    3   1.00
     18.7311370              0.03349460
      2.8253937              0.23472695
      0.6401217              0.81375733
S    1   1.00
      0.1612778              1.00000000
P    1   1.00
      1.5000000              1.0000000
P    1   1.00
      0.3750000              1.0000000
****
B     0
S    6   1.00
   2068.8823000              0.0018663
    310.6495700              0.0142515
     70.6830330              0.0695516
     19.8610800              0.2325729
      6.2993048              0.4670787
      2.1270270              0.3634314
SP   3   1.00
      4.7279710             -0.1303938              0.0745976
      1.1903377             -0.1307889              0.3078467
      0.3594117              1.1309444              0.7434568
SP   1   1.00
      0.1267512              1.0000000              1.0000000
D    1   1.00
      0.8020000              1.0000000
D    1   1.00
      0.2005000              1.0000000
F    1   1.00
      0.5000000              1.0000000
****
C     0
S    6   1.00
   3047.5249000              0.0018347
    457.3695100              0.0140373
    103.9486900              0.0688426
     29.2101550              0.2321844
      9.2866630              0.4679413
      3.1639270              0.3623120
SP   3   1.00
      7.8682724             -0.1193324              0.0689991
      1.8812885             -0.1608542              0.3164240
      0.5442493              1.1434564              0.7443083
SP   1   1.00
      0.1687144              1.0000000              1.0000000
D    1   1.00
      1.2520000              1.0000000
D    1   1.00
      0.3130000              1.0000000
F    1   1.00
      0.8000000              1.0000000
****
N     0
S    6   1.00
   4173.5110000              0.0018348
    627.4579000              0.0139950
    142.9021000              0.0685870
     40.2343300              0.2322410
     12.8202100              0.4690700
      4.3904370              0.3604550
SP   3   1.00
     11.6263580             -0.1149610              0.0675800
      2.7162800             -0.1691180              0.3239070
      0.7722180              1.1458520              0.7408950
SP   1   1.00
      0.2120313              1.0000000              1.0000000
D    1   1.00
      1.8260000              1.0000000
D    1   1.00
      0.4565000              1.0000000
F    1   1.00
      1.0000000              1.0000000
****
O     0
S    6   1.00
   5484.6717000              0.0018311
    825.2349500              0.0139501
    188.0469600              0.0684451
     52.9645000              0.2327143
     16.8975700              0.4701930
      5.7996353              0.3585209
SP   3   1.00
     15.5396160             -0.1107775              0.0708743
      3.5999336             -0.1480263              0.3397528
      1.0137618              1.1307670              0.7271586
SP   1   1.00
      0.2700058              1.0000000              1.0000000
D    1   1.00
      2.5840000              1.0000000
D    1   1.00
      0.6460000              1.0000000
F    1   1.00
      1.4000000              1.0000000
****
F     0
S    6   1.00
   7001.7130900              0.0018196169
   1051.3660900              0.0139160796
    239.2856900              0.0684053245
     67.3974453              0.233185760
     21.5199573              0.471267439
      7.40310130             0.356618546
SP   3   1.00
     20.8479528             -0.108506975            0.0716287243
      4.80830834            -0.146451658            0.3459121030
      1.34406986             1.128688580            0.7224699570
SP   1   1.00
      0.358151393            1.0000000              1.0000000
D    1   1.00
      3.5000000              1.0000000
D    1   1.00
      0.8750000              1.0000000
F    1   1.00
      1.8500000              1.0000000
****
Al     0
S    6   1.00
  13983.1000000              0.00194267
   2098.7500000              0.0148599
    477.7050000              0.0728494
    134.3600000              0.2468300
     42.8709000              0.4872580
     14.5189000              0.3234960
SP   6   1.00
    239.6680000             -0.00292619             0.00460285
     57.4419000             -0.0374080              0.0331990
     18.2859000             -0.1144870              0.1362820
      6.5991400              0.1156350              0.3304760
      2.4904900              0.6125950              0.4491460
      0.9445400              0.3937990              0.2657040
SP   3   1.00
      1.2779000             -0.2276060             -0.0175130
      0.3975900              0.00144583             0.2445330
      0.1600950              1.0927900              0.8049340
SP   1   1.00
      0.0556577              1.0000000              1.0000000
D    1   1.00
      0.6500000              1.0000000
D    1   1.00
      0.1625000              1.0000000
F    1   1.00
      0.2500000              1.0000000
****
Si     0
S    6   1.00
  16115.9000000              0.00195948
   2425.5800000              0.01492880
    553.8670000              0.07284780
    156.3400000              0.24613000
     50.0683000              0.48591400
     17.0178000              0.32500200
SP   6   1.00
    292.7180000             -0.00278094             0.00443826
     69.8731000             -0.03571460             0.03266790
     22.3363000             -0.11498500             0.13472100
      8.1503900              0.09356340             0.32867800
      3.1345800              0.60301700             0.44964000
      1.2254300              0.41895900             0.26137200
SP   3   1.00
      1.7273800             -0.24463000            -0.01779510
      0.5729220              0.00431572             0.25353900
      0.2221920              1.09818000             0.80066900
SP   1   1.00
      0.0778369              1.00000000             1.00000000
D    1   1.00
      0.9000000              1.0000000
D    1   1.00
      0.2250000              1.0000000
F    1   1.00
      0.3200000              1.0000000
****
P     0
S    6   1.00
  19413.3000000              0.0018516
   2909.4200000              0.0142062
    661.3640000              0.0699995
    185.7590000              0.2400790
     59.1943000              0.4847620
     20.0310000              0.3352000
SP   6   1.00
    339.4780000             -0.00278217             0.00456462
     81.0101000             -0.0360499              0.03369360
     25.8780000             -0.1166310              0.13975500
      9.4522100              0.0968328              0.33936200
      3.6656600              0.6144180              0.45092100
      1.4674600              0.4037980              0.23858600
SP   3   1.00
      2.1562300             -0.2529230             -0.01776530
      0.7489970              0.0328517              0.27405800
      0.2831450              1.0812500              0.78542100
SP   1   1.00
      0.0998317              1.0000000              1.00000000
D    1   1.00
      1.1000000              1.0000000
D    1   1.00
      0.2750000              1.0000000
F    1   1.00
      0.4500000              1.0000000
****
S     0
S    6   1.00
  21917.1000000              0.0018690
   3301.4900000              0.0142300
    754.1460000              0.0696960
    212.7110000              0.2384870
     67.9896000              0.4833070
     23.0515000              0.3380740
SP   6   1.00
    423.7350000             -0.0023767              0.0040610
    100.7100000             -0.0316930              0.0306810
     32.1599000             -0.1133170              0.1304520
     11.8079000              0.0560900              0.3272050
      4.6311000              0.5922550              0.4528510
      1.8702500              0.4550060              0.2560420
SP   3   1.00
      2.6158400             -0.2503740             -0.0145110
      0.9221670              0.0669570              0.3102630
      0.3412870              1.0545100              0.7544830
SP   1   1.00
      0.1171670              1.0000000              1.0000000
D    1   1.00
      1.3000000              1.0000000
D    1   1.00
      0.3250000              1.0000000
F    1   1.00
      0.5500000              1.0000000
****
Cl     0
S    6   1.00
  25180.1000000              0.0018330
   3780.3500000              0.0140340
    860.4740000              0.0690970
    242.1450000              0.2374520
     77.3349000              0.4830340
     26.2470000              0.3398560
SP   6   1.00
    491.7650000             -0.0022974              0.0039894
    116.9840000             -0.0307140              0.0303180
     37.4153000             -0.1125280              0.1298800
     13.7834000              0.0450160              0.3279510
      5.4521500              0.5893530              0.4535270
      2.2258800              0.4652060              0.2521540
SP   3   1.00
      3.1864900             -0.2518300             -0.0142990
      1.1442700              0.0615890              0.3235720
      0.4203770              1.0601800              0.7435070
SP   1   1.00
      0.1426570              1.0000000              1.0000000
D    1   1.00
      1.5000000              1.0000000
D    1   1.00
      0.3750000              1.0000000
F    1   1.00
      0.7000000              1.0000000
****
}


set {
reference rhf                          
freeze_core true
e_convergence 10                       
d_convergence 10                      
dft_spherical_points 1202
dft_radial_points 99
}

e = energy('b3lyp')

print_out('Grab this energy {0}'.format(e))
--------------------------------------------------------------------------

  Memory set to  13.039 GiB by Python driver.

Scratch directory: /tmp/

*** tstart() called on n083
*** at Mon Nov 15 17:55:32 2021

   => Loading Basis Set <=

    Name: ANONYMOUSB60DD890
    Role: ORBITAL
    Keyword: BASIS
    atoms 1-4  entry C          line    48 inputblock 6-31g_2dfp_ 
    atoms 5-12 entry H          line    15 inputblock 6-31g_2dfp_ 


         ---------------------------------------------------------
                                   SCF
               by Justin Turney, Rob Parrish, Andy Simmonett
                          and Daniel G. A. Smith
                              RKS Reference
                        4 Threads,  13351 MiB Core
         ---------------------------------------------------------

  ==> Geometry <==

    Molecular point group: c2
    Full point group: C2

    Geometry (in Bohr), charge = 0, multiplicity = 1:

       Center              X                  Y                   Z               Mass       
    ------------   -----------------  -----------------  -----------------  -----------------
         C           -1.442386764050     0.274390918700    -1.442830753198    12.000000000000
         C            1.443571143550     0.274811190200     1.443126918302    12.000000000000
         C           -1.443571143550    -0.274811190200     1.443126918302    12.000000000000
         C            1.442386764050    -0.274390918700    -1.442830753198    12.000000000000
         H           -2.656568939300    -0.873893913400    -2.657651298798     1.007825032230
         H           -1.810829961450     2.274648082350    -1.811532905248     1.007825032230
         H            2.654558107650    -0.868133352800     2.653477723302     1.007825032230
         H            1.812883393950     2.269593092750     1.812180093602     1.007825032230
         H           -2.654558107650     0.868133352800     2.653477723302     1.007825032230
         H           -1.812883393950    -2.269593092750     1.812180093602     1.007825032230
         H            2.656568939300     0.873893913400    -2.657651298798     1.007825032230
         H            1.810829961450    -2.274648082350    -1.811532905248     1.007825032230

  Running in c2 symmetry.

  Rotational constants: A =      0.35601  B =      0.35601  C =      0.21256 [cm^-1]
  Rotational constants: A =  10672.78172  B =  10672.78021  C =   6372.31730 [MHz]
  Nuclear repulsion =  126.955400573398308

  Charge       = 0
  Multiplicity = 1
  Electrons    = 32
  Nalpha       = 16
  Nbeta        = 16

  ==> Algorithm <==

  SCF Algorithm Type is DF.
  DIIS enabled.
  MOM disabled.
  Fractional occupation disabled.
  Guess Type is SAD.
  Energy threshold   = 1.00e-10
  Density threshold  = 1.00e-10
  Integral threshold = 0.00e+00

  ==> Primary Basis <==

  Basis Set: ANONYMOUSB60DD890
    Blend: 6-31G_2DFP_
    Number of shells: 64
    Number of basis function: 168
    Number of Cartesian functions: 188
    Spherical Harmonics?: true
    Max angular momentum: 3

  ==> DFT Potential <==

   => Composite Functional: B3LYP <= 

    B3LYP Hyb-GGA Exchange-Correlation Functional

    P. J. Stephens, F. J. Devlin, C. F. Chabalowski, and M. J. Frisch, J. Phys. Chem. 98, 11623 (1994)

    Deriv               =              1
    GGA                 =           TRUE
    Meta                =          FALSE

    Exchange Hybrid     =           TRUE
    MP2 Hybrid          =          FALSE

   => Exchange Functionals <=

    0.0800   Slater exchange
    0.7200         Becke 88

   => Exact (HF) Exchange <=

    0.2000               HF 

   => Correlation Functionals <=

    0.1900   Vosko, Wilk & Nusair (VWN5_RPA)
    0.8100   Lee, Yang & Parr

   => Molecular Quadrature <=

    Radial Scheme          =       TREUTLER
    Pruning Scheme         =           NONE
    Nuclear Scheme         =       TREUTLER

    BS radius alpha        =              1
    Pruning alpha          =              1
    Radial Points          =             99
    Spherical Points       =           1202
    Total Points           =        1325134
    Total Blocks           =           8818
    Max Points             =            256
    Max Functions          =            168
    Weights Tolerance      =       1.00E-15

   => Loading Basis Set <=

    Name: (ANONYMOUSB60DD890 AUX)
    Role: JKFIT
    Keyword: DF_BASIS_SCF
    atoms 1-4  entry C          line   198 file /opt/psi/4/master/share/psi4/basis/def2-universal-jkfit.gbs 
    atoms 5-12 entry H          line    18 file /opt/psi/4/master/share/psi4/basis/def2-universal-jkfit.gbs 

  ==> Integral Setup <==

  DFHelper Memory: AOs need 0.101 GiB; user supplied 4.303 GiB. Using in-core AOs.

  ==> MemDFJK: Density-Fitted J/K Matrices <==

    J tasked:                   Yes
    K tasked:                   Yes
    wK tasked:                   No
    OpenMP threads:               4
    Memory [MiB]:              4405
    Algorithm:                 Core
    Schwarz Cutoff:           1E-12
    Mask sparsity (%):       0.4677
    Fitting Condition:        1E-10

   => Auxiliary Basis Set <=

  Basis Set: (ANONYMOUSB60DD890 AUX)
    Blend: DEF2-UNIVERSAL-JKFIT
    Number of shells: 148
    Number of basis function: 444
    Number of Cartesian functions: 516
    Spherical Harmonics?: true
    Max angular momentum: 4

  Cached 100.0% of DFT collocation blocks in 5.476 [GiB].

  Minimum eigenvalue in the overlap matrix is 1.4132303081E-03.
  Reciprocal condition number of the overlap matrix is 2.1922074678E-04.
    Using symmetric orthogonalization.

  ==> Pre-Iterations <==

  SCF Guess: Superposition of Atomic Densities via on-the-fly atomic UHF (no occupation information).

   -------------------------
    Irrep   Nso     Nmo    
   -------------------------
     A         84      84 
     B         84      84 
   -------------------------
    Total     168     168
   -------------------------

  ==> Iterations <==

                           Total Energy        Delta E     RMS |[F,P]|

   @DF-RKS iter SAD:  -156.72565308611655   -1.56726e+02   0.00000e+00 
   @DF-RKS iter   1:  -156.89243346854306   -1.66780e-01   6.52291e-03 DIIS
   @DF-RKS iter   2:  -156.64061815691929    2.51815e-01   8.75176e-03 DIIS
   @DF-RKS iter   3:  -157.22537191070512   -5.84754e-01   4.87673e-04 DIIS
   @DF-RKS iter   4:  -157.22681770764848   -1.44580e-03   8.86146e-05 DIIS
   @DF-RKS iter   5:  -157.22687299779224   -5.52901e-05   8.38272e-06 DIIS
   @DF-RKS iter   6:  -157.22687343314772   -4.35355e-07   3.77901e-06 DIIS
   @DF-RKS iter   7:  -157.22687353279218   -9.96445e-08   5.42690e-07 DIIS
   @DF-RKS iter   8:  -157.22687353492017   -2.12799e-09   3.22821e-08 DIIS
   @DF-RKS iter   9:  -157.22687353492796   -7.78755e-12   3.65915e-09 DIIS
   @DF-RKS iter  10:  -157.22687353492805   -8.52651e-14   3.42587e-10 DIIS
   @DF-RKS iter  11:  -157.22687353492802    2.84217e-14   4.77132e-11 DIIS
  Energy and wave function converged.


  ==> Post-Iterations <==

    Orbital Energies [Eh]
    ---------------------

    Doubly Occupied:                                                      

       1A    -10.171745     1B    -10.171635     2A    -10.171180  
       2B    -10.171069     3A     -0.832877     3B     -0.648813  
       4A     -0.648811     4B     -0.544108     5B     -0.471586  
       5A     -0.468768     6A     -0.379254     6B     -0.379252  
       7A     -0.343609     8A     -0.313124     7B     -0.300132  
       9A     -0.300132  

    Virtual:                                                              

      10A      0.081943     8B      0.097246     9B      0.122121  
      11A      0.122122    10B      0.163826    12A      0.183601  
      11B      0.183603    13A      0.193790    12B      0.193798  
      14A      0.211209    13B      0.225609    14B      0.302558  
      15B      0.381617    15A      0.420082    16B      0.439629  
      16A      0.439629    17A      0.448869    18A      0.472168  
      17B      0.475027    18B      0.501729    19A      0.501729  
      19B      0.544404    20A      0.544407    20B      0.599885  
      21B      0.615783    21A      0.620034    22B      0.620067  
      22A      0.628616    23B      0.633316    24B      0.652038  
      23A      0.652040    25B      0.664001    24A      0.711902  
      25A      0.751389    26A      0.822001    26B      0.858059  
      27A      0.858067    27B      0.906000    28A      0.906002  
      29A      0.993215    28B      1.018863    30A      1.093268  
      29B      1.097487    31A      1.097528    30B      1.109457  
      31B      1.131722    32B      1.157391    32A      1.157401  
      33B      1.170435    34B      1.209413    33A      1.240295  
      35B      1.240298    34A      1.267654    35A      1.359810  
      36B      1.361656    36A      1.366490    37A      1.403470  
      37B      1.403471    38B      1.426410    38A      1.430586  
      39B      1.430785    39A      1.465387    40B      1.465393  
      41B      1.485254    40A      1.564384    42B      1.576881  
      41A      1.576925    42A      1.591102    43A      1.643585  
      43B      1.721698    44A      1.757319    44B      1.757329  
      45B      1.919813    45A      1.920068    46B      1.925999  
      46A      1.927041    47A      2.245725    47B      2.246890  
      48A      2.249074    48B      2.426013    49A      2.611330  
      50A      2.683895    49B      2.774293    51A      2.774327  
      50B      2.775586    51B      2.797076    52A      2.832134  
      52B      2.920412    53A      2.920419    53B      2.957189  
      54A      3.087850    54B      3.087881    55A      3.090785  
      56A      3.149638    55B      3.150052    56B      3.199411  
      57A      3.199418    57B      3.224793    58B      3.318337  
      58A      3.335144    59B      3.335151    60B      3.471304  
      59A      3.472043    61B      3.474013    60A      3.512355  
      62B      3.512361    63B      3.617886    61A      3.618163  
      62A      3.631592    64B      3.631621    65B      3.655435  
      63A      3.706754    64A      3.712898    65A      3.789630  
      66A      3.889547    66B      3.889552    67B      3.993147  
      67A      3.993151    68A      4.053637    68B      4.065692  
      69A      4.073459    70A      4.119233    69B      4.119399  
      71A      4.128535    70B      4.132373    72A      4.228471  
      71B      4.228548    72B      4.276148    73A      4.342003  
      74A      4.389351    73B      4.389353    75A      4.414146  
      74B      4.414166    75B      4.463344    76B      4.485623  
      76A      4.533780    77B      4.533881    77A      4.540973  
      78A      4.589990    78B      4.601930    79A      4.778045  
      79B      4.810535    80A      4.910441    80B      4.910454  
      81A      5.073081    81B      5.115522    82B      5.176641  
      82A      5.176694    83B      5.257391    83A      5.311990  
      84B      5.312378    84A      5.377404  

    Final Occupation by Irrep:
              A     B 
    DOCC [     9,    7 ]

  @DF-RKS Final Energy:  -157.22687353492802

   => Energetics <=

    Nuclear Repulsion Energy =            126.9554005733983075
    One-Electron Energy =                -461.3391269399540988
    Two-Electron Energy =                 197.1762760223113276
    DFT Exchange-Correlation Energy =     -20.0194231906835753
    Empirical Dispersion Energy =           0.0000000000000000
    VV10 Nonlocal Energy =                  0.0000000000000000
    Total Energy =                       -157.2268735349280178

Computation Completed


Properties will be evaluated at   0.000000,   0.000000,   0.000000 [a0]

Properties computed using the SCF density matrix

  Nuclear Dipole Moment: [e a0]
     X:     0.0000      Y:     0.0000      Z:    -0.0035

  Electronic Dipole Moment: [e a0]
     X:     0.0000      Y:     0.0000      Z:     0.0062

  Dipole Moment: [e a0]
     X:     0.0000      Y:     0.0000      Z:     0.0027     Total:     0.0027

  Dipole Moment: [D]
     X:     0.0000      Y:     0.0000      Z:     0.0067     Total:     0.0067


*** tstop() called on n083 at Mon Nov 15 17:55:55 2021
Module time:
	user time   =      86.62 seconds =       1.44 minutes
	system time =       1.55 seconds =       0.03 minutes
	total time  =         23 seconds =       0.38 minutes
Total time:
	user time   =      86.62 seconds =       1.44 minutes
	system time =       1.55 seconds =       0.03 minutes
	total time  =         23 seconds =       0.38 minutes
Grab this energy -157.22687353492802
    Psi4 stopped on: Monday, 15 November 2021 05:55PM
    Psi4 wall time for execution: 0:00:22.71

*** Psi4 exiting successfully. Buy a developer a beer!
