
    -----------------------------------------------------------------------
          Psi4: An Open-Source Ab Initio Electronic Structure Package
                               Psi4 1.4a2.dev629 

                         Git: Rev {master} 2938fc2 dirty


    D. G. A. Smith, L. A. Burns, A. C. Simmonett, R. M. Parrish,
    M. C. Schieber, R. Galvelis, P. Kraus, H. Kruse, R. Di Remigio,
    A. Alenaizan, A. M. James, S. Lehtola, J. P. Misiewicz, M. Scheurer,
    R. A. Shaw, J. B. Schriber, Y. Xie, Z. L. Glick, D. A. Sirianni,
    J. S. O'Brien, J. M. Waldrop, A. Kumar, E. G. Hohenstein,
    B. P. Pritchard, B. R. Brooks, H. F. Schaefer III, A. Yu. Sokolov,
    K. Patkowski, A. E. DePrince III, U. Bozkaya, R. A. King,
    F. A. Evangelista, J. M. Turney, T. D. Crawford, C. D. Sherrill,
    J. Chem. Phys. 152(18) 184108 (2020). https://doi.org/10.1063/5.0006002

                            Additional Code Authors
    E. T. Seidl, C. L. Janssen, E. F. Valeev, M. L. Leininger,
    J. F. Gonthier, R. M. Richard, H. R. McAlexander, M. Saitow, X. Wang,
    P. Verma, and M. H. Lechner

             Previous Authors, Complete List of Code Contributors,
                       and Citations for Specific Modules
    https://github.com/psi4/psi4/blob/master/codemeta.json
    https://github.com/psi4/psi4/graphs/contributors
    http://psicode.org/psi4manual/master/introduction.html#citing-psifour

    -----------------------------------------------------------------------


    Psi4 started on: Monday, 14 March 2022 07:46PM

    Process ID: 24105
    Host:       n027
    PSIDATADIR: /opt/psi/4/master/share/psi4
    Memory:     500.0 MiB
    Threads:    4
    
  ==> Input File <==

--------------------------------------------------------------------------
import os
memory 14 GB 
 
molecule {
 C    1.4407655408    1.4415435064    0.2756299257
 C   -1.4407012806   -1.4407068480    0.2731251976
 C   -1.4411584285    1.4411510384   -0.2756310858
 C    1.4410907439   -1.4403169607   -0.2731240370
 H    2.6542315200    2.6495587688   -0.8705581347
 H    1.8060540350    1.8120893706    2.2710476861
 H   -2.6544252281   -2.6501597799   -0.8695749486
 H   -1.8058801328   -1.8123258158    2.2712834597
 H   -2.6497636267    2.6540282687    0.8705582199
 H   -1.8122911996    1.8058509754   -2.2710474290
 H    2.6499562943   -2.6546271103    0.8695748647
 H    1.8121217625   -1.8060854138   -2.2712837186
units bohr
}

basis {

assign 6-31g_2dfp_

[ 6-31g_2dfp_ ]

spherical

!----------------------------------------------------------------------
! Basis Set Exchange
! Version v0.8.13
! https://www.basissetexchange.org
!----------------------------------------------------------------------
!   Basis set: 6-31G(2df,p)
! Description: 6-31G(2df,p)
!        Role: orbital
!     Version: 0  (Data from the original Basis Set Exchange)
!----------------------------------------------------------------------


****
H     0
S    3   1.00
     18.7311370              0.03349460
      2.8253937              0.23472695
      0.6401217              0.81375733
S    1   1.00
      0.1612778              1.00000000
P    1   1.00
      1.5000000              1.0000000
P    1   1.00
      0.3750000              1.0000000
****
B     0
S    6   1.00
   2068.8823000              0.0018663
    310.6495700              0.0142515
     70.6830330              0.0695516
     19.8610800              0.2325729
      6.2993048              0.4670787
      2.1270270              0.3634314
SP   3   1.00
      4.7279710             -0.1303938              0.0745976
      1.1903377             -0.1307889              0.3078467
      0.3594117              1.1309444              0.7434568
SP   1   1.00
      0.1267512              1.0000000              1.0000000
D    1   1.00
      0.8020000              1.0000000
D    1   1.00
      0.2005000              1.0000000
F    1   1.00
      0.5000000              1.0000000
****
C     0
S    6   1.00
   3047.5249000              0.0018347
    457.3695100              0.0140373
    103.9486900              0.0688426
     29.2101550              0.2321844
      9.2866630              0.4679413
      3.1639270              0.3623120
SP   3   1.00
      7.8682724             -0.1193324              0.0689991
      1.8812885             -0.1608542              0.3164240
      0.5442493              1.1434564              0.7443083
SP   1   1.00
      0.1687144              1.0000000              1.0000000
D    1   1.00
      1.2520000              1.0000000
D    1   1.00
      0.3130000              1.0000000
F    1   1.00
      0.8000000              1.0000000
****
N     0
S    6   1.00
   4173.5110000              0.0018348
    627.4579000              0.0139950
    142.9021000              0.0685870
     40.2343300              0.2322410
     12.8202100              0.4690700
      4.3904370              0.3604550
SP   3   1.00
     11.6263580             -0.1149610              0.0675800
      2.7162800             -0.1691180              0.3239070
      0.7722180              1.1458520              0.7408950
SP   1   1.00
      0.2120313              1.0000000              1.0000000
D    1   1.00
      1.8260000              1.0000000
D    1   1.00
      0.4565000              1.0000000
F    1   1.00
      1.0000000              1.0000000
****
O     0
S    6   1.00
   5484.6717000              0.0018311
    825.2349500              0.0139501
    188.0469600              0.0684451
     52.9645000              0.2327143
     16.8975700              0.4701930
      5.7996353              0.3585209
SP   3   1.00
     15.5396160             -0.1107775              0.0708743
      3.5999336             -0.1480263              0.3397528
      1.0137618              1.1307670              0.7271586
SP   1   1.00
      0.2700058              1.0000000              1.0000000
D    1   1.00
      2.5840000              1.0000000
D    1   1.00
      0.6460000              1.0000000
F    1   1.00
      1.4000000              1.0000000
****
F     0
S    6   1.00
   7001.7130900              0.0018196169
   1051.3660900              0.0139160796
    239.2856900              0.0684053245
     67.3974453              0.233185760
     21.5199573              0.471267439
      7.40310130             0.356618546
SP   3   1.00
     20.8479528             -0.108506975            0.0716287243
      4.80830834            -0.146451658            0.3459121030
      1.34406986             1.128688580            0.7224699570
SP   1   1.00
      0.358151393            1.0000000              1.0000000
D    1   1.00
      3.5000000              1.0000000
D    1   1.00
      0.8750000              1.0000000
F    1   1.00
      1.8500000              1.0000000
****
Al     0
S    6   1.00
  13983.1000000              0.00194267
   2098.7500000              0.0148599
    477.7050000              0.0728494
    134.3600000              0.2468300
     42.8709000              0.4872580
     14.5189000              0.3234960
SP   6   1.00
    239.6680000             -0.00292619             0.00460285
     57.4419000             -0.0374080              0.0331990
     18.2859000             -0.1144870              0.1362820
      6.5991400              0.1156350              0.3304760
      2.4904900              0.6125950              0.4491460
      0.9445400              0.3937990              0.2657040
SP   3   1.00
      1.2779000             -0.2276060             -0.0175130
      0.3975900              0.00144583             0.2445330
      0.1600950              1.0927900              0.8049340
SP   1   1.00
      0.0556577              1.0000000              1.0000000
D    1   1.00
      0.6500000              1.0000000
D    1   1.00
      0.1625000              1.0000000
F    1   1.00
      0.2500000              1.0000000
****
Si     0
S    6   1.00
  16115.9000000              0.00195948
   2425.5800000              0.01492880
    553.8670000              0.07284780
    156.3400000              0.24613000
     50.0683000              0.48591400
     17.0178000              0.32500200
SP   6   1.00
    292.7180000             -0.00278094             0.00443826
     69.8731000             -0.03571460             0.03266790
     22.3363000             -0.11498500             0.13472100
      8.1503900              0.09356340             0.32867800
      3.1345800              0.60301700             0.44964000
      1.2254300              0.41895900             0.26137200
SP   3   1.00
      1.7273800             -0.24463000            -0.01779510
      0.5729220              0.00431572             0.25353900
      0.2221920              1.09818000             0.80066900
SP   1   1.00
      0.0778369              1.00000000             1.00000000
D    1   1.00
      0.9000000              1.0000000
D    1   1.00
      0.2250000              1.0000000
F    1   1.00
      0.3200000              1.0000000
****
P     0
S    6   1.00
  19413.3000000              0.0018516
   2909.4200000              0.0142062
    661.3640000              0.0699995
    185.7590000              0.2400790
     59.1943000              0.4847620
     20.0310000              0.3352000
SP   6   1.00
    339.4780000             -0.00278217             0.00456462
     81.0101000             -0.0360499              0.03369360
     25.8780000             -0.1166310              0.13975500
      9.4522100              0.0968328              0.33936200
      3.6656600              0.6144180              0.45092100
      1.4674600              0.4037980              0.23858600
SP   3   1.00
      2.1562300             -0.2529230             -0.01776530
      0.7489970              0.0328517              0.27405800
      0.2831450              1.0812500              0.78542100
SP   1   1.00
      0.0998317              1.0000000              1.00000000
D    1   1.00
      1.1000000              1.0000000
D    1   1.00
      0.2750000              1.0000000
F    1   1.00
      0.4500000              1.0000000
****
S     0
S    6   1.00
  21917.1000000              0.0018690
   3301.4900000              0.0142300
    754.1460000              0.0696960
    212.7110000              0.2384870
     67.9896000              0.4833070
     23.0515000              0.3380740
SP   6   1.00
    423.7350000             -0.0023767              0.0040610
    100.7100000             -0.0316930              0.0306810
     32.1599000             -0.1133170              0.1304520
     11.8079000              0.0560900              0.3272050
      4.6311000              0.5922550              0.4528510
      1.8702500              0.4550060              0.2560420
SP   3   1.00
      2.6158400             -0.2503740             -0.0145110
      0.9221670              0.0669570              0.3102630
      0.3412870              1.0545100              0.7544830
SP   1   1.00
      0.1171670              1.0000000              1.0000000
D    1   1.00
      1.3000000              1.0000000
D    1   1.00
      0.3250000              1.0000000
F    1   1.00
      0.5500000              1.0000000
****
Cl     0
S    6   1.00
  25180.1000000              0.0018330
   3780.3500000              0.0140340
    860.4740000              0.0690970
    242.1450000              0.2374520
     77.3349000              0.4830340
     26.2470000              0.3398560
SP   6   1.00
    491.7650000             -0.0022974              0.0039894
    116.9840000             -0.0307140              0.0303180
     37.4153000             -0.1125280              0.1298800
     13.7834000              0.0450160              0.3279510
      5.4521500              0.5893530              0.4535270
      2.2258800              0.4652060              0.2521540
SP   3   1.00
      3.1864900             -0.2518300             -0.0142990
      1.1442700              0.0615890              0.3235720
      0.4203770              1.0601800              0.7435070
SP   1   1.00
      0.1426570              1.0000000              1.0000000
D    1   1.00
      1.5000000              1.0000000
D    1   1.00
      0.3750000              1.0000000
F    1   1.00
      0.7000000              1.0000000
****
}


set {
reference rhf                          
freeze_core true
e_convergence 10                       
d_convergence 10                      
dft_spherical_points 1202
dft_radial_points 99
}

e = energy('b3lyp')

print_out('Grab this energy {0}'.format(e))
--------------------------------------------------------------------------

  Memory set to  13.039 GiB by Python driver.

Scratch directory: /tmp/

*** tstart() called on n027
*** at Mon Mar 14 19:46:33 2022

   => Loading Basis Set <=

    Name: ANONYMOUS503BEEC0
    Role: ORBITAL
    Keyword: BASIS
    atoms 1-4  entry C          line    48 inputblock 6-31g_2dfp_ 
    atoms 5-12 entry H          line    15 inputblock 6-31g_2dfp_ 


         ---------------------------------------------------------
                                   SCF
               by Justin Turney, Rob Parrish, Andy Simmonett
                          and Daniel G. A. Smith
                              RKS Reference
                        4 Threads,  13351 MiB Core
         ---------------------------------------------------------

  ==> Geometry <==

    Molecular point group: c1
    Full point group: C1

    Geometry (in Bohr), charge = 0, multiplicity = 1:

       Center              X                  Y                   Z               Mass       
    ------------   -----------------  -----------------  -----------------  -----------------
         C            1.440766212217     1.441215925745     0.275629925602    12.000000000000
         C           -1.440700609183    -1.441034428655     0.273125197502    12.000000000000
         C           -1.441157757083     1.440823457745    -0.275631085898    12.000000000000
         C            1.441091415317    -1.440644541355    -0.273124037098    12.000000000000
         H            2.654232191417     2.649231188145    -0.870558134798     1.007825032230
         H            1.806054706417     1.811761789945     2.271047686002     1.007825032230
         H           -2.654424556683    -2.650487360555    -0.869574948698     1.007825032230
         H           -1.805879461383    -1.812653396455     2.271283459602     1.007825032230
         H           -2.649762955283     2.653700688045     0.870558219802     1.007825032230
         H           -1.812290528183     1.805523394745    -2.271047429098     1.007825032230
         H            2.649956965717    -2.654954690955     0.869574864602     1.007825032230
         H            1.812122433917    -1.806412994455    -2.271283718698     1.007825032230

  Running in c1 symmetry.

  Rotational constants: A =      0.35691  B =      0.35691  C =      0.21316 [cm^-1]
  Rotational constants: A =  10699.88864  B =  10699.88695  C =   6390.29283 [MHz]
  Nuclear repulsion =  127.112871307784815

  Charge       = 0
  Multiplicity = 1
  Electrons    = 32
  Nalpha       = 16
  Nbeta        = 16

  ==> Algorithm <==

  SCF Algorithm Type is DF.
  DIIS enabled.
  MOM disabled.
  Fractional occupation disabled.
  Guess Type is SAD.
  Energy threshold   = 1.00e-10
  Density threshold  = 1.00e-10
  Integral threshold = 0.00e+00

  ==> Primary Basis <==

  Basis Set: ANONYMOUS503BEEC0
    Blend: 6-31G_2DFP_
    Number of shells: 64
    Number of basis function: 168
    Number of Cartesian functions: 188
    Spherical Harmonics?: true
    Max angular momentum: 3

  ==> DFT Potential <==

   => Composite Functional: B3LYP <= 

    B3LYP Hyb-GGA Exchange-Correlation Functional

    P. J. Stephens, F. J. Devlin, C. F. Chabalowski, and M. J. Frisch, J. Phys. Chem. 98, 11623 (1994)

    Deriv               =              1
    GGA                 =           TRUE
    Meta                =          FALSE

    Exchange Hybrid     =           TRUE
    MP2 Hybrid          =          FALSE

   => Exchange Functionals <=

    0.0800   Slater exchange
    0.7200         Becke 88

   => Exact (HF) Exchange <=

    0.2000               HF 

   => Correlation Functionals <=

    0.1900   Vosko, Wilk & Nusair (VWN5_RPA)
    0.8100   Lee, Yang & Parr

   => Molecular Quadrature <=

    Radial Scheme          =       TREUTLER
    Pruning Scheme         =           NONE
    Nuclear Scheme         =       TREUTLER

    BS radius alpha        =              1
    Pruning alpha          =              1
    Radial Points          =             99
    Spherical Points       =           1202
    Total Points           =        1325068
    Total Blocks           =           8848
    Max Points             =            256
    Max Functions          =            168
    Weights Tolerance      =       1.00E-15

   => Loading Basis Set <=

    Name: (ANONYMOUS503BEEC0 AUX)
    Role: JKFIT
    Keyword: DF_BASIS_SCF
    atoms 1-4  entry C          line   198 file /opt/psi/4/master/share/psi4/basis/def2-universal-jkfit.gbs 
    atoms 5-12 entry H          line    18 file /opt/psi/4/master/share/psi4/basis/def2-universal-jkfit.gbs 

  ==> Integral Setup <==

  DFHelper Memory: AOs need 0.101 GiB; user supplied 4.301 GiB. Using in-core AOs.

  ==> MemDFJK: Density-Fitted J/K Matrices <==

    J tasked:                   Yes
    K tasked:                   Yes
    wK tasked:                   No
    OpenMP threads:               4
    Memory [MiB]:              4403
    Algorithm:                 Core
    Schwarz Cutoff:           1E-12
    Mask sparsity (%):       0.4677
    Fitting Condition:        1E-10

   => Auxiliary Basis Set <=

  Basis Set: (ANONYMOUS503BEEC0 AUX)
    Blend: DEF2-UNIVERSAL-JKFIT
    Number of shells: 148
    Number of basis function: 444
    Number of Cartesian functions: 516
    Spherical Harmonics?: true
    Max angular momentum: 4

  Cached 100.0% of DFT collocation blocks in 5.478 [GiB].

  Minimum eigenvalue in the overlap matrix is 7.9849754009E-04.
  Reciprocal condition number of the overlap matrix is 1.2087274736E-04.
    Using symmetric orthogonalization.

  ==> Pre-Iterations <==

  SCF Guess: Superposition of Atomic Densities via on-the-fly atomic UHF (no occupation information).

   -------------------------
    Irrep   Nso     Nmo    
   -------------------------
     A        168     168 
   -------------------------
    Total     168     168
   -------------------------

  ==> Iterations <==

                           Total Energy        Delta E     RMS |[F,P]|

   @DF-RKS iter SAD:  -156.73732548668204   -1.56737e+02   0.00000e+00 
   @DF-RKS iter   1:  -156.89080912636521   -1.53484e-01   4.62557e-03 DIIS
   @DF-RKS iter   2:  -156.63748553806710    2.53324e-01   6.20802e-03 DIIS
   @DF-RKS iter   3:  -157.22537053073566   -5.87885e-01   3.44906e-04 DIIS
   @DF-RKS iter   4:  -157.22681421945882   -1.44369e-03   6.29834e-05 DIIS
   @DF-RKS iter   5:  -157.22687006743072   -5.58480e-05   5.51174e-06 DIIS
   @DF-RKS iter   6:  -157.22687053148204   -4.64051e-07   6.13687e-07 DIIS
   @DF-RKS iter   7:  -157.22687053370265   -2.22062e-09   4.81331e-07 DIIS
   @DF-RKS iter   8:  -157.22687053698513   -3.28248e-09   3.22622e-08 DIIS
   @DF-RKS iter   9:  -157.22687053700082   -1.56888e-11   2.58212e-09 DIIS
   @DF-RKS iter  10:  -157.22687053700056    2.55795e-13   2.27981e-10 DIIS
   @DF-RKS iter  11:  -157.22687053700042    1.42109e-13   1.71660e-11 DIIS
  Energy and wave function converged.


  ==> Post-Iterations <==

    Orbital Energies [Eh]
    ---------------------

    Doubly Occupied:                                                      

       1A    -10.170989     2A    -10.170882     3A    -10.170879  
       4A    -10.170762     5A     -0.833955     6A     -0.649128  
       7A     -0.649127     8A     -0.544127     9A     -0.472136  
      10A     -0.469320    11A     -0.379389    12A     -0.379388  
      13A     -0.344064    14A     -0.313015    15A     -0.300192  
      16A     -0.300190  

    Virtual:                                                              

      17A      0.082049    18A      0.097223    19A      0.122514  
      20A      0.122514    21A      0.164271    22A      0.183963  
      23A      0.183964    24A      0.194188    25A      0.194188  
      26A      0.211446    27A      0.226519    28A      0.302875  
      29A      0.381863    30A      0.419916    31A      0.439595  
      32A      0.439596    33A      0.448702    34A      0.472698  
      35A      0.475247    36A      0.502309    37A      0.502309  
      38A      0.544912    39A      0.544912    40A      0.600300  
      41A      0.617440    42A      0.620362    43A      0.620372  
      44A      0.629207    45A      0.633872    46A      0.652673  
      47A      0.652674    48A      0.664349    49A      0.712612  
      50A      0.751965    51A      0.822268    52A      0.858925  
      53A      0.858925    54A      0.907071    55A      0.907071  
      56A      0.993871    57A      1.019751    58A      1.094008  
      59A      1.097215    60A      1.097244    61A      1.110349  
      62A      1.132102    63A      1.158433    64A      1.158434  
      65A      1.171231    66A      1.210218    67A      1.241259  
      68A      1.241260    69A      1.268753    70A      1.361584  
      71A      1.362724    72A      1.367298    73A      1.404037  
      74A      1.404045    75A      1.426481    76A      1.431302  
      77A      1.431313    78A      1.466685    79A      1.466689  
      80A      1.486835    81A      1.566347    82A      1.577755  
      83A      1.577756    84A      1.591761    85A      1.644678  
      86A      1.723291    87A      1.758603    88A      1.758607  
      89A      1.922830    90A      1.922858    91A      1.926389  
      92A      1.928675    93A      2.249759    94A      2.249762  
      95A      2.250515    96A      2.429814    97A      2.612337  
      98A      2.685081    99A      2.774937   100A      2.774937  
     101A      2.775676   102A      2.798747   103A      2.833899  
     104A      2.921889   105A      2.921895   106A      2.958157  
     107A      3.088832   108A      3.088859   109A      3.089927  
     110A      3.149819   111A      3.151393   112A      3.200739  
     113A      3.200749   114A      3.223205   115A      3.318358  
     116A      3.335646   117A      3.335651   118A      3.473850  
     119A      3.475031   120A      3.475138   121A      3.514199  
     122A      3.514202   123A      3.618909   124A      3.619037  
     125A      3.632371   126A      3.632378   127A      3.658181  
     128A      3.709593   129A      3.713028   130A      3.792525  
     131A      3.890776   132A      3.890777   133A      3.996555  
     134A      3.996556   135A      4.057393   136A      4.068090  
     137A      4.075072   138A      4.122727   139A      4.122757  
     140A      4.133560   141A      4.134192   142A      4.230209  
     143A      4.230217   144A      4.280662   145A      4.344813  
     146A      4.391802   147A      4.391821   148A      4.418922  
     149A      4.418927   150A      4.466088   151A      4.490169  
     152A      4.535914   153A      4.536126   154A      4.542201  
     155A      4.593119   156A      4.605257   157A      4.780582  
     158A      4.811339   159A      4.914424   160A      4.914436  
     161A      5.075065   162A      5.118880   163A      5.179318  
     164A      5.179321   165A      5.261606   166A      5.315952  
     167A      5.315957   168A      5.381298  

    Final Occupation by Irrep:
              A 
    DOCC [    16 ]

  @DF-RKS Final Energy:  -157.22687053700042

   => Energetics <=

    Nuclear Repulsion Energy =            127.1128713077848147
    One-Electron Energy =                -461.6479560069807349
    Two-Electron Energy =                 197.3323245363901037
    DFT Exchange-Correlation Energy =     -20.0241103741946063
    Empirical Dispersion Energy =           0.0000000000000000
    VV10 Nonlocal Energy =                  0.0000000000000000
    Total Energy =                       -157.2268705370004227

Computation Completed


Properties will be evaluated at   0.000000,   0.000000,   0.000000 [a0]

Properties computed using the SCF density matrix

  Nuclear Dipole Moment: [e a0]
     X:     0.0000      Y:    -0.0021      Z:    -0.0000

  Electronic Dipole Moment: [e a0]
     X:    -0.0000      Y:     0.0022      Z:     0.0000

  Dipole Moment: [e a0]
     X:    -0.0000      Y:     0.0001      Z:     0.0000     Total:     0.0001

  Dipole Moment: [D]
     X:    -0.0000      Y:     0.0003      Z:     0.0000     Total:     0.0003


*** tstop() called on n027 at Mon Mar 14 19:47:03 2022
Module time:
	user time   =     117.77 seconds =       1.96 minutes
	system time =       1.26 seconds =       0.02 minutes
	total time  =         30 seconds =       0.50 minutes
Total time:
	user time   =     117.77 seconds =       1.96 minutes
	system time =       1.26 seconds =       0.02 minutes
	total time  =         30 seconds =       0.50 minutes
Grab this energy -157.22687053700042
    Psi4 stopped on: Monday, 14 March 2022 07:47PM
    Psi4 wall time for execution: 0:00:30.59

*** Psi4 exiting successfully. Buy a developer a beer!
