
 Primary working directories    : /tmp/1047041.538.gen4.q
 Secondary working directories  : /tmp/1047041.538.gen4.q
 Wavefunction directory         : /home/vulcan/mel64643/wfu/
 Main file repository           : /tmp/1047041.538.gen4.q/

 ARCHNAME  : Linux/x86_64
 FC        : /opt/intel/compilers_and_libraries_2016.1.150/linux/bin/intel64/ifort
 FCVERSION : 16.0.1
 BLASLIB   : -mkl
 id        : ccgc

 Nodes     nprocs
 n062         1
 ga_uses_ma=false, calling ma_init with nominal heap.
 GA-space will be limited to   8.0 MW (determined by -G option)

 Using customized tuning parameters: mindgm=10; mindgv=16; mindgc=4; mindgr=1; noblas=0; mincuda=1000; minvec=7
 default implementation of scratch files=df  

 ***,Optimization of ben_hcn
 memory,1000,m
 gthresh,energy=1.0d-12,orbital=1.0d-10,oneint=1.0d-16,twoint=1.0d-16,optgrad=1.0d-6,compress=1.0d-13
 geomtyp=xyz
 
 
 
 bohr
 geometry = {
  C   -1.8845659678    1.3694737849    2.2861010309
  C   -1.8574743309    2.6901928666   -0.0037665710
  C   -1.8748927931    1.3676099971   -2.2926371346
  C   -1.9193656212   -1.2754816880   -2.2915564924
  C   -1.9464434670   -2.5960180671   -0.0018193994
  C   -1.9290179479   -1.2736373667    2.2869593012
  H   -1.8652105609    2.3959561270    4.0628614126
  H   -1.8174570354    4.7336923708    0.0027010326
  H   -1.8479614793    2.3863463080   -4.0737461579
  H   -1.9264017338   -2.2980806498   -4.0611909074
  H   -1.9742874821   -4.6478354760   -0.0082902726
  H   -1.9434768040   -2.2885607866    4.0609670201
  N    6.6241462173   -0.1990538308    0.0073721989
  C    4.4344425456   -0.0759547666    0.0101989564
  H    2.4147677072    0.0378747252    0.0129464966
 }
 
 basis=aug-cc-pvdz, H=cc-pvdz
 {rhf;maxit,200}
 {ccsd(t)}

 Variables initialized (661), CPU time= 0.01 sec
 Commands  initialized (458), CPU time= 0.00 sec, 486 directives.
 Default parameters read. Elapsed time= 0.05 sec

 Checking input...
 Passed
1


                                         ***  PROGRAM SYSTEM MOLPRO  ***
                         Copyright, University College Cardiff Consultants Limited, 2008

                                    Version 2010.1 linked May 16 2016 07:17:05


 **********************************************************************************************************************************
 LABEL *   Optimization of ben_hcn                                                       
 Linux-4.4.3/n062(x86_64) 64 bit mpp version                                             DATE: 07-Mar-24          TIME: 17:10:07  
 **********************************************************************************************************************************

 SHA1:             9e8077add272b0f3cad6f7df79ec5211205f459d
 **********************************************************************************************************************************

 THRESHOLDS:

 ZERO    =  1.00D-12  ONEINT  =  1.00D-16  TWOINT  =  1.00D-16  PREFAC  =  1.00D-14  LOCALI  =  1.00D-09  EORDER  =  1.00D-04
 ENERGY  =  1.00D-12  ETEST   =  0.00D+00  EDENS   =  0.00D+00  THRDEDEF=  1.00D-06  GRADIENT=  1.00D-02  STEP    =  1.00D-03
 ORBITAL =  1.00D-10  CIVEC   =  1.00D-05  COEFF   =  1.00D-04  PRINTCI =  5.00D-02  PUNCHCI =  9.90D+01  OPTGRAD =  1.00D-06
 OPTENERG=  1.00D-06  OPTSTEP =  3.00D-04  THRGRAD =  1.00D-10  COMPRESS=  1.00D-13  VARMIN  =  1.00D-07  VARMAX  =  1.00D-03
 THRDOUB =  0.00D+00  THRDIV  =  1.00D-05  THRRED  =  1.00D-07  THRPSP  =  1.00D+00  THRDC   =  1.00D-10  THRCS   =  1.00D-10
 THRNRM  =  1.00D-08  THREQ   =  0.00D+00  THRDE   =  1.00D+00  THRREF  =  1.00D-05  SPARFAC =  1.00D+00  THRDLP  =  1.00D-07
 THRDIA  =  1.00D-10  THRDLS  =  1.00D-07  THRGPS  =  0.00D+00  THRKEX  =  0.00D+00  THRDIS  =  2.00D-01  THRVAR  =  1.00D-10
 THRLOC  =  1.00D-06  THRGAP  =  1.00D-06  THRLOCT = -1.00D+00  THRGAPT = -1.00D+00  THRORB  =  1.00D-06  THRMLTP =  0.00D+00
 THRCPQCI=  1.00D-10  KEXTA   =  0.00D+00  THRCOARS=  0.00D+00  SYMTOL  =  1.00D-06  GRADTOL =  1.00D-06  THROVL  =  1.00D-08
 THRORTH =  1.00D-08  GRID    =  1.00D-06  GRIDMAX =  1.00D-03  DTMAX   =  0.00D+00

 SETTING GEOMTYP        =    XYZ
 ZUNIT=BOHR
 

 Variable memory set to 1000000000 words,  buffer space   230000 words

 SETTING BASIS          =    AUG-CC-PVDZ,H=CC-PVDZ


 Recomputing integrals since basis changed


 Using spherical harmonics

 Library entry C      S aug-cc-pVDZ          selected for orbital group  1
 Library entry C      P aug-cc-pVDZ          selected for orbital group  1
 Library entry C      D aug-cc-pVDZ          selected for orbital group  1
 Library entry H      S cc-pVDZ              selected for orbital group  2
 Library entry H      P cc-pVDZ              selected for orbital group  2
 Library entry N      S aug-cc-pVDZ          selected for orbital group  3
 Library entry N      P aug-cc-pVDZ          selected for orbital group  3
 Library entry N      D aug-cc-pVDZ          selected for orbital group  3

1PROGRAM * SEWARD (Integral evaluation for generally contracted gaussian basis sets)     Author: Roland Lindh, 1990

 Geometry written to block  1 of record 700


 Point group  C1  



 ATOMIC COORDINATES

 NR  ATOM    CHARGE       X              Y              Z

   1  C       6.00   -1.884565968    1.369473785    2.286101031
   2  C       6.00   -1.857474331    2.690192867   -0.003766571
   3  C       6.00   -1.874892793    1.367609997   -2.292637135
   4  C       6.00   -1.919365621   -1.275481688   -2.291556492
   5  C       6.00   -1.946443467   -2.596018067   -0.001819399
   6  C       6.00   -1.929017948   -1.273637367    2.286959301
   7  H       1.00   -1.865210561    2.395956127    4.062861413
   8  H       1.00   -1.817457035    4.733692371    0.002701033
   9  H       1.00   -1.847961479    2.386346308   -4.073746158
  10  H       1.00   -1.926401734   -2.298080650   -4.061190907
  11  H       1.00   -1.974287482   -4.647835476   -0.008290273
  12  H       1.00   -1.943476804   -2.288560787    4.060967020
  13  N       7.00    6.624146217   -0.199053831    0.007372199
  14  C       6.00    4.434442546   -0.075954767    0.010198956
  15  H       1.00    2.414767707    0.037874725    0.012946497

 Bond lengths in Bohr (Angstrom)

 1-2  2.643582131  1-6  2.643485062  1-7  2.052052164  2-3  2.643569047  2-8  2.043901523
     ( 1.398923414)     ( 1.398872047)     ( 1.085899237)     ( 1.398916490)     ( 1.081586104)

  3- 4  2.643466031   3- 9  2.052047348   4- 5  2.643377668   4-10  2.043860099   5- 6  2.643388414
       ( 1.398861976)       ( 1.085896689)       ( 1.398815216)       ( 1.081564183)       ( 1.398820903)

  5-11  2.052016530   6-12  2.043864475  13-14  2.193162908  14-15  2.022881893
       ( 1.085880380)       ( 1.081566499)       ( 1.160571826)       ( 1.070462995)

 Bond angles

  1- 2- 3  119.99746549   1- 2- 8  119.79880922   1- 6- 5  120.00123549   1- 6-12  119.79520439

  2-1-6  119.99850417   2-1-7  119.99930035   2-3-4  119.99920944   2-3-9  120.20181967

  3- 2- 8  120.20347503   3- 4- 5  120.00130473   3- 4-10  119.99737974   4- 3- 9  119.79868541

  4- 5- 6  120.00228067   4- 5-11  119.79663509   5- 4-10  120.00098990   5- 6-12  120.20324188

  6- 1- 7  120.00192397   6- 5-11  120.20073267  13-14-15  179.99091354

 NUCLEAR CHARGE:                   56
 NUMBER OF PRIMITIVE AOS:         345
 NUMBER OF SYMMETRY AOS:          329
 NUMBER OF CONTRACTIONS:          219   ( 219A   )
 NUMBER OF CORE ORBITALS:           8   (   8A   )
 NUMBER OF VALENCE ORBITALS:       39   (  39A   )


 NUCLEAR REPULSION ENERGY  303.39348006


 Eigenvalues of metric

         1 0.864E-05 0.186E-04 0.229E-04 0.534E-04 0.628E-04 0.633E-04 0.929E-04 0.930E-04


 Contracted 2-electron integrals neglected if value below      1.0D-16
 AO integral compression algorithm  1   Integral accuracy      1.0D-16

     2340.422 MB (compressed) written to integral file ( 91.2%)

     Node minimum: 2340.422 MB, node maximum: 2340.422 MB


 NUMBER OF SORTED TWO-ELECTRON INTEGRALS:  290176095.     BUFFER LENGTH:  32768
 NUMBER OF SEGMENTS:  19  SEGMENT LENGTH:   15999762      RECORD LENGTH: 524288

 Memory used in sort:      16.56 MW

 SORT1 READ   320642736. AND WROTE   287603380. INTEGRALS IN    832 RECORDS. CPU TIME:     3.23 SEC, REAL TIME:     5.23 SEC
 SORT2 READ   287603380. AND WROTE   290176095. INTEGRALS IN   8928 RECORDS. CPU TIME:     1.92 SEC, REAL TIME:     3.92 SEC

 FILE SIZES:   FILE 1:  2151.4 MBYTE,  FILE 4:  3489.7 MBYTE,   TOTAL:   5641.1 MBYTE

 OPERATOR DM      FOR CENTER  0  COORDINATES:    0.000000    0.000000    0.000000


 **********************************************************************************************************************************
 DATASETS  * FILE   NREC   LENGTH (MB)   RECORD NAMES
              1      19     2152.03       500      610      700      900      950      970     1000      129      960     1100   
                                          VAR    BASINP    GEOM    SYMINP    ZMAT    AOBASIS   BASIS     P2S    ABASIS      S 
                                         1400     1410     1200     1210     1080     1600     1650     1300     1700   
                                           T        V       H0       H01     AOSYM     SMH    MOLCAS    ERIS     OPER   

 PROGRAMS   *        TOTAL       INT
 CPU TIMES  *        18.25     18.20
 REAL TIME  *        23.78 SEC
 DISK USED  *         7.98 GB      
 GA USED    *         0.01 MB       (max)       0.00 MB       (current)
 **********************************************************************************************************************************

1PROGRAM * RHF-SCF (CLOSED SHELL)       Authors: W. Meyer, H.-J. Werner


 NUMBER OF ELECTRONS:      28+   28-    SPACE SYMMETRY=1    SPIN SYMMETRY: Singlet 
 CONVERGENCE THRESHOLDS:    1.00E-10 (Density)    1.00E-13 (Energy)
 MAX. NUMBER OF ITERATIONS:      200
 INTERPOLATION TYPE:            DIIS
 INTERPOLATION STEPS:              2 (START)      1 (STEP)
 LEVEL SHIFTS:                  0.00 (CLOSED)  0.00 (OPEN) 



 Orbital guess generated from atomic densities. Full valence occupancy:   47

 Molecular orbital dump at record        2100.2

 ITERATION    DDIFF          GRAD             ENERGY        2-EL.EN.            DIPOLE MOMENTS         DIIS
    1      0.000D+00      0.000D+00      -323.54135864    822.123768   -1.89880    0.10257    0.00209    0
    2      0.000D+00      0.292D-02      -323.59779902    819.103374   -1.36877    0.04985   -0.00069    1
    3      0.781D-02      0.179D-02      -323.61439493    820.248532   -1.72960    0.07898    0.00059    2
    4      0.260D-02      0.576D-03      -323.61673134    820.450208   -1.63887    0.07176    0.00027    3
    5      0.963D-03      0.133D-03      -323.61686068    820.190229   -1.66281    0.07246    0.00025    4
    6      0.223D-03      0.229D-04      -323.61686681    820.217093   -1.66416    0.07242    0.00024    5
    7      0.845D-04      0.435D-05      -323.61686701    820.212209   -1.66451    0.07235    0.00023    6
    8      0.108D-04      0.124D-05      -323.61686703    820.213202   -1.66482    0.07241    0.00023    7
    9      0.348D-05      0.277D-06      -323.61686703    820.213235   -1.66479    0.07236    0.00023    6
   10      0.862D-06      0.808D-07      -323.61686703    820.213213   -1.66479    0.07240    0.00023    6
   11      0.227D-06      0.463D-07      -323.61686703    820.213229   -1.66479    0.07238    0.00023    7
   12      0.132D-06      0.187D-07      -323.61686703    820.213223   -1.66479    0.07238    0.00023    7
   13      0.773D-07      0.887D-08      -323.61686703    820.213227   -1.66479    0.07238    0.00023    8
   14      0.535D-07      0.355D-08      -323.61686703    820.213223   -1.66479    0.07238    0.00023    8
   15      0.209D-07      0.115D-08      -323.61686703    820.213225   -1.66479    0.07238    0.00023    9
   16      0.410D-08      0.169D-09      -323.61686703    820.213225   -1.66479    0.07238    0.00023    9
   17      0.823D-09      0.546D-10      -323.61686703    820.213225   -1.66479    0.07238    0.00023    8
   18      0.389D-09      0.147D-10      -323.61686703    820.213225   -1.66479    0.07238    0.00023    8
   19      0.210D-09      0.601D-11      -323.61686703    820.213225   -1.66479    0.07238    0.00023    8
   20      0.131D-09      0.205D-11      -323.61686703    820.213225   -1.66479    0.07238    0.00023    7
   21      0.109D-09      0.130D-11      -323.61686703    820.213225   -1.66479    0.07238    0.00023    8
   22      0.999D-10      0.962D-12      -323.61686703    820.213225   -1.66479    0.07238    0.00023    0

 Final occupancy:  28

 !RHF STATE 1.1 Energy               -323.616867031770
 Nuclear energy                       303.39348006
 One-electron energy                -1037.11695944
 Two-electron energy                  410.10661234
 Virial quotient                       -1.00170982
 !RHF STATE 1.1 Dipole moment          -1.66478791     0.07238361     0.00023201
 Dipole moment /Debye                  -4.23119165     0.18396874     0.00058967

 Orbital energies:

         1.1          2.1          3.1          4.1          5.1          6.1          7.1          8.1          9.1         10.1
    -15.591649   -11.283865   -11.266274   -11.265763   -11.265711   -11.264528   -11.264428   -11.263899    -1.218335    -1.173918

        11.1         12.1         13.1         14.1         15.1         16.1         17.1         18.1         19.1         20.1
     -1.037879    -1.037699    -0.845990    -0.845450    -0.789909    -0.729370    -0.664867    -0.639200    -0.608559    -0.608557

        21.1         22.1         23.1         24.1         25.1         26.1         27.1         28.1         29.1         30.1
     -0.565229    -0.520375    -0.515193    -0.514509    -0.475691    -0.475686    -0.359671    -0.359663     0.055869     0.060060


 **********************************************************************************************************************************
 DATASETS  * FILE   NREC   LENGTH (MB)   RECORD NAMES
              1      19     2152.03       500      610      700      900      950      970     1000      129      960     1100   
                                          VAR    BASINP    GEOM    SYMINP    ZMAT    AOBASIS   BASIS     P2S    ABASIS      S 
                                         1400     1410     1200     1210     1080     1600     1650     1300     1700   
                                           T        V       H0       H01     AOSYM     SMH    MOLCAS    ERIS     OPER   

              2       3        1.49       700     1000     2100   
                                         GEOM     BASIS     RHF  

 PROGRAMS   *        TOTAL       RHF       INT
 CPU TIMES  *        68.83     50.58     18.20
 REAL TIME  *        79.63 SEC
 DISK USED  *         7.98 GB      
 GA USED    *         0.01 MB       (max)       0.00 MB       (current)
 **********************************************************************************************************************************


1PROGRAM * CCSD (Closed-shell coupled cluster)     Authors: C. Hampel, H.-J. Werner, 1991, M. Deegan, P.J. Knowles, 1992


 Convergence thresholds:  THRVAR = 1.00D-08  THRDEN = 1.00D-12

 CCSD(T)     terms to be evaluated (factor= 1.000)


 Number of core orbitals:           8 (   8 )
 Number of closed-shell orbitals:  20 (  20 )
 Number of external orbitals:     191 ( 191 )

 Molecular orbitals read from record     2100.2  Type=RHF/CANONICAL (state 1.1)

 Number of N-1 electron functions:              20
 Number of N-2 electron functions:             210
 Number of singly external CSFs:              3820
 Number of doubly external CSFs:           7298110
 Total number of CSFs:                     7301931

 Length of J-op  integral file:               0.00 MB
 Length of K-op  integral file:               3.32 MB
 Length of 3-ext integral record:             0.00 MB

 Memory could be reduced to 174.82 Mwords without degradation in triples

 Integral transformation finished. Total CPU:  19.02 sec, npass=  1  Memory used: 128.13 MW

 Reference energy:                   -323.61686703

 MP2 singlet pair energy:              -0.67334340
 MP2 triplet pair energy:              -0.43519831
 MP2 correlation energy:               -1.10854171
 MP2 total energy:                   -324.72540874

 SCS-MP2 correlation energy:           -1.07880214   (PS=  1.200000  PT=  0.333333)
 SCS-MP2 total energy:               -324.69566917

 ITER.      SQ.NORM     CORR.ENERGY   TOTAL ENERGY   ENERGY CHANGE        DEN1      VAR(S)    VAR(P)  DIIS     TIME
   1      1.42873359    -1.14462381  -324.76149084    -0.03608210    -0.00288969  0.51D-02  0.99D-02  1  1    71.17
   2      1.46305620    -1.15049730  -324.76736433    -0.00587349    -0.03103161  0.83D-04  0.13D-02  2  2   123.72
   3      1.47634793    -1.15094500  -324.76781203    -0.00044769    -0.00655946  0.40D-04  0.12D-03  3  3   176.27
   4      1.48204005    -1.15119469  -324.76806172    -0.00024969    -0.00178582  0.22D-05  0.15D-04  4  4   228.82
   5      1.48356943    -1.15123038  -324.76809742    -0.00003569    -0.00036590  0.25D-06  0.14D-05  5  5   281.38
   6      1.48387561    -1.15122187  -324.76808890     0.00000852    -0.00005025  0.24D-07  0.91D-07  6  6   333.95
   7      1.48391040    -1.15122528  -324.76809231    -0.00000341    -0.00000225  0.34D-08  0.80D-08  6  2   386.55
   8      1.48391507    -1.15122563  -324.76809267    -0.00000036    -0.00000042  0.41D-09  0.83D-09  6  1   439.12
   9      1.48391529    -1.15122580  -324.76809283    -0.00000017     0.00000079  0.63D-10  0.78D-10  6  3   491.69
  10      1.48391567    -1.15122586  -324.76809289    -0.00000006     0.00000002  0.10D-10  0.99D-11  6  4   544.30
  11      1.48391539    -1.15122590  -324.76809293    -0.00000004     0.00000022  0.16D-11  0.14D-11  6  5   596.89
  12      1.48391523    -1.15122591  -324.76809294    -0.00000001     0.00000008  0.25D-12  0.27D-12  6  6   649.42
  13      1.48391509    -1.15122591  -324.76809294    -0.00000000     0.00000005  0.14D-13  0.52D-13  6  2   702.01
  14      1.48391503    -1.15122591  -324.76809295    -0.00000000     0.00000002  0.22D-14  0.94D-14  6  1   754.58
  15      1.48391501    -1.15122591  -324.76809295     0.00000000     0.00000001  0.46D-15  0.13D-14  6  3   807.17
  16      1.48391500    -1.15122591  -324.76809295    -0.00000000     0.00000000  0.98D-16  0.19D-15  6  4   859.73
  17      1.48391499    -1.15122591  -324.76809295    -0.00000000     0.00000000  0.19D-16  0.28D-16  6  5   912.29
  18      1.48391499    -1.15122591  -324.76809295    -0.00000000     0.00000000  0.37D-17  0.36D-17  6  6   964.90
  19      1.48391499    -1.15122591  -324.76809295    -0.00000000     0.00000000  0.82D-18  0.60D-18  6  2  1017.49
  20      1.48391499    -1.15122591  -324.76809295    -0.00000000     0.00000000  0.18D-18  0.13D-18  6  1  1070.07
  21      1.48391499    -1.15122591  -324.76809295    -0.00000000     0.00000000  0.61D-19  0.36D-19  6  3  1122.63
  22      1.48391499    -1.15122591  -324.76809295     0.00000000     0.00000000  0.30D-19  0.17D-19  6  4  1175.22

 Norm of t1 vector:      0.09773668      S-energy:    -0.00000000      T1 diagnostic:  0.01092729
                                                                       D1 diagnostic:  0.02771759

 Doubles amplitudes (print threshold =  0.500E-01):

         I         J         SYM. A    SYM. B    A         B      T(IJ, AB)

        19        19         1         1         7         7     -0.05835417
        20        20         1         1         8         8     -0.05831670


 Total CPU time for triples:   1084.58 sec


 RESULTS
 =======

  Reference energy                   -323.616867031774
  CCSD singlet pair energy             -0.770020496739
  CCSD triplet pair energy             -0.381205416539
  CCSD correlation energy              -1.151225913279

  Triples (T) contribution             -0.054015641022
  Total correlation energy             -1.205241554300

  CCSD total energy                  -324.768092945052
  CCSD[T] energy                     -324.823440905613
  CCSD-T energy                      -324.821503105264
 !CCSD(T) total energy               -324.822108586074

 Timing summary (sec):

 STEP                 CPU(USER)    SYS     CPU(TOT)    WALL
 Transformation         19.57      1.15     20.72     20.72
 CCSD iterations      1155.68     14.63   1170.31   1170.53
 Triples              1084.58     15.41   1099.99   1100.14

 Program statistics:

 Available memory in ccsd:               999998300
 Min. memory needed in ccsd:              17709720
 Max. memory used in ccsd:                24415330
 Max. memory used in cckext:              20754978 (22 integral passes)



 **********************************************************************************************************************************
 DATASETS  * FILE   NREC   LENGTH (MB)   RECORD NAMES
              1      20     2834.19       500      610      700      900      950      970     1000      129      960     1100   
                                          VAR    BASINP    GEOM    SYMINP    ZMAT    AOBASIS   BASIS     P2S    ABASIS      S 
                                         1400     1410     1200     1210     1080     1600     1650     1300     1700     1380   
                                           T        V       H0       H01     AOSYM     SMH    MOLCAS    ERIS     OPER     JKOP   

              2       3        1.49       700     1000     2100   
                                         GEOM     BASIS     RHF  

 PROGRAMS   *        TOTAL   CCSD(T)       RHF       INT
 CPU TIMES  *      2328.66   2259.83     50.58     18.20
 REAL TIME  *      2371.15 SEC
 DISK USED  *         7.98 GB      
 GA USED    *         0.01 MB       (max)       0.00 MB       (current)
 **********************************************************************************************************************************

        CCSD(T)         RHF-SCF 
   -324.82210859   -323.61686703
 **********************************************************************************************************************************
 Variable memory released
