
 Primary working directories    : /tmp/1005295.421.gen4.q
 Secondary working directories  : /tmp/1005295.421.gen4.q
 Wavefunction directory         : /home/vulcan/mel64643/wfu/
 Main file repository           : /tmp/1005295.421.gen4.q/

 ARCHNAME  : Linux/x86_64
 FC        : /opt/intel/compilers_and_libraries_2016.1.150/linux/bin/intel64/ifort
 FCVERSION : 16.0.1
 BLASLIB   : -mkl
 id        : ccgc

 Nodes     nprocs
 n056         1
 ga_uses_ma=false, calling ma_init with nominal heap.
 GA-space will be limited to   8.0 MW (determined by -G option)

 Using customized tuning parameters: mindgm=10; mindgv=16; mindgc=4; mindgr=1; noblas=0; mincuda=1000; minvec=7
 default implementation of scratch files=df  

 ***,Optimization of formic acid
 memory,1000,m
 gthresh,energy=1.0d-12,orbital=1.0d-10,oneint=1.0d-16,twoint=1.0d-16,optgrad=1.0d-6,compress=1.0d-13
 geomtyp=xyz
 
 
 
 bohr
 geometry = {
  C   -3.5007029048   -0.8273228407   -0.0000000000
  O   -3.0999814832    1.6270429506   -0.0000000000
  O   -1.8817589878   -2.4741230474   -0.0000000000
  H   -5.5189387555   -1.2744913875   -0.0000000000
  H   -1.2462424523    1.9494770443    0.0000000000
  C    3.5007029048    0.8273228407    0.0000000000
  O    3.0999814832   -1.6270429506   -0.0000000000
  O    1.8817589878    2.4741230474    0.0000000000
  H    5.5189387555    1.2744913875   -0.0000000000
  H    1.2462424523   -1.9494770443   -0.0000000000
 }
 
 basis=AVDZ, H=VDZ
 {rhf;maxit,200}
 {ccsd(t);maxit,200}

 Variables initialized (661), CPU time= 0.01 sec
 Commands  initialized (458), CPU time= 0.00 sec, 486 directives.
 Default parameters read. Elapsed time= 0.05 sec

 Checking input...
 Passed
1


                                         ***  PROGRAM SYSTEM MOLPRO  ***
                         Copyright, University College Cardiff Consultants Limited, 2008

                                    Version 2010.1 linked May 16 2016 07:17:05


 **********************************************************************************************************************************
 LABEL *   Optimization of formic acid                                                   
 Linux-4.4.3/n056(x86_64) 64 bit mpp version                                             DATE: 19-Feb-24          TIME: 20:47:52  
 **********************************************************************************************************************************

 SHA1:             9e8077add272b0f3cad6f7df79ec5211205f459d
 **********************************************************************************************************************************

 THRESHOLDS:

 ZERO    =  1.00D-12  ONEINT  =  1.00D-16  TWOINT  =  1.00D-16  PREFAC  =  1.00D-14  LOCALI  =  1.00D-09  EORDER  =  1.00D-04
 ENERGY  =  1.00D-12  ETEST   =  0.00D+00  EDENS   =  0.00D+00  THRDEDEF=  1.00D-06  GRADIENT=  1.00D-02  STEP    =  1.00D-03
 ORBITAL =  1.00D-10  CIVEC   =  1.00D-05  COEFF   =  1.00D-04  PRINTCI =  5.00D-02  PUNCHCI =  9.90D+01  OPTGRAD =  1.00D-06
 OPTENERG=  1.00D-06  OPTSTEP =  3.00D-04  THRGRAD =  1.00D-10  COMPRESS=  1.00D-13  VARMIN  =  1.00D-07  VARMAX  =  1.00D-03
 THRDOUB =  0.00D+00  THRDIV  =  1.00D-05  THRRED  =  1.00D-07  THRPSP  =  1.00D+00  THRDC   =  1.00D-10  THRCS   =  1.00D-10
 THRNRM  =  1.00D-08  THREQ   =  0.00D+00  THRDE   =  1.00D+00  THRREF  =  1.00D-05  SPARFAC =  1.00D+00  THRDLP  =  1.00D-07
 THRDIA  =  1.00D-10  THRDLS  =  1.00D-07  THRGPS  =  0.00D+00  THRKEX  =  0.00D+00  THRDIS  =  2.00D-01  THRVAR  =  1.00D-10
 THRLOC  =  1.00D-06  THRGAP  =  1.00D-06  THRLOCT = -1.00D+00  THRGAPT = -1.00D+00  THRORB  =  1.00D-06  THRMLTP =  0.00D+00
 THRCPQCI=  1.00D-10  KEXTA   =  0.00D+00  THRCOARS=  0.00D+00  SYMTOL  =  1.00D-06  GRADTOL =  1.00D-06  THROVL  =  1.00D-08
 THRORTH =  1.00D-08  GRID    =  1.00D-06  GRIDMAX =  1.00D-03  DTMAX   =  0.00D+00

 SETTING GEOMTYP        =    XYZ
 ZUNIT=BOHR
 

 Variable memory set to 1000000000 words,  buffer space   230000 words

 SETTING BASIS          =    AVDZ,H=VDZ


 Recomputing integrals since basis changed


 Using spherical harmonics

 Library entry C      S aug-cc-pVDZ          selected for orbital group  1
 Library entry C      P aug-cc-pVDZ          selected for orbital group  1
 Library entry C      D aug-cc-pVDZ          selected for orbital group  1
 Library entry O      S aug-cc-pVDZ          selected for orbital group  2
 Library entry O      P aug-cc-pVDZ          selected for orbital group  2
 Library entry O      D aug-cc-pVDZ          selected for orbital group  2
 Library entry H      S cc-pVDZ              selected for orbital group  3
 Library entry H      P cc-pVDZ              selected for orbital group  3

1PROGRAM * SEWARD (Integral evaluation for generally contracted gaussian basis sets)     Author: Roland Lindh, 1990

 Geometry written to block  1 of record 700


 Point group  C2h 



 ATOMIC COORDINATES

 NR  ATOM    CHARGE       X              Y              Z

   1  C       6.00   -3.500702905   -0.827322841    0.000000000
   2  C       6.00    3.500702905    0.827322841    0.000000000
   3  O       8.00   -3.099981483    1.627042951    0.000000000
   4  O       8.00    3.099981483   -1.627042951    0.000000000
   5  O       8.00   -1.881758988   -2.474123047    0.000000000
   6  O       8.00    1.881758988    2.474123047    0.000000000
   7  H       1.00   -5.518938755   -1.274491387    0.000000000
   8  H       1.00    5.518938755    1.274491387    0.000000000
   9  H       1.00   -1.246242452    1.949477044    0.000000000
  10  H       1.00    1.246242452   -1.949477044    0.000000000

 Bond lengths in Bohr (Angstrom)

 1-3  2.486863304  1-5  2.309313822  1-7  2.067180606  2-4  2.486863304  2-6  2.309313822
     ( 1.315991383)     ( 1.222036243)     ( 1.093904864)     ( 1.315991383)     ( 1.222036243)

  2- 8  2.067180606   3- 9  1.881571721   4-10  1.881571721
       ( 1.093904864)       ( 0.995684872)       ( 0.995684872)

 Bond angles

  1- 3- 9  109.13994611   2- 4-10  109.13994611   3- 1- 5  126.21591402   3- 1- 7  111.76566607

  4-2-6  126.21591402   4-2-8  111.76566607   5-1-7  122.01841991   6-2-8  122.01841991

 NUCLEAR CHARGE:                   48
 NUMBER OF PRIMITIVE AOS:         250
 NUMBER OF SYMMETRY AOS:          238
 NUMBER OF CONTRACTIONS:          158   (  56Ag  +  23Au  +  56Bu  +  23Bg  )
 NUMBER OF CORE ORBITALS:           6   (   3Ag  +   0Au  +   3Bu  +   0Bg  )
 NUMBER OF VALENCE ORBITALS:       28   (  11Ag  +   3Au  +  11Bu  +   3Bg  )


 NUCLEAR REPULSION ENERGY  235.55886751


 Eigenvalues of metric

         1 0.127E-02 0.143E-02 0.274E-02 0.695E-02 0.733E-02 0.775E-02 0.121E-01 0.127E-01
         2 0.379E-01 0.473E-01 0.743E-01 0.105E+00 0.149E+00 0.219E+00 0.250E+00 0.279E+00
         3 0.779E-03 0.198E-02 0.418E-02 0.475E-02 0.703E-02 0.840E-02 0.111E-01 0.116E-01
         4 0.270E-01 0.520E-01 0.617E-01 0.138E+00 0.162E+00 0.222E+00 0.260E+00 0.284E+00


 Contracted 2-electron integrals neglected if value below      1.0D-16
 AO integral compression algorithm  1   Integral accuracy      1.0D-16

     221.250 MB (compressed) written to integral file (100.0%)

     Node minimum: 221.250 MB, node maximum: 221.250 MB


 NUMBER OF SORTED TWO-ELECTRON INTEGRALS:   20758224.     BUFFER LENGTH:  32768
 NUMBER OF SEGMENTS:   2  SEGMENT LENGTH:   15997776      RECORD LENGTH: 524288

 Memory used in sort:      16.55 MW

 SORT1 READ    26969232. AND WROTE    20758224. INTEGRALS IN     60 RECORDS. CPU TIME:     0.40 SEC, REAL TIME:     0.53 SEC
 SORT2 READ    20758224. AND WROTE    20758224. INTEGRALS IN    844 RECORDS. CPU TIME:     0.25 SEC, REAL TIME:     0.37 SEC

 FILE SIZES:   FILE 1:   173.7 MBYTE,  FILE 4:   251.7 MBYTE,   TOTAL:    425.4 MBYTE

 OPERATOR DM      FOR CENTER  0  COORDINATES:    0.000000    0.000000    0.000000


 **********************************************************************************************************************************
 DATASETS  * FILE   NREC   LENGTH (MB)   RECORD NAMES
              1      19      173.79       500      610      700      900      950      970     1000      129      960     1100   
                                          VAR    BASINP    GEOM    SYMINP    ZMAT    AOBASIS   BASIS     P2S    ABASIS      S 
                                         1400     1410     1200     1210     1080     1600     1650     1300     1700   
                                           T        V       H0       H01     AOSYM     SMH    MOLCAS    ERIS     OPER   

 PROGRAMS   *        TOTAL       INT
 CPU TIMES  *         2.82      2.77
 REAL TIME  *         3.35 SEC
 DISK USED  *       647.46 MB      
 GA USED    *         0.00 MB       (max)       0.00 MB       (current)
 **********************************************************************************************************************************

1PROGRAM * RHF-SCF (CLOSED SHELL)       Authors: W. Meyer, H.-J. Werner


 NUMBER OF ELECTRONS:      24+   24-
 CONVERGENCE THRESHOLDS:    1.00E-10 (Density)    1.00E-13 (Energy)
 MAX. NUMBER OF ITERATIONS:      200
 INTERPOLATION TYPE:            DIIS
 INTERPOLATION STEPS:              2 (START)      1 (STEP)
 LEVEL SHIFTS:                  0.00 (CLOSED)  0.00 (OPEN) 



 Orbital guess generated from atomic densities. Full valence occupancy:   14   3  14   3

 Molecular orbital dump at record        2100.2

 Initial alpha occupancy:  10   2  10   2
 Initial beta  occupancy:  10   2  10   2
 Wave function symmetry:    1

 ITERATION    DDIFF          GRAD             ENERGY        2-EL.EN.            DIPOLE MOMENTS         DIIS
    1      0.000D+00      0.000D+00      -377.47428600    746.351359    0.00000    0.00000    0.00000    0
    2      0.000D+00      0.133D-01      -377.56257230    743.558889    0.00000    0.00000    0.00000    1
    3      0.251D-01      0.834D-02      -377.60990924    745.833545    0.00000    0.00000    0.00000    2
    4      0.940D-02      0.119D-02      -377.61151842    745.434078    0.00000    0.00000    0.00000    3
    5      0.183D-02      0.505D-03      -377.61180122    745.472226    0.00000    0.00000    0.00000    4
    6      0.760D-03      0.142D-03      -377.61184505    745.523825    0.00000    0.00000    0.00000    5
    7      0.255D-03      0.633D-04      -377.61185557    745.505801    0.00000    0.00000    0.00000    6
    8      0.147D-03      0.199D-04      -377.61185681    745.511306    0.00000    0.00000    0.00000    7
    9      0.542D-04      0.656D-05      -377.61185693    745.509978    0.00000    0.00000    0.00000    8
   10      0.176D-04      0.180D-05      -377.61185694    745.510210    0.00000    0.00000    0.00000    7
   11      0.491D-05      0.530D-06      -377.61185694    745.510133    0.00000    0.00000    0.00000    8
   12      0.143D-05      0.163D-06      -377.61185694    745.510166    0.00000    0.00000    0.00000    8
   13      0.406D-06      0.661D-07      -377.61185694    745.510146    0.00000    0.00000    0.00000    8
   14      0.120D-06      0.214D-07      -377.61185694    745.510151    0.00000    0.00000    0.00000    8
   15      0.501D-07      0.723D-08      -377.61185694    745.510151    0.00000    0.00000    0.00000    8
   16      0.138D-07      0.227D-08      -377.61185694    745.510150    0.00000    0.00000    0.00000    8
   17      0.400D-08      0.570D-09      -377.61185694    745.510150    0.00000    0.00000    0.00000    8
   18      0.106D-08      0.177D-09      -377.61185694    745.510150    0.00000    0.00000    0.00000    8
   19      0.362D-09      0.548D-10      -377.61185694    745.510150    0.00000    0.00000    0.00000    8
   20      0.117D-09      0.147D-10      -377.61185694    745.510150    0.00000    0.00000    0.00000    7
   21      0.357D-10      0.354D-11      -377.61185694    745.510150    0.00000    0.00000    0.00000    7
   22      0.903D-11      0.138D-11      -377.61185694    745.510150    0.00000    0.00000    0.00000    7
   23      0.333D-11      0.360D-12      -377.61185694    745.510150    0.00000    0.00000    0.00000    7
   24      0.918D-12      0.187D-12      -377.61185694    745.510150    0.00000    0.00000    0.00000    7
   25      0.779D-12      0.688D-13      -377.61185694    745.510150    0.00000    0.00000    0.00000    8
   26      0.471D-12      0.462D-13      -377.61185694    745.510150    0.00000    0.00000    0.00000    0

 Final occupancy:  10   2  10   2

 !RHF STATE 1.1 Energy               -377.611856939257
 Nuclear energy                       235.55886751
 One-electron energy                 -985.92579959
 Two-electron energy                  372.75507514
 Virial quotient                       -1.00163603
 !RHF STATE 1.1 Dipole moment           0.00000000     0.00000000     0.00000000
 Dipole moment /Debye                   0.00000000     0.00000000     0.00000000

 Orbital energies:

         1.1          2.1          3.1          4.1          5.1          6.1          7.1          8.1          9.1         10.1
    -20.626417   -20.587643   -11.419856    -1.490517    -1.378292    -0.921589    -0.735479    -0.697949    -0.622865    -0.498203

        11.1         12.1
      0.070579     0.092966

         1.2          2.2          3.2          4.2
     -0.645696    -0.495214     0.080705     0.140263

         1.3          2.3          3.3          4.3          5.3          6.3          7.3          8.3          9.3         10.3
    -20.626417   -20.587645   -11.419857    -1.477856    -1.392202    -0.885848    -0.771290    -0.726865    -0.582310    -0.475560

        11.3         12.3
      0.069507     0.088208

         1.4          2.4          3.4          4.4
     -0.635363    -0.506894     0.093001     0.174934


 **********************************************************************************************************************************
 DATASETS  * FILE   NREC   LENGTH (MB)   RECORD NAMES
              1      19      173.79       500      610      700      900      950      970     1000      129      960     1100   
                                          VAR    BASINP    GEOM    SYMINP    ZMAT    AOBASIS   BASIS     P2S    ABASIS      S 
                                         1400     1410     1200     1210     1080     1600     1650     1300     1700   
                                           T        V       H0       H01     AOSYM     SMH    MOLCAS    ERIS     OPER   

              2       3        0.59       700     1000     2100   
                                         GEOM     BASIS     RHF  

 PROGRAMS   *        TOTAL       RHF       INT
 CPU TIMES  *         4.47      1.65      2.77
 REAL TIME  *         5.37 SEC
 DISK USED  *       647.46 MB      
 GA USED    *         0.00 MB       (max)       0.00 MB       (current)
 **********************************************************************************************************************************


1PROGRAM * CCSD (Closed-shell coupled cluster)     Authors: C. Hampel, H.-J. Werner, 1991, M. Deegan, P.J. Knowles, 1992


 Convergence thresholds:  THRVAR = 1.00D-08  THRDEN = 1.00D-12

 CCSD(T)     terms to be evaluated (factor= 1.000)


 Number of core orbitals:           6 (   3   0   3   0 )
 Number of closed-shell orbitals:  18 (   7   2   7   2 )
 Number of external orbitals:     134 (  46  21  46  21 )

 Molecular orbitals read from record     2100.2  Type=RHF/CANONICAL (state 1.1)

 Number of N-1 electron functions:              18
 Number of N-2 electron functions:             171
 Number of singly external CSFs:               728
 Number of doubly external CSFs:            759674
 Total number of CSFs:                      760403

 Length of J-op  integral file:               0.00 MB
 Length of K-op  integral file:               0.54 MB
 Length of 3-ext integral record:             0.00 MB

 Memory could be reduced to 14.96 Mwords without degradation in triples

 Integral transformation finished. Total CPU:   0.61 sec, npass=  1  Memory used:   4.79 MW

 Reference energy:                   -377.61185694

 MP2 singlet pair energy:              -0.63202592
 MP2 triplet pair energy:              -0.43059612
 MP2 correlation energy:               -1.06262204
 MP2 total energy:                   -378.67447897

 SCS-MP2 correlation energy:           -1.02635757   (PS=  1.200000  PT=  0.333333)
 SCS-MP2 total energy:               -378.63821451

 ITER.      SQ.NORM     CORR.ENERGY   TOTAL ENERGY   ENERGY CHANGE        DEN1      VAR(S)    VAR(P)  DIIS     TIME
   1      1.30280528    -1.07996195  -378.69181889    -0.01733991     0.01550724  0.11D-01  0.60D-02  1  1     1.71
   2      1.32740344    -1.08106458  -378.69292152    -0.00110263    -0.02621492  0.24D-03  0.10D-02  2  2     2.88
   3      1.34058344    -1.08191800  -378.69377494    -0.00085342    -0.00594342  0.21D-03  0.45D-04  3  3     4.04
   4      1.34590812    -1.08164982  -378.69350676     0.00026817    -0.00176604  0.18D-04  0.80D-05  4  4     5.19
   5      1.34799553    -1.08156081  -378.69341775     0.00008901    -0.00046816  0.17D-05  0.73D-06  5  5     6.37
   6      1.34837817    -1.08154052  -378.69339746     0.00002029    -0.00002187  0.14D-06  0.84D-07  6  6     7.54
   7      1.34846050    -1.08153105  -378.69338799     0.00000947    -0.00000599  0.12D-07  0.12D-07  6  2     8.72
   8      1.34846631    -1.08153188  -378.69338882    -0.00000082     0.00000232  0.19D-08  0.11D-08  6  1     9.89
   9      1.34846701    -1.08153170  -378.69338864     0.00000018     0.00000127  0.30D-09  0.17D-09  6  4    11.07
  10      1.34846875    -1.08153153  -378.69338847     0.00000017    -0.00000050  0.70D-10  0.23D-10  6  3    12.24
  11      1.34846827    -1.08153165  -378.69338859    -0.00000011     0.00000022  0.16D-10  0.41D-11  6  5    13.41
  12      1.34846801    -1.08153167  -378.69338861    -0.00000002     0.00000004  0.29D-11  0.10D-11  6  6    14.59
  13      1.34846773    -1.08153170  -378.69338864    -0.00000004     0.00000010  0.48D-12  0.20D-12  6  1    15.76
  14      1.34846763    -1.08153171  -378.69338865    -0.00000001     0.00000002  0.66D-13  0.31D-13  6  2    16.93
  15      1.34846760    -1.08153171  -378.69338865    -0.00000000     0.00000000  0.12D-13  0.50D-14  6  4    18.10
  16      1.34846760    -1.08153171  -378.69338865    -0.00000000    -0.00000000  0.24D-14  0.11D-14  6  3    19.28
  17      1.34846759    -1.08153171  -378.69338865     0.00000000    -0.00000000  0.27D-15  0.17D-15  6  6    20.45
  18      1.34846759    -1.08153171  -378.69338865    -0.00000000     0.00000000  0.36D-16  0.17D-16  6  5    21.63
  19      1.34846759    -1.08153171  -378.69338865    -0.00000000     0.00000000  0.88D-17  0.27D-17  6  1    22.80
  20      1.34846759    -1.08153171  -378.69338865     0.00000000    -0.00000000  0.16D-17  0.78D-18  6  5    23.98
  21      1.34846759    -1.08153171  -378.69338865    -0.00000000     0.00000000  0.16D-18  0.86D-19  6  2    25.16
  22      1.34846759    -1.08153171  -378.69338865     0.00000000    -0.00000000  0.10D-19  0.12D-19  6  3    26.33
  23      1.34846759    -1.08153171  -378.69338865     0.00000000     0.00000000  0.12D-20  0.59D-21  6  4    27.50
  24      1.34846759    -1.08153171  -378.69338865     0.00000000     0.00000000  0.35D-21  0.10D-21  6  6    28.68

 Norm of t1 vector:      0.15401004      S-energy:    -0.00000000      T1 diagnostic:  0.01815026
                                                                       D1 diagnostic:  0.06240642

 Singles amplitudes (print threshold =  0.500E-01):

         I         SYM. A    A   T(IA)

        17         4         2     -0.05265914


 Total CPU time for triples:     29.37 sec


 RESULTS
 =======

  Reference energy                   -377.611856939256
  CCSD singlet pair energy             -0.702969875947
  CCSD triplet pair energy             -0.378561833907
  CCSD correlation energy              -1.081531709855

  Triples (T) contribution             -0.039465358157
  Total correlation energy             -1.120997068012

  CCSD total energy                  -378.693388649111
  CCSD[T] energy                     -378.736501781179
  CCSD-T energy                      -378.731598860007
 !CCSD(T) total energy               -378.732854007268

 Timing summary (sec):

 STEP                 CPU(USER)    SYS     CPU(TOT)    WALL
 Transformation          0.63      0.09      0.72      0.73
 CCSD iterations        28.05      1.36     29.41     29.46
 Triples                29.37      0.99     30.36     30.37

 Program statistics:

 Available memory in ccsd:               999998604
 Min. memory needed in ccsd:               1971250
 Max. memory used in ccsd:                 2664424
 Max. memory used in cckext:               2549270 (24 integral passes)



 **********************************************************************************************************************************
 DATASETS  * FILE   NREC   LENGTH (MB)   RECORD NAMES
              1      20      233.03       500      610      700      900      950      970     1000      129      960     1100   
                                          VAR    BASINP    GEOM    SYMINP    ZMAT    AOBASIS   BASIS     P2S    ABASIS      S 
                                         1400     1410     1200     1210     1080     1600     1650     1300     1700     1380   
                                           T        V       H0       H01     AOSYM     SMH    MOLCAS    ERIS     OPER     JKOP   

              2       3        0.59       700     1000     2100   
                                         GEOM     BASIS     RHF  

 PROGRAMS   *        TOTAL   CCSD(T)       RHF       INT
 CPU TIMES  *        62.53     58.06      1.65      2.77
 REAL TIME  *        65.97 SEC
 DISK USED  *       647.46 MB      
 GA USED    *         0.00 MB       (max)       0.00 MB       (current)
 **********************************************************************************************************************************

        CCSD(T)         RHF-SCF 
   -378.73285401   -377.61185694
 **********************************************************************************************************************************
 Variable memory released
