
 Primary working directories    : /tmp/943417.32.gen6.q
 Secondary working directories  : /tmp/943417.32.gen6.q
 Wavefunction directory         : /home/vulcan/mel64643/wfu/
 Main file repository           : /tmp/943417.32.gen6.q/

 ARCHNAME  : Linux/x86_64
 FC        : /opt/intel/compilers_and_libraries_2016.1.150/linux/bin/intel64/ifort
 FCVERSION : 16.0.1
 BLASLIB   : -mkl
 id        : ccgc

 Nodes     nprocs
 n088         1
 ga_uses_ma=false, calling ma_init with nominal heap.
 GA-space will be limited to   8.0 MW (determined by -G option)

 Using customized tuning parameters: mindgm=10; mindgv=16; mindgc=4; mindgr=1; noblas=0; mincuda=1000; minvec=7
 default implementation of scratch files=df  

 ***,Optimization of nh3_nitrosmethane
 memory,1000,m
 gthresh,energy=1.0d-12,orbital=1.0d-10,oneint=1.0d-16,twoint=1.0d-16,optgrad=1.0d-6,compress=1.0d-13
 geomtyp=xyz
 
 bohr
 geometry = {
  N   -5.2230680334   -0.1880038202    0.0000000000
  H   -6.3007270855    0.2281153236   -1.5389015375
  H   -3.7546201239    1.0591654637   -0.0000000000
  H   -6.3007270855    0.2281153236    1.5389015375
  H   -0.9309364361   -2.4059654180   -0.0000000000
  H    1.8801415119   -3.4290879293   -1.6666242654
  H    1.8801415119   -3.4290879293    1.6666242654
  C    1.1298529050   -2.4676654682    0.0000000000
  N    2.2705360298    0.0956344262    0.0000000000
  O    0.7135252958    1.7858370370    0.0000000000
 }
 
 basis=cc-pvdz
 {rhf;maxit,200}
 {ccsd(t);maxit,200}

 Variables initialized (661), CPU time= 0.01 sec
 Commands  initialized (458), CPU time= 0.00 sec, 486 directives.
 Default parameters read. Elapsed time= 0.04 sec

 Checking input...
 Passed
1


                                         ***  PROGRAM SYSTEM MOLPRO  ***
                         Copyright, University College Cardiff Consultants Limited, 2008

                                    Version 2010.1 linked May 16 2016 07:17:05


 **********************************************************************************************************************************
 LABEL *   Optimization of nh3_nitrosmethane                                             
 Linux-4.4.3/n088(x86_64) 64 bit mpp version                                             DATE: 25-Oct-23          TIME: 16:28:18  
 **********************************************************************************************************************************

 SHA1:             9e8077add272b0f3cad6f7df79ec5211205f459d
 **********************************************************************************************************************************

 THRESHOLDS:

 ZERO    =  1.00D-12  ONEINT  =  1.00D-16  TWOINT  =  1.00D-16  PREFAC  =  1.00D-14  LOCALI  =  1.00D-09  EORDER  =  1.00D-04
 ENERGY  =  1.00D-12  ETEST   =  0.00D+00  EDENS   =  0.00D+00  THRDEDEF=  1.00D-06  GRADIENT=  1.00D-02  STEP    =  1.00D-03
 ORBITAL =  1.00D-10  CIVEC   =  1.00D-05  COEFF   =  1.00D-04  PRINTCI =  5.00D-02  PUNCHCI =  9.90D+01  OPTGRAD =  1.00D-06
 OPTENERG=  1.00D-06  OPTSTEP =  3.00D-04  THRGRAD =  1.00D-10  COMPRESS=  1.00D-13  VARMIN  =  1.00D-07  VARMAX  =  1.00D-03
 THRDOUB =  0.00D+00  THRDIV  =  1.00D-05  THRRED  =  1.00D-07  THRPSP  =  1.00D+00  THRDC   =  1.00D-10  THRCS   =  1.00D-10
 THRNRM  =  1.00D-08  THREQ   =  0.00D+00  THRDE   =  1.00D+00  THRREF  =  1.00D-05  SPARFAC =  1.00D+00  THRDLP  =  1.00D-07
 THRDIA  =  1.00D-10  THRDLS  =  1.00D-07  THRGPS  =  0.00D+00  THRKEX  =  0.00D+00  THRDIS  =  2.00D-01  THRVAR  =  1.00D-10
 THRLOC  =  1.00D-06  THRGAP  =  1.00D-06  THRLOCT = -1.00D+00  THRGAPT = -1.00D+00  THRORB  =  1.00D-06  THRMLTP =  0.00D+00
 THRCPQCI=  1.00D-10  KEXTA   =  0.00D+00  THRCOARS=  0.00D+00  SYMTOL  =  1.00D-06  GRADTOL =  1.00D-06  THROVL  =  1.00D-08
 THRORTH =  1.00D-08  GRID    =  1.00D-06  GRIDMAX =  1.00D-03  DTMAX   =  0.00D+00

 SETTING GEOMTYP        =    XYZ
 ZUNIT=BOHR
 

 Variable memory set to 1000000000 words,  buffer space   230000 words

 SETTING BASIS          =    CC-PVDZ


 Recomputing integrals since basis changed


 Using spherical harmonics

 Library entry N      S cc-pVDZ              selected for orbital group  1
 Library entry N      P cc-pVDZ              selected for orbital group  1
 Library entry N      D cc-pVDZ              selected for orbital group  1
 Library entry H      S cc-pVDZ              selected for orbital group  2
 Library entry H      P cc-pVDZ              selected for orbital group  2
 Library entry C      S cc-pVDZ              selected for orbital group  3
 Library entry C      P cc-pVDZ              selected for orbital group  3
 Library entry C      D cc-pVDZ              selected for orbital group  3
 Library entry O      S cc-pVDZ              selected for orbital group  5
 Library entry O      P cc-pVDZ              selected for orbital group  5
 Library entry O      D cc-pVDZ              selected for orbital group  5

1PROGRAM * SEWARD (Integral evaluation for generally contracted gaussian basis sets)     Author: Roland Lindh, 1990

 Geometry written to block  1 of record 700


 Point group  Cs  



 ATOMIC COORDINATES

 NR  ATOM    CHARGE       X              Y              Z

   1  N       7.00   -5.223068033   -0.188003820    0.000000000
   2  H       1.00   -6.300727086    0.228115324   -1.538901537
   3  H       1.00   -6.300727086    0.228115324    1.538901537
   4  H       1.00   -3.754620124    1.059165464    0.000000000
   5  H       1.00   -0.930936436   -2.405965418    0.000000000
   6  H       1.00    1.880141512   -3.429087929   -1.666624265
   7  H       1.00    1.880141512   -3.429087929    1.666624265
   8  C       6.00    1.129852905   -2.467665468    0.000000000
   9  N       7.00    2.270536030    0.095634426    0.000000000
  10  O       8.00    0.713525296    1.785837037    0.000000000

 Bond lengths in Bohr (Angstrom)

 1-2  1.924245857  1-3  1.924245857  1-4  1.926595569  5-8  2.061712784  6-8  2.065164057
     ( 1.018267052)     ( 1.018267052)     ( 1.019510466)     ( 1.091011417)     ( 1.092837752)

  7- 8  2.065164057   8- 9  2.805648649   9-10  2.298057286
       ( 1.092837752)       ( 1.484685321)       ( 1.216079541)

 Bond angles

  2-1-3  106.21107417   2-1-4  106.67095379   3-1-4  106.67095379   5-8-6  112.15270613

  5-8-7  112.15270613   5-8-9  112.27441393   6-8-7  107.61116519   6-8-9  106.11828861

  7- 8- 9  106.11828861   8- 9-10  113.35946296

 NUCLEAR CHARGE:                   34
 NUMBER OF PRIMITIVE AOS:         150
 NUMBER OF SYMMETRY AOS:          146
 NUMBER OF CONTRACTIONS:           86   (  58A'  +  28A"  )
 NUMBER OF CORE ORBITALS:           4   (   4A'  +   0A"  )
 NUMBER OF VALENCE ORBITALS:       22   (  16A'  +   6A"  )


 NUCLEAR REPULSION ENERGY  117.33370056


 Eigenvalues of metric

         1 0.630E-02 0.971E-02 0.152E-01 0.179E-01 0.298E-01 0.391E-01 0.414E-01 0.456E-01
         2 0.370E-01 0.411E-01 0.499E-01 0.776E-01 0.114E+00 0.146E+00 0.150E+00 0.201E+00


 Contracted 2-electron integrals neglected if value below      1.0D-16
 AO integral compression algorithm  1   Integral accuracy      1.0D-16

     28.574 MB (compressed) written to integral file ( 86.3%)

     Node minimum: 28.574 MB, node maximum: 28.574 MB


 NUMBER OF SORTED TWO-ELECTRON INTEGRALS:    3631235.     BUFFER LENGTH:  32768
 NUMBER OF SEGMENTS:   1  SEGMENT LENGTH:    3631235      RECORD LENGTH: 524288

 Memory used in sort:       4.19 MW

 SORT1 READ     4137582. AND WROTE     3570249. INTEGRALS IN     11 RECORDS. CPU TIME:     0.05 SEC, REAL TIME:     0.07 SEC
 SORT2 READ     3570249. AND WROTE     3631235. INTEGRALS IN    109 RECORDS. CPU TIME:     0.05 SEC, REAL TIME:     0.07 SEC

 FILE SIZES:   FILE 1:    28.1 MBYTE,  FILE 4:    46.2 MBYTE,   TOTAL:     74.3 MBYTE

 OPERATOR DM      FOR CENTER  0  COORDINATES:    0.000000    0.000000    0.000000


 **********************************************************************************************************************************
 DATASETS  * FILE   NREC   LENGTH (MB)   RECORD NAMES
              1      19       28.14       500      610      700      900      950      970     1000      129      960     1100   
                                          VAR    BASINP    GEOM    SYMINP    ZMAT    AOBASIS   BASIS     P2S    ABASIS      S 
                                         1400     1410     1200     1210     1080     1600     1650     1300     1700   
                                           T        V       H0       H01     AOSYM     SMH    MOLCAS    ERIS     OPER   

 PROGRAMS   *        TOTAL       INT
 CPU TIMES  *         0.67      0.63
 REAL TIME  *         0.94 SEC
 DISK USED  *       103.61 MB      
 GA USED    *         0.00 MB       (max)       0.00 MB       (current)
 **********************************************************************************************************************************

1PROGRAM * RHF-SCF (CLOSED SHELL)       Authors: W. Meyer, H.-J. Werner


 NUMBER OF ELECTRONS:      17+   17-
 CONVERGENCE THRESHOLDS:    1.00E-10 (Density)    1.00E-13 (Energy)
 MAX. NUMBER OF ITERATIONS:      200
 INTERPOLATION TYPE:            DIIS
 INTERPOLATION STEPS:              2 (START)      1 (STEP)
 LEVEL SHIFTS:                  0.00 (CLOSED)  0.00 (OPEN) 



 Orbital guess generated from atomic densities. Full valence occupancy:   20   6

 Molecular orbital dump at record        2100.2

 Initial alpha occupancy:  14   3
 Initial beta  occupancy:  14   3
 Wave function symmetry:    1

 ITERATION    DDIFF          GRAD             ENERGY        2-EL.EN.            DIPOLE MOMENTS         DIIS
    1      0.000D+00      0.000D+00      -224.94586774    393.691999    0.09758   -0.57061    0.00000    0
    2      0.000D+00      0.134D-01      -225.00704836    393.146705   -0.59714   -0.30075    0.00000    1
    3      0.251D-01      0.922D-02      -225.03979506    393.663138   -0.25502   -0.51365    0.00000    2
    4      0.110D-01      0.184D-02      -225.04195456    393.554085   -0.33339   -0.42184    0.00000    3
    5      0.288D-02      0.705D-03      -225.04233073    393.549792   -0.33478   -0.44850    0.00000    4
    6      0.121D-02      0.172D-03      -225.04236740    393.572378   -0.33965   -0.44667    0.00000    5
    7      0.406D-03      0.682D-04      -225.04237323    393.560038   -0.34123   -0.44688    0.00000    6
    8      0.165D-03      0.264D-04      -225.04237409    393.565634   -0.34201   -0.44685    0.00000    7
    9      0.578D-04      0.110D-04      -225.04237426    393.564319   -0.34219   -0.44655    0.00000    8
   10      0.302D-04      0.308D-05      -225.04237427    393.564129   -0.34225   -0.44639    0.00000    8
   11      0.880D-05      0.929D-06      -225.04237428    393.564183   -0.34227   -0.44632    0.00000    8
   12      0.251D-05      0.294D-06      -225.04237428    393.564146   -0.34227   -0.44630    0.00000    8
   13      0.101D-05      0.930D-07      -225.04237428    393.564140   -0.34227   -0.44629    0.00000    8
   14      0.241D-06      0.455D-07      -225.04237428    393.564141   -0.34227   -0.44629    0.00000    8
   15      0.119D-06      0.847D-08      -225.04237428    393.564141   -0.34227   -0.44629    0.00000    8
   16      0.165D-07      0.238D-08      -225.04237428    393.564141   -0.34227   -0.44629    0.00000    8
   17      0.577D-08      0.620D-09      -225.04237428    393.564141   -0.34227   -0.44629    0.00000    7
   18      0.144D-08      0.172D-09      -225.04237428    393.564141   -0.34227   -0.44629    0.00000    7
   19      0.376D-09      0.585D-10      -225.04237428    393.564141   -0.34227   -0.44629    0.00000    7
   20      0.137D-09      0.147D-10      -225.04237428    393.564141   -0.34227   -0.44629    0.00000    7
   21      0.388D-10      0.509D-11      -225.04237428    393.564141   -0.34227   -0.44629    0.00000    0

 Final occupancy:  14   3

 !RHF STATE 1.1 Energy               -225.042374276195
 Nuclear energy                       117.33370056
 One-electron energy                 -539.15814532
 Two-electron energy                  196.78207048
 Virial quotient                       -1.00163367
 !RHF STATE 1.1 Dipole moment          -0.34227369    -0.44629254     0.00000000
 Dipole moment /Debye                  -0.86991597    -1.13428819     0.00000000

 Orbital energies:

         1.1          2.1          3.1          4.1          5.1          6.1          7.1          8.1          9.1         10.1
    -20.625931   -15.699167   -15.538427   -11.265757    -1.506705    -1.129209    -1.070142    -0.855283    -0.684346    -0.667791

        11.1         12.1         13.1         14.1         15.1         16.1
     -0.612798    -0.550553    -0.420117    -0.398289     0.186627     0.205965

         1.2          2.2          3.2          4.2          5.2
     -0.630956    -0.613883    -0.527649     0.109673     0.251905


 **********************************************************************************************************************************
 DATASETS  * FILE   NREC   LENGTH (MB)   RECORD NAMES
              1      19       28.14       500      610      700      900      950      970     1000      129      960     1100   
                                          VAR    BASINP    GEOM    SYMINP    ZMAT    AOBASIS   BASIS     P2S    ABASIS      S 
                                         1400     1410     1200     1210     1080     1600     1650     1300     1700   
                                           T        V       H0       H01     AOSYM     SMH    MOLCAS    ERIS     OPER   

              2       3        0.50       700     1000     2100   
                                         GEOM     BASIS     RHF  

 PROGRAMS   *        TOTAL       RHF       INT
 CPU TIMES  *         1.07      0.40      0.63
 REAL TIME  *         1.41 SEC
 DISK USED  *       103.61 MB      
 GA USED    *         0.00 MB       (max)       0.00 MB       (current)
 **********************************************************************************************************************************


1PROGRAM * CCSD (Closed-shell coupled cluster)     Authors: C. Hampel, H.-J. Werner, 1991, M. Deegan, P.J. Knowles, 1992


 Convergence thresholds:  THRVAR = 1.00D-08  THRDEN = 1.00D-12

 CCSD(T)     terms to be evaluated (factor= 1.000)


 Number of core orbitals:           4 (   4   0 )
 Number of closed-shell orbitals:  13 (  10   3 )
 Number of external orbitals:      69 (  44  25 )

 Molecular orbitals read from record     2100.2  Type=RHF/CANONICAL (state 1.1)

 Number of N-1 electron functions:              13
 Number of N-2 electron functions:              91
 Number of singly external CSFs:               515
 Number of doubly external CSFs:            206023
 Total number of CSFs:                      206539

 Length of J-op  integral file:               0.00 MB
 Length of K-op  integral file:               0.32 MB
 Length of 3-ext integral record:             0.00 MB

 Memory could be reduced to 3.40 Mwords without degradation in triples

 Integral transformation finished. Total CPU:   0.07 sec, npass=  1  Memory used:   1.58 MW

 Reference energy:                   -225.04237428

 MP2 singlet pair energy:              -0.43008552
 MP2 triplet pair energy:              -0.25010492
 MP2 correlation energy:               -0.68019044
 MP2 total energy:                   -225.72256472

 SCS-MP2 correlation energy:           -0.67172347   (PS=  1.200000  PT=  0.333333)
 SCS-MP2 total energy:               -225.71409774

 ITER.      SQ.NORM     CORR.ENERGY   TOTAL ENERGY   ENERGY CHANGE        DEN1      VAR(S)    VAR(P)  DIIS     TIME
   1      1.22704218    -0.71598949  -225.75836376    -0.03579904    -0.01322205  0.44D-02  0.46D-02  1  1     0.30
   2      1.24776214    -0.71931049  -225.76168476    -0.00332100    -0.02060661  0.13D-03  0.82D-03  2  2     0.53
   3      1.25675508    -0.72000024  -225.76237451    -0.00068975    -0.00432312  0.10D-03  0.59D-04  3  3     0.75
   4      1.26048502    -0.71999146  -225.76236574     0.00000878    -0.00127077  0.77D-05  0.10D-04  4  4     0.98
   5      1.26191766    -0.72001116  -225.76238544    -0.00001970    -0.00032496  0.14D-05  0.17D-05  5  5     1.20
   6      1.26231689    -0.71998345  -225.76235773     0.00002771    -0.00004706  0.78D-07  0.35D-06  6  6     1.43
   7      1.26240708    -0.71998162  -225.76235590     0.00000183    -0.00000207  0.19D-07  0.95D-07  6  2     1.65
   8      1.26242945    -0.71998168  -225.76235595    -0.00000006     0.00000225  0.86D-08  0.24D-07  6  5     1.88
   9      1.26242472    -0.71998254  -225.76235681    -0.00000086     0.00000161  0.17D-08  0.27D-08  6  1     2.10
  10      1.26242464    -0.71998281  -225.76235708    -0.00000027    -0.00000144  0.39D-09  0.30D-09  6  3     2.32
  11      1.26242313    -0.71998307  -225.76235735    -0.00000027     0.00000087  0.77D-10  0.49D-10  6  4     2.55
  12      1.26242240    -0.71998314  -225.76235741    -0.00000006     0.00000022  0.19D-10  0.10D-10  6  6     2.78
  13      1.26242165    -0.71998317  -225.76235745    -0.00000003     0.00000017  0.34D-11  0.17D-11  6  2     3.00
  14      1.26242128    -0.71998319  -225.76235747    -0.00000002     0.00000012  0.67D-12  0.47D-12  6  1     3.23
  15      1.26242102    -0.71998320  -225.76235747    -0.00000001     0.00000005  0.56D-13  0.70D-13  6  5     3.46
  16      1.26242096    -0.71998320  -225.76235748    -0.00000000     0.00000001  0.11D-13  0.25D-13  6  3     3.68
  17      1.26242092    -0.71998320  -225.76235748    -0.00000000     0.00000001  0.67D-15  0.76D-14  6  4     3.90
  18      1.26242091    -0.71998320  -225.76235748    -0.00000000    -0.00000000  0.18D-15  0.17D-14  6  6     4.13
  19      1.26242091    -0.71998320  -225.76235748    -0.00000000    -0.00000000  0.22D-15  0.33D-15  6  2     4.36
  20      1.26242091    -0.71998320  -225.76235748     0.00000000     0.00000000  0.90D-16  0.68D-16  6  1     4.58
  21      1.26242091    -0.71998320  -225.76235748     0.00000000     0.00000000  0.24D-16  0.13D-16  6  5     4.81
  22      1.26242091    -0.71998320  -225.76235748     0.00000000    -0.00000000  0.25D-17  0.24D-17  6  4     5.03
  23      1.26242091    -0.71998320  -225.76235748     0.00000000    -0.00000000  0.50D-18  0.28D-18  6  3     5.26
  24      1.26242091    -0.71998320  -225.76235748     0.00000000    -0.00000000  0.91D-19  0.41D-19  6  6     5.48
  25      1.26242091    -0.71998320  -225.76235748     0.00000000    -0.00000000  0.22D-19  0.99D-20  6  5     5.71
  26      1.26242091    -0.71998320  -225.76235748     0.00000000    -0.00000000  0.33D-20  0.16D-20  6  2     5.94

 Norm of t1 vector:      0.10011709      S-energy:    -0.00000000      T1 diagnostic:  0.01388374
                                                                       D1 diagnostic:  0.05076106

 Doubles amplitudes (print threshold =  0.500E-01):

         I         J         SYM. A    SYM. B    A         B      T(IJ, AB)

        11        11         2         2         1         1     -0.06085866
        13        11         2         2         1         1     -0.06600082
        13        13         2         2         1         1     -0.09635722


 Total CPU time for triples:      2.30 sec


 RESULTS
 =======

  Reference energy                   -225.042374276195
  CCSD singlet pair energy             -0.499307117293
  CCSD triplet pair energy             -0.220676084101
  CCSD correlation energy              -0.719983201395

  Triples (T) contribution             -0.021693067007
  Total correlation energy             -0.741676268402

  CCSD total energy                  -225.762357477590
  CCSD[T] energy                     -225.785426121789
  CCSD-T energy                      -225.783646640834
 !CCSD(T) total energy               -225.784050544596

 Timing summary (sec):

 STEP                 CPU(USER)    SYS     CPU(TOT)    WALL
 Transformation          0.08      0.03      0.11      0.11
 CCSD iterations         5.86      0.27      6.13      6.17
 Triples                 2.30      0.07      2.37      2.37

 Program statistics:

 Available memory in ccsd:               999999224
 Min. memory needed in ccsd:                602268
 Max. memory used in ccsd:                  776096
 Max. memory used in cckext:                873141 (26 integral passes)



 **********************************************************************************************************************************
 DATASETS  * FILE   NREC   LENGTH (MB)   RECORD NAMES
              1      20       41.30       500      610      700      900      950      970     1000      129      960     1100   
                                          VAR    BASINP    GEOM    SYMINP    ZMAT    AOBASIS   BASIS     P2S    ABASIS      S 
                                         1400     1410     1200     1210     1080     1600     1650     1300     1700     1380   
                                           T        V       H0       H01     AOSYM     SMH    MOLCAS    ERIS     OPER     JKOP   

              2       3        0.50       700     1000     2100   
                                         GEOM     BASIS     RHF  

 PROGRAMS   *        TOTAL   CCSD(T)       RHF       INT
 CPU TIMES  *         9.32      8.25      0.40      0.63
 REAL TIME  *        10.09 SEC
 DISK USED  *       107.68 MB      
 GA USED    *         0.00 MB       (max)       0.00 MB       (current)
 **********************************************************************************************************************************

        CCSD(T)         RHF-SCF 
   -225.78405054   -225.04237428
 **********************************************************************************************************************************
 Variable memory released
