
 Primary working directories    : /tmp/999602.674.gen6.q
 Secondary working directories  : /tmp/999602.674.gen6.q
 Wavefunction directory         : /home/vulcan/jj04645/wfu/
 Main file repository           : /tmp/999602.674.gen6.q/

 ARCHNAME  : Linux/x86_64
 FC        : /opt/intel/compilers_and_libraries_2016.1.150/linux/bin/intel64/ifort
 FCVERSION : 16.0.1
 BLASLIB   : -mkl
 id        : ccgc

 Nodes     nprocs
 n092         1
 ga_uses_ma=false, calling ma_init with nominal heap.
 GA-space will be limited to   8.0 MW (determined by -G option)

 Using customized tuning parameters: mindgm=10; mindgv=16; mindgc=4; mindgr=1; noblas=0; mincuda=1000; minvec=7
 default implementation of scratch files=df  

 ***,Optimization of 1,3-difluorobenzene
 memory,1000,m
 gthresh,energy=1.0d-12,orbital=1.0d-10,oneint=1.0d-16,twoint=1.0d-16,optgrad=1.0d-6,compress=1.0d-13
 geomtyp=xyz
 
 bohr
 geometry = {
  F    0.0072054012    4.4281043130   -1.7585980810
  C    0.0011155586    2.2373928777   -0.4776723684
  C   -0.0016801190   -2.2937976904    2.1408718865
  C   -0.0020941549   -0.0019896195   -1.8515645445
  C   -0.0016974955    2.3024162061    2.1483470426
  C    0.0015690514    0.0021980393    3.4427317376
  C    0.0011365862   -2.2461681827   -0.4855205786
  H   -0.0068926105    0.0015836862   -3.8929517705
  H   -0.0062742795    4.0968242655    3.1238100218
  H    0.0067013488   -0.0011278876    5.4877404820
  F    0.0071949643   -4.4388767087   -1.7630247769
  H   -0.0062842509   -4.0865592990    3.1193573851
 }
 
 basis=VDZ
 {rhf;maxit,200}
 {ccsd(t);maxit,200}

 Variables initialized (661), CPU time= 0.00 sec
 Commands  initialized (458), CPU time= 0.01 sec, 486 directives.
 Default parameters read. Elapsed time= 0.04 sec

 Checking input...
 Passed
1


                                         ***  PROGRAM SYSTEM MOLPRO  ***
                         Copyright, University College Cardiff Consultants Limited, 2008

                                    Version 2010.1 linked May 16 2016 07:17:05


 **********************************************************************************************************************************
 LABEL *   Optimization of 1,3-difluorobenzene                                           
 Linux-4.4.3/n092(x86_64) 64 bit mpp version                                             DATE: 07-Feb-24          TIME: 17:38:51  
 **********************************************************************************************************************************

 SHA1:             9e8077add272b0f3cad6f7df79ec5211205f459d
 **********************************************************************************************************************************

 THRESHOLDS:

 ZERO    =  1.00D-12  ONEINT  =  1.00D-16  TWOINT  =  1.00D-16  PREFAC  =  1.00D-14  LOCALI  =  1.00D-09  EORDER  =  1.00D-04
 ENERGY  =  1.00D-12  ETEST   =  0.00D+00  EDENS   =  0.00D+00  THRDEDEF=  1.00D-06  GRADIENT=  1.00D-02  STEP    =  1.00D-03
 ORBITAL =  1.00D-10  CIVEC   =  1.00D-05  COEFF   =  1.00D-04  PRINTCI =  5.00D-02  PUNCHCI =  9.90D+01  OPTGRAD =  1.00D-06
 OPTENERG=  1.00D-06  OPTSTEP =  3.00D-04  THRGRAD =  1.00D-10  COMPRESS=  1.00D-13  VARMIN  =  1.00D-07  VARMAX  =  1.00D-03
 THRDOUB =  0.00D+00  THRDIV  =  1.00D-05  THRRED  =  1.00D-07  THRPSP  =  1.00D+00  THRDC   =  1.00D-10  THRCS   =  1.00D-10
 THRNRM  =  1.00D-08  THREQ   =  0.00D+00  THRDE   =  1.00D+00  THRREF  =  1.00D-05  SPARFAC =  1.00D+00  THRDLP  =  1.00D-07
 THRDIA  =  1.00D-10  THRDLS  =  1.00D-07  THRGPS  =  0.00D+00  THRKEX  =  0.00D+00  THRDIS  =  2.00D-01  THRVAR  =  1.00D-10
 THRLOC  =  1.00D-06  THRGAP  =  1.00D-06  THRLOCT = -1.00D+00  THRGAPT = -1.00D+00  THRORB  =  1.00D-06  THRMLTP =  0.00D+00
 THRCPQCI=  1.00D-10  KEXTA   =  0.00D+00  THRCOARS=  0.00D+00  SYMTOL  =  1.00D-06  GRADTOL =  1.00D-06  THROVL  =  1.00D-08
 THRORTH =  1.00D-08  GRID    =  1.00D-06  GRIDMAX =  1.00D-03  DTMAX   =  0.00D+00

 SETTING GEOMTYP        =    XYZ
 ZUNIT=BOHR
 

 Variable memory set to 1000000000 words,  buffer space   230000 words

 SETTING BASIS          =    VDZ


 Recomputing integrals since basis changed


 Using spherical harmonics

 Library entry F      S cc-pVDZ              selected for orbital group  1
 Library entry F      P cc-pVDZ              selected for orbital group  1
 Library entry F      D cc-pVDZ              selected for orbital group  1
 Library entry C      S cc-pVDZ              selected for orbital group  2
 Library entry C      P cc-pVDZ              selected for orbital group  2
 Library entry C      D cc-pVDZ              selected for orbital group  2
 Library entry H      S cc-pVDZ              selected for orbital group  3
 Library entry H      P cc-pVDZ              selected for orbital group  3

1PROGRAM * SEWARD (Integral evaluation for generally contracted gaussian basis sets)     Author: Roland Lindh, 1990

 Geometry written to block  1 of record 700


 Point group  C1  



 ATOMIC COORDINATES

 NR  ATOM    CHARGE       X              Y              Z

   1  F       9.00    0.007205401    4.428104313   -1.758598081
   2  C       6.00    0.001115559    2.237392878   -0.477672368
   3  C       6.00   -0.001680119   -2.293797690    2.140871886
   4  C       6.00   -0.002094155   -0.001989619   -1.851564544
   5  C       6.00   -0.001697495    2.302416206    2.148347043
   6  C       6.00    0.001569051    0.002198039    3.442731738
   7  C       6.00    0.001136586   -2.246168183   -0.485520579
   8  H       1.00   -0.006892611    0.001583686   -3.892951770
   9  H       1.00   -0.006274280    4.096824265    3.123810022
  10  H       1.00    0.006701349   -0.001127888    5.487740482
  11  F       9.00    0.007194964   -4.438876709   -1.763024777
  12  H       1.00   -0.006284251   -4.086559299    3.119357385

 Bond lengths in Bohr (Angstrom)

 1-2  2.537720308  2-4  2.627246464  2-5  2.626825821  3-6  2.639402588  3-7  2.626825819
     ( 1.342903750)     ( 1.390278951)     ( 1.390056356)     ( 1.396711695)     ( 1.390056356)

  3-12  2.042412606   4- 7  2.627246463   4- 8  2.041395993   5- 6  2.639402588   5- 9  2.042412606
       ( 1.080798203)       ( 1.390278951)       ( 1.080260234)       ( 1.396711695)       ( 1.080798203)

  6-10  2.045017889   7-11  2.537720308
       ( 1.082176859)       ( 1.342903750)

 Bond angles

  1-2-4  118.15523460   1-2-5  118.89679045   2-4-7  117.14105988   2-4-8  121.42947006

  2- 5- 6  117.94889245   2- 5- 9  119.94754183   3- 6- 5  121.07859700   3- 6-10  119.46070150

  3- 7- 4  122.36791170   3- 7-11  119.18682208   4- 2- 5  122.94797495   4- 7-11  118.44526622

  5- 6-10  119.46070150   6- 3- 7  118.51473829   6- 3-12  121.82064281   6- 5- 9  122.10356572

  7- 3-12  119.66461891   7- 4- 8  121.42947006

 NUCLEAR CHARGE:                   58
 NUMBER OF PRIMITIVE AOS:         244
 NUMBER OF SYMMETRY AOS:          236
 NUMBER OF CONTRACTIONS:          132   ( 132A   )
 NUMBER OF CORE ORBITALS:           8   (   8A   )
 NUMBER OF VALENCE ORBITALS:       36   (  36A   )


 NUCLEAR REPULSION ENERGY  342.36972390


 Eigenvalues of metric

         1 0.394E-03 0.120E-02 0.169E-02 0.263E-02 0.305E-02 0.316E-02 0.125E-01 0.130E-01


 Contracted 2-electron integrals neglected if value below      1.0D-16
 AO integral compression algorithm  1   Integral accuracy      1.0D-16

     266.600 MB (compressed) written to integral file ( 79.9%)

     Node minimum: 266.600 MB, node maximum: 266.600 MB


 NUMBER OF SORTED TWO-ELECTRON INTEGRALS:   38531031.     BUFFER LENGTH:  32768
 NUMBER OF SEGMENTS:   3  SEGMENT LENGTH:   15998004      RECORD LENGTH: 524288

 Memory used in sort:      16.56 MW

 SORT1 READ    41688210. AND WROTE    37205100. INTEGRALS IN    108 RECORDS. CPU TIME:     0.39 SEC, REAL TIME:     0.59 SEC
 SORT2 READ    37205100. AND WROTE    38531031. INTEGRALS IN   1017 RECORDS. CPU TIME:     0.35 SEC, REAL TIME:     0.50 SEC

 FILE SIZES:   FILE 1:   246.4 MBYTE,  FILE 4:   453.0 MBYTE,   TOTAL:    699.4 MBYTE

 OPERATOR DM      FOR CENTER  0  COORDINATES:    0.000000    0.000000    0.000000


 **********************************************************************************************************************************
 DATASETS  * FILE   NREC   LENGTH (MB)   RECORD NAMES
              1      19      246.59       500      610      700      900      950      970     1000      129      960     1100   
                                          VAR    BASINP    GEOM    SYMINP    ZMAT    AOBASIS   BASIS     P2S    ABASIS      S 
                                         1400     1410     1200     1210     1080     1600     1650     1300     1700   
                                           T        V       H0       H01     AOSYM     SMH    MOLCAS    ERIS     OPER   

 PROGRAMS   *        TOTAL       INT
 CPU TIMES  *         3.52      3.48
 REAL TIME  *         4.18 SEC
 DISK USED  *       966.86 MB      
 GA USED    *         0.00 MB       (max)       0.00 MB       (current)
 **********************************************************************************************************************************

1PROGRAM * RHF-SCF (CLOSED SHELL)       Authors: W. Meyer, H.-J. Werner


 NUMBER OF ELECTRONS:      29+   29-    SPACE SYMMETRY=1    SPIN SYMMETRY: Singlet 
 CONVERGENCE THRESHOLDS:    1.00E-10 (Density)    1.00E-13 (Energy)
 MAX. NUMBER OF ITERATIONS:      200
 INTERPOLATION TYPE:            DIIS
 INTERPOLATION STEPS:              2 (START)      1 (STEP)
 LEVEL SHIFTS:                  0.00 (CLOSED)  0.00 (OPEN) 



 Orbital guess generated from atomic densities. Full valence occupancy:   44

 Molecular orbital dump at record        2100.2

 ITERATION    DDIFF          GRAD             ENERGY        2-EL.EN.            DIPOLE MOMENTS         DIIS
    1      0.000D+00      0.000D+00      -428.34390013    993.074589   -0.00429   -0.00247    0.47563    0
    2      0.000D+00      0.606D-02      -428.41801580    992.610013   -0.00422    0.00271    0.92444    1
    3      0.124D-01      0.275D-02      -428.43188426    992.944436   -0.00390    0.00012    0.62085    2
    4      0.395D-02      0.729D-03      -428.43344074    993.001058   -0.00390    0.00098    0.73430    3
    5      0.148D-02      0.221D-03      -428.43357585    992.965892   -0.00394    0.00066    0.70107    4
    6      0.373D-03      0.461D-04      -428.43358356    992.975109   -0.00391    0.00077    0.70542    5
    7      0.979D-04      0.139D-04      -428.43358461    992.978448   -0.00392    0.00070    0.70378    6
    8      0.333D-04      0.497D-05      -428.43358475    992.977787   -0.00392    0.00074    0.70420    7
    9      0.110D-04      0.226D-05      -428.43358478    992.978176   -0.00392    0.00072    0.70392    8
   10      0.600D-05      0.870D-06      -428.43358478    992.978738   -0.00392    0.00073    0.70399    8
   11      0.270D-05      0.488D-06      -428.43358479    992.978651   -0.00392    0.00072    0.70396    8
   12      0.166D-05      0.193D-06      -428.43358479    992.978746   -0.00392    0.00073    0.70397    8
   13      0.948D-06      0.332D-07      -428.43358479    992.978774   -0.00392    0.00073    0.70397    8
   14      0.107D-06      0.130D-07      -428.43358479    992.978768   -0.00392    0.00073    0.70397    9
   15      0.423D-07      0.343D-08      -428.43358479    992.978768   -0.00392    0.00073    0.70397    9
   16      0.882D-08      0.150D-08      -428.43358479    992.978769   -0.00392    0.00073    0.70397    9
   17      0.391D-08      0.464D-09      -428.43358479    992.978769   -0.00392    0.00073    0.70397    8
   18      0.116D-08      0.176D-09      -428.43358479    992.978769   -0.00392    0.00073    0.70397    8
   19      0.364D-09      0.513D-10      -428.43358479    992.978769   -0.00392    0.00073    0.70397    8
   20      0.125D-09      0.115D-10      -428.43358479    992.978769   -0.00392    0.00073    0.70397    8
   21      0.295D-10      0.453D-11      -428.43358479    992.978769   -0.00392    0.00073    0.70397    8
   22      0.918D-11      0.198D-11      -428.43358479    992.978769   -0.00392    0.00073    0.70397    8
   23      0.533D-11      0.780D-12      -428.43358479    992.978769   -0.00392    0.00073    0.70397    0

 Final occupancy:  29

 !RHF STATE 1.1 Energy               -428.433584786832
 Nuclear energy                       342.36972390
 One-electron energy                -1267.29269295
 Two-electron energy                  496.48938426
 Virial quotient                       -1.00060098
 !RHF STATE 1.1 Dipole moment          -0.00391646     0.00072656     0.70396670
 Dipole moment /Debye                  -0.00995398     0.00184660     1.78918768

 Orbital energies:

         1.1          2.1          3.1          4.1          5.1          6.1          7.1          8.1          9.1         10.1
    -26.321364   -26.320450   -11.349664   -11.349389   -11.272875   -11.258809   -11.255994   -11.255723    -1.639633    -1.638811

        11.1         12.1         13.1         14.1         15.1         16.1         17.1         18.1         19.1         20.1
     -1.178972    -1.046841    -1.036926    -0.875041    -0.865054    -0.774644    -0.740946    -0.703930    -0.702917    -0.695875

        21.1         22.1         23.1         24.1         25.1         26.1         27.1         28.1         29.1         30.1
     -0.685068    -0.668331    -0.623049    -0.586221    -0.555071    -0.532863    -0.513779    -0.360324    -0.348400     0.113804

        31.1
      0.131881


 **********************************************************************************************************************************
 DATASETS  * FILE   NREC   LENGTH (MB)   RECORD NAMES
              1      19      246.59       500      610      700      900      950      970     1000      129      960     1100   
                                          VAR    BASINP    GEOM    SYMINP    ZMAT    AOBASIS   BASIS     P2S    ABASIS      S 
                                         1400     1410     1200     1210     1080     1600     1650     1300     1700   
                                           T        V       H0       H01     AOSYM     SMH    MOLCAS    ERIS     OPER   

              2       3        0.82       700     1000     2100   
                                         GEOM     BASIS     RHF  

 PROGRAMS   *        TOTAL       RHF       INT
 CPU TIMES  *        10.25      6.73      3.48
 REAL TIME  *        11.43 SEC
 DISK USED  *       966.86 MB      
 GA USED    *         0.00 MB       (max)       0.00 MB       (current)
 **********************************************************************************************************************************


1PROGRAM * CCSD (Closed-shell coupled cluster)     Authors: C. Hampel, H.-J. Werner, 1991, M. Deegan, P.J. Knowles, 1992


 Convergence thresholds:  THRVAR = 1.00D-08  THRDEN = 1.00D-12

 CCSD(T)     terms to be evaluated (factor= 1.000)


 Number of core orbitals:           8 (   8 )
 Number of closed-shell orbitals:  21 (  21 )
 Number of external orbitals:     103 ( 103 )

 Molecular orbitals read from record     2100.2  Type=RHF/CANONICAL (state 1.1)

 Number of N-1 electron functions:              21
 Number of N-2 electron functions:             231
 Number of singly external CSFs:              2163
 Number of doubly external CSFs:           2340366
 Total number of CSFs:                     2342530

 Length of J-op  integral file:               0.00 MB
 Length of K-op  integral file:               1.24 MB
 Length of 3-ext integral record:             0.00 MB

 Memory could be reduced to 31.86 Mwords without degradation in triples

 Integral transformation finished. Total CPU:   2.08 sec, npass=  1  Memory used:  32.41 MW

 Reference energy:                   -428.43358479

 MP2 singlet pair energy:              -0.67264085
 MP2 triplet pair energy:              -0.46573193
 MP2 correlation energy:               -1.13837278
 MP2 total energy:                   -429.57195756

 SCS-MP2 correlation energy:           -1.09695778   (PS=  1.200000  PT=  0.333333)
 SCS-MP2 total energy:               -429.53054256

 ITER.      SQ.NORM     CORR.ENERGY   TOTAL ENERGY   ENERGY CHANGE        DEN1      VAR(S)    VAR(P)  DIIS     TIME
   1      1.36210609    -1.16811758  -429.60170237    -0.02974480     0.00049075  0.67D-02  0.73D-02  1  1    11.15
   2      1.38857475    -1.17164980  -429.60523459    -0.00353222    -0.02700055  0.13D-03  0.11D-02  2  2    20.34
   3      1.39936031    -1.17225136  -429.60583615    -0.00060156    -0.00537407  0.86D-04  0.10D-03  3  3    29.54
   4      1.40339443    -1.17217685  -429.60576164     0.00007451    -0.00142644  0.48D-05  0.20D-04  4  4    38.74
   5      1.40523777    -1.17220715  -429.60579194    -0.00003030    -0.00045271  0.91D-06  0.22D-05  5  5    47.93
   6      1.40571428    -1.17221287  -429.60579765    -0.00000572    -0.00006813  0.12D-06  0.24D-06  6  6    57.13
   7      1.40580135    -1.17220789  -429.60579268     0.00000498     0.00000045  0.28D-07  0.22D-07  6  1    66.33
   8      1.40582644    -1.17220900  -429.60579378    -0.00000111    -0.00000760  0.61D-08  0.30D-08  6  2    75.53
   9      1.40582775    -1.17220967  -429.60579445    -0.00000067     0.00000230  0.18D-08  0.34D-09  6  3    84.73
  10      1.40583013    -1.17220943  -429.60579422     0.00000023    -0.00000122  0.38D-09  0.76D-10  6  4    93.93
  11      1.40583019    -1.17220967  -429.60579446    -0.00000024     0.00000032  0.46D-10  0.20D-10  6  5   103.13
  12      1.40583039    -1.17220965  -429.60579444     0.00000002    -0.00000007  0.11D-10  0.24D-11  6  6   112.33
  13      1.40583039    -1.17220967  -429.60579446    -0.00000002     0.00000005  0.58D-12  0.56D-12  6  1   121.55
  14      1.40583038    -1.17220968  -429.60579446    -0.00000001     0.00000002  0.15D-12  0.87D-13  6  2   130.75
  15      1.40583037    -1.17220968  -429.60579446     0.00000000     0.00000000  0.41D-13  0.15D-13  6  3   139.96
  16      1.40583038    -1.17220968  -429.60579447    -0.00000000     0.00000000  0.66D-14  0.43D-14  6  4   149.16
  17      1.40583038    -1.17220968  -429.60579447    -0.00000000    -0.00000000  0.17D-14  0.75D-15  6  5   158.36
  18      1.40583038    -1.17220968  -429.60579447    -0.00000000    -0.00000000  0.26D-15  0.12D-15  6  6   167.56
  19      1.40583038    -1.17220968  -429.60579447    -0.00000000    -0.00000000  0.52D-16  0.27D-16  6  1   176.76
  20      1.40583038    -1.17220968  -429.60579447     0.00000000    -0.00000000  0.21D-16  0.47D-17  6  2   185.96
  21      1.40583038    -1.17220968  -429.60579447    -0.00000000    -0.00000000  0.42D-17  0.14D-17  6  3   195.15
  22      1.40583038    -1.17220968  -429.60579447     0.00000000    -0.00000000  0.13D-17  0.41D-18  6  4   204.34
  23      1.40583038    -1.17220968  -429.60579447     0.00000000    -0.00000000  0.32D-18  0.11D-18  6  5   213.54
  24      1.40583038    -1.17220968  -429.60579447    -0.00000000     0.00000000  0.86D-19  0.24D-19  6  6   222.75
  25      1.40583038    -1.17220968  -429.60579447    -0.00000000     0.00000000  0.26D-19  0.75D-20  6  5   231.95

 Norm of t1 vector:      0.10829371      S-energy:     0.00000000      T1 diagnostic:  0.01181581
                                                                       D1 diagnostic:  0.03167232

 Doubles amplitudes (print threshold =  0.500E-01):

         I         J         SYM. A    SYM. B    A         B      T(IJ, AB)

        20        20         1         1         1         1     -0.08681260
        21        20         1         1         1         2     -0.05130549
        21        21         1         1         2         2     -0.08400666


 Total CPU time for triples:    135.65 sec


 RESULTS
 =======

  Reference energy                   -428.433584786834
  CCSD singlet pair energy             -0.756721049705
  CCSD triplet pair energy             -0.415488629251
  CCSD correlation energy              -1.172209678954

  Triples (T) contribution             -0.043066034074
  Total correlation energy             -1.215275713028

  CCSD total energy                  -429.605794465787
  CCSD[T] energy                     -429.650860632593
  CCSD-T energy                      -429.648136085815
 !CCSD(T) total energy               -429.648860499861

 Timing summary (sec):

 STEP                 CPU(USER)    SYS     CPU(TOT)    WALL
 Transformation          2.20      0.20      2.40      2.41
 CCSD iterations       229.75      3.40    233.15    233.43
 Triples               135.65      2.57    138.22    138.24

 Program statistics:

 Available memory in ccsd:               999998136
 Min. memory needed in ccsd:               6063316
 Max. memory used in ccsd:                 8147482
 Max. memory used in cckext:               8418193 (25 integral passes)



 **********************************************************************************************************************************
 DATASETS  * FILE   NREC   LENGTH (MB)   RECORD NAMES
              1      20      388.22       500      610      700      900      950      970     1000      129      960     1100   
                                          VAR    BASINP    GEOM    SYMINP    ZMAT    AOBASIS   BASIS     P2S    ABASIS      S 
                                         1400     1410     1200     1210     1080     1600     1650     1300     1700     1380   
                                           T        V       H0       H01     AOSYM     SMH    MOLCAS    ERIS     OPER     JKOP   

              2       3        0.82       700     1000     2100   
                                         GEOM     BASIS     RHF  

 PROGRAMS   *        TOTAL   CCSD(T)       RHF       INT
 CPU TIMES  *       377.87    367.62      6.73      3.48
 REAL TIME  *       385.57 SEC
 DISK USED  *         1.06 GB      
 GA USED    *         0.00 MB       (max)       0.00 MB       (current)
 **********************************************************************************************************************************

        CCSD(T)         RHF-SCF 
   -429.64886050   -428.43358479
 **********************************************************************************************************************************
 Variable memory released
