
    -----------------------------------------------------------------------
          Psi4: An Open-Source Ab Initio Electronic Structure Package
                               Psi4 1.4a2.dev629 

                         Git: Rev {master} 2938fc2 dirty


    D. G. A. Smith, L. A. Burns, A. C. Simmonett, R. M. Parrish,
    M. C. Schieber, R. Galvelis, P. Kraus, H. Kruse, R. Di Remigio,
    A. Alenaizan, A. M. James, S. Lehtola, J. P. Misiewicz, M. Scheurer,
    R. A. Shaw, J. B. Schriber, Y. Xie, Z. L. Glick, D. A. Sirianni,
    J. S. O'Brien, J. M. Waldrop, A. Kumar, E. G. Hohenstein,
    B. P. Pritchard, B. R. Brooks, H. F. Schaefer III, A. Yu. Sokolov,
    K. Patkowski, A. E. DePrince III, U. Bozkaya, R. A. King,
    F. A. Evangelista, J. M. Turney, T. D. Crawford, C. D. Sherrill,
    J. Chem. Phys. 152(18) 184108 (2020). https://doi.org/10.1063/5.0006002

                            Additional Code Authors
    E. T. Seidl, C. L. Janssen, E. F. Valeev, M. L. Leininger,
    J. F. Gonthier, R. M. Richard, H. R. McAlexander, M. Saitow, X. Wang,
    P. Verma, and M. H. Lechner

             Previous Authors, Complete List of Code Contributors,
                       and Citations for Specific Modules
    https://github.com/psi4/psi4/blob/master/codemeta.json
    https://github.com/psi4/psi4/graphs/contributors
    http://psicode.org/psi4manual/master/introduction.html#citing-psifour

    -----------------------------------------------------------------------


    Psi4 started on: Saturday, 06 November 2021 05:49PM

    Process ID: 27298
    Host:       n062
    PSIDATADIR: /opt/psi/4/master/share/psi4
    Memory:     500.0 MiB
    Threads:    1
    
  ==> Input File <==

--------------------------------------------------------------------------
import os
memory 14 GB 
 
molecule {
 C   -0.0016468519   -2.4347141796    1.3232018691
 C   -0.0021134789   -0.0000000000   -0.1962878097
 C   -0.0016468519    2.4347141796    1.3232018691
 H    0.0008431897   -4.0545375985    0.0554149237
 H   -1.6620772256   -2.5016387090    2.5478139423
 H    1.6631590960   -2.5021935059    2.5471433673
 H    0.0008431897    4.0545375985    0.0554149237
 H    1.6631590960    2.5021935059    2.5471433673
 H   -1.6620772256    2.5016387090    2.5478139423
 O    0.0015570626   -0.0000000000   -2.4965106250
units bohr
}

basis {

assign 6-31g_2dfp_

[ 6-31g_2dfp_ ]

spherical

!----------------------------------------------------------------------
! Basis Set Exchange
! Version v0.8.13
! https://www.basissetexchange.org
!----------------------------------------------------------------------
!   Basis set: 6-31G(2df,p)
! Description: 6-31G(2df,p)
!        Role: orbital
!     Version: 0  (Data from the original Basis Set Exchange)
!----------------------------------------------------------------------


****
H     0
S    3   1.00
     18.7311370              0.03349460
      2.8253937              0.23472695
      0.6401217              0.81375733
S    1   1.00
      0.1612778              1.00000000
P    1   1.00
      1.5000000              1.0000000
P    1   1.00
      0.3750000              1.0000000
****
B     0
S    6   1.00
   2068.8823000              0.0018663
    310.6495700              0.0142515
     70.6830330              0.0695516
     19.8610800              0.2325729
      6.2993048              0.4670787
      2.1270270              0.3634314
SP   3   1.00
      4.7279710             -0.1303938              0.0745976
      1.1903377             -0.1307889              0.3078467
      0.3594117              1.1309444              0.7434568
SP   1   1.00
      0.1267512              1.0000000              1.0000000
D    1   1.00
      0.8020000              1.0000000
D    1   1.00
      0.2005000              1.0000000
F    1   1.00
      0.5000000              1.0000000
****
C     0
S    6   1.00
   3047.5249000              0.0018347
    457.3695100              0.0140373
    103.9486900              0.0688426
     29.2101550              0.2321844
      9.2866630              0.4679413
      3.1639270              0.3623120
SP   3   1.00
      7.8682724             -0.1193324              0.0689991
      1.8812885             -0.1608542              0.3164240
      0.5442493              1.1434564              0.7443083
SP   1   1.00
      0.1687144              1.0000000              1.0000000
D    1   1.00
      1.2520000              1.0000000
D    1   1.00
      0.3130000              1.0000000
F    1   1.00
      0.8000000              1.0000000
****
N     0
S    6   1.00
   4173.5110000              0.0018348
    627.4579000              0.0139950
    142.9021000              0.0685870
     40.2343300              0.2322410
     12.8202100              0.4690700
      4.3904370              0.3604550
SP   3   1.00
     11.6263580             -0.1149610              0.0675800
      2.7162800             -0.1691180              0.3239070
      0.7722180              1.1458520              0.7408950
SP   1   1.00
      0.2120313              1.0000000              1.0000000
D    1   1.00
      1.8260000              1.0000000
D    1   1.00
      0.4565000              1.0000000
F    1   1.00
      1.0000000              1.0000000
****
O     0
S    6   1.00
   5484.6717000              0.0018311
    825.2349500              0.0139501
    188.0469600              0.0684451
     52.9645000              0.2327143
     16.8975700              0.4701930
      5.7996353              0.3585209
SP   3   1.00
     15.5396160             -0.1107775              0.0708743
      3.5999336             -0.1480263              0.3397528
      1.0137618              1.1307670              0.7271586
SP   1   1.00
      0.2700058              1.0000000              1.0000000
D    1   1.00
      2.5840000              1.0000000
D    1   1.00
      0.6460000              1.0000000
F    1   1.00
      1.4000000              1.0000000
****
F     0
S    6   1.00
   7001.7130900              0.0018196169
   1051.3660900              0.0139160796
    239.2856900              0.0684053245
     67.3974453              0.233185760
     21.5199573              0.471267439
      7.40310130             0.356618546
SP   3   1.00
     20.8479528             -0.108506975            0.0716287243
      4.80830834            -0.146451658            0.3459121030
      1.34406986             1.128688580            0.7224699570
SP   1   1.00
      0.358151393            1.0000000              1.0000000
D    1   1.00
      3.5000000              1.0000000
D    1   1.00
      0.8750000              1.0000000
F    1   1.00
      1.8500000              1.0000000
****
Al     0
S    6   1.00
  13983.1000000              0.00194267
   2098.7500000              0.0148599
    477.7050000              0.0728494
    134.3600000              0.2468300
     42.8709000              0.4872580
     14.5189000              0.3234960
SP   6   1.00
    239.6680000             -0.00292619             0.00460285
     57.4419000             -0.0374080              0.0331990
     18.2859000             -0.1144870              0.1362820
      6.5991400              0.1156350              0.3304760
      2.4904900              0.6125950              0.4491460
      0.9445400              0.3937990              0.2657040
SP   3   1.00
      1.2779000             -0.2276060             -0.0175130
      0.3975900              0.00144583             0.2445330
      0.1600950              1.0927900              0.8049340
SP   1   1.00
      0.0556577              1.0000000              1.0000000
D    1   1.00
      0.6500000              1.0000000
D    1   1.00
      0.1625000              1.0000000
F    1   1.00
      0.2500000              1.0000000
****
Si     0
S    6   1.00
  16115.9000000              0.00195948
   2425.5800000              0.01492880
    553.8670000              0.07284780
    156.3400000              0.24613000
     50.0683000              0.48591400
     17.0178000              0.32500200
SP   6   1.00
    292.7180000             -0.00278094             0.00443826
     69.8731000             -0.03571460             0.03266790
     22.3363000             -0.11498500             0.13472100
      8.1503900              0.09356340             0.32867800
      3.1345800              0.60301700             0.44964000
      1.2254300              0.41895900             0.26137200
SP   3   1.00
      1.7273800             -0.24463000            -0.01779510
      0.5729220              0.00431572             0.25353900
      0.2221920              1.09818000             0.80066900
SP   1   1.00
      0.0778369              1.00000000             1.00000000
D    1   1.00
      0.9000000              1.0000000
D    1   1.00
      0.2250000              1.0000000
F    1   1.00
      0.3200000              1.0000000
****
P     0
S    6   1.00
  19413.3000000              0.0018516
   2909.4200000              0.0142062
    661.3640000              0.0699995
    185.7590000              0.2400790
     59.1943000              0.4847620
     20.0310000              0.3352000
SP   6   1.00
    339.4780000             -0.00278217             0.00456462
     81.0101000             -0.0360499              0.03369360
     25.8780000             -0.1166310              0.13975500
      9.4522100              0.0968328              0.33936200
      3.6656600              0.6144180              0.45092100
      1.4674600              0.4037980              0.23858600
SP   3   1.00
      2.1562300             -0.2529230             -0.01776530
      0.7489970              0.0328517              0.27405800
      0.2831450              1.0812500              0.78542100
SP   1   1.00
      0.0998317              1.0000000              1.00000000
D    1   1.00
      1.1000000              1.0000000
D    1   1.00
      0.2750000              1.0000000
F    1   1.00
      0.4500000              1.0000000
****
S     0
S    6   1.00
  21917.1000000              0.0018690
   3301.4900000              0.0142300
    754.1460000              0.0696960
    212.7110000              0.2384870
     67.9896000              0.4833070
     23.0515000              0.3380740
SP   6   1.00
    423.7350000             -0.0023767              0.0040610
    100.7100000             -0.0316930              0.0306810
     32.1599000             -0.1133170              0.1304520
     11.8079000              0.0560900              0.3272050
      4.6311000              0.5922550              0.4528510
      1.8702500              0.4550060              0.2560420
SP   3   1.00
      2.6158400             -0.2503740             -0.0145110
      0.9221670              0.0669570              0.3102630
      0.3412870              1.0545100              0.7544830
SP   1   1.00
      0.1171670              1.0000000              1.0000000
D    1   1.00
      1.3000000              1.0000000
D    1   1.00
      0.3250000              1.0000000
F    1   1.00
      0.5500000              1.0000000
****
Cl     0
S    6   1.00
  25180.1000000              0.0018330
   3780.3500000              0.0140340
    860.4740000              0.0690970
    242.1450000              0.2374520
     77.3349000              0.4830340
     26.2470000              0.3398560
SP   6   1.00
    491.7650000             -0.0022974              0.0039894
    116.9840000             -0.0307140              0.0303180
     37.4153000             -0.1125280              0.1298800
     13.7834000              0.0450160              0.3279510
      5.4521500              0.5893530              0.4535270
      2.2258800              0.4652060              0.2521540
SP   3   1.00
      3.1864900             -0.2518300             -0.0142990
      1.1442700              0.0615890              0.3235720
      0.4203770              1.0601800              0.7435070
SP   1   1.00
      0.1426570              1.0000000              1.0000000
D    1   1.00
      1.5000000              1.0000000
D    1   1.00
      0.3750000              1.0000000
F    1   1.00
      0.7000000              1.0000000
****
}


set {
reference rhf                          
freeze_core true
e_convergence 10                       
d_convergence 10                      
dft_spherical_points 1202
dft_radial_points 99
}

e = energy('b3lyp')

print_out('Grab this energy {0}'.format(e))
--------------------------------------------------------------------------

  Memory set to  13.039 GiB by Python driver.

Scratch directory: /tmp/

*** tstart() called on n062
*** at Sat Nov  6 17:49:47 2021

   => Loading Basis Set <=

    Name: ANONYMOUS2B6689F5
    Role: ORBITAL
    Keyword: BASIS
    atoms 1-3 entry C          line    48 inputblock 6-31g_2dfp_ 
    atoms 4-9 entry H          line    15 inputblock 6-31g_2dfp_ 
    atoms 10  entry O          line    90 inputblock 6-31g_2dfp_ 


         ---------------------------------------------------------
                                   SCF
               by Justin Turney, Rob Parrish, Andy Simmonett
                          and Daniel G. A. Smith
                              RKS Reference
                        1 Threads,  13351 MiB Core
         ---------------------------------------------------------

  ==> Geometry <==

    Molecular point group: cs
    Full point group: Cs

    Geometry (in Bohr), charge = 0, multiplicity = 1:

       Center              X                  Y                   Z               Mass       
    ------------   -----------------  -----------------  -----------------  -----------------
         C            0.001024872202     1.325764416464    -2.434714179600    12.000000000000
         C            0.001491499202    -0.193725262336     0.000000000000    12.000000000000
         C            0.001024872202     1.325764416464     2.434714179600    12.000000000000
         H           -0.001465169398     0.057977471064    -4.054537598500     1.007825032230
         H            1.661455245902     2.550376489664    -2.501638709000     1.007825032230
         H           -1.663781075698     2.549705914664    -2.502193505900     1.007825032230
         H           -0.001465169398     0.057977471064     4.054537598500     1.007825032230
         H           -1.663781075698     2.549705914664     2.502193505900     1.007825032230
         H            1.661455245902     2.550376489664     2.501638709000     1.007825032230
         O           -0.002179042298    -2.493948077636     0.000000000000    15.994914619570

  Running in cs symmetry.

  Rotational constants: A =      0.33540  B =      0.28425  C =      0.16315 [cm^-1]
  Rotational constants: A =  10055.17625  B =   8521.69833  C =   4891.18793 [MHz]
  Nuclear repulsion =  119.134253687848911

  Charge       = 0
  Multiplicity = 1
  Electrons    = 32
  Nalpha       = 16
  Nbeta        = 16

  ==> Algorithm <==

  SCF Algorithm Type is DF.
  DIIS enabled.
  MOM disabled.
  Fractional occupation disabled.
  Guess Type is SAD.
  Energy threshold   = 1.00e-10
  Density threshold  = 1.00e-10
  Integral threshold = 0.00e+00

  ==> Primary Basis <==

  Basis Set: ANONYMOUS2B6689F5
    Blend: 6-31G_2DFP_
    Number of shells: 56
    Number of basis function: 152
    Number of Cartesian functions: 172
    Spherical Harmonics?: true
    Max angular momentum: 3

  ==> DFT Potential <==

   => Composite Functional: B3LYP <= 

    B3LYP Hyb-GGA Exchange-Correlation Functional

    P. J. Stephens, F. J. Devlin, C. F. Chabalowski, and M. J. Frisch, J. Phys. Chem. 98, 11623 (1994)

    Deriv               =              1
    GGA                 =           TRUE
    Meta                =          FALSE

    Exchange Hybrid     =           TRUE
    MP2 Hybrid          =          FALSE

   => Exchange Functionals <=

    0.0800   Slater exchange
    0.7200         Becke 88

   => Exact (HF) Exchange <=

    0.2000               HF 

   => Correlation Functionals <=

    0.1900   Vosko, Wilk & Nusair (VWN5_RPA)
    0.8100   Lee, Yang & Parr

   => Molecular Quadrature <=

    Radial Scheme          =       TREUTLER
    Pruning Scheme         =           NONE
    Nuclear Scheme         =       TREUTLER

    BS radius alpha        =              1
    Pruning alpha          =              1
    Radial Points          =             99
    Spherical Points       =           1202
    Total Points           =        1114196
    Total Blocks           =           7428
    Max Points             =            256
    Max Functions          =            152
    Weights Tolerance      =       1.00E-15

   => Loading Basis Set <=

    Name: (ANONYMOUS2B6689F5 AUX)
    Role: JKFIT
    Keyword: DF_BASIS_SCF
    atoms 1-3 entry C          line   198 file /opt/psi/4/master/share/psi4/basis/def2-universal-jkfit.gbs 
    atoms 4-9 entry H          line    18 file /opt/psi/4/master/share/psi4/basis/def2-universal-jkfit.gbs 
    atoms 10  entry O          line   318 file /opt/psi/4/master/share/psi4/basis/def2-universal-jkfit.gbs 

  ==> Integral Setup <==

  DFHelper Memory: AOs need 0.076 GiB; user supplied 5.851 GiB. Using in-core AOs.

  ==> MemDFJK: Density-Fitted J/K Matrices <==

    J tasked:                   Yes
    K tasked:                   Yes
    wK tasked:                   No
    OpenMP threads:               1
    Memory [MiB]:              5991
    Algorithm:                 Core
    Schwarz Cutoff:           1E-12
    Mask sparsity (%):       1.1600
    Fitting Condition:        1E-10

   => Auxiliary Basis Set <=

  Basis Set: (ANONYMOUS2B6689F5 AUX)
    Blend: DEF2-UNIVERSAL-JKFIT
    Number of shells: 136
    Number of basis function: 410
    Number of Cartesian functions: 480
    Spherical Harmonics?: true
    Max angular momentum: 4

  Cached 100.0% of DFT collocation blocks in 3.928 [GiB].

  Minimum eigenvalue in the overlap matrix is 1.2719862068E-03.
  Reciprocal condition number of the overlap matrix is 2.3802721877E-04.
    Using symmetric orthogonalization.

  ==> Pre-Iterations <==

  SCF Guess: Superposition of Atomic Densities via on-the-fly atomic UHF (no occupation information).

   -------------------------
    Irrep   Nso     Nmo    
   -------------------------
     A'        84      84 
     A"        68      68 
   -------------------------
    Total     152     152
   -------------------------

  ==> Iterations <==

                           Total Energy        Delta E     RMS |[F,P]|

   @DF-RKS iter SAD:  -192.48093009432512   -1.92481e+02   0.00000e+00 
   @DF-RKS iter   1:  -192.86387024097627   -3.82940e-01   7.38437e-03 DIIS
   @DF-RKS iter   2:  -192.70411259473173    1.59758e-01   9.30833e-03 DIIS
   @DF-RKS iter   3:  -193.13624401322392   -4.32131e-01   2.60944e-03 DIIS
   @DF-RKS iter   4:  -193.16881519568355   -3.25712e-02   2.77397e-04 DIIS
   @DF-RKS iter   5:  -193.16922788387632   -4.12688e-04   3.54236e-05 DIIS
   @DF-RKS iter   6:  -193.16923406668403   -6.18281e-06   7.39872e-06 DIIS
   @DF-RKS iter   7:  -193.16923431966700   -2.52983e-07   2.21564e-06 DIIS
   @DF-RKS iter   8:  -193.16923434522815   -2.55611e-08   5.51328e-07 DIIS
   @DF-RKS iter   9:  -193.16923434692396   -1.69581e-09   1.34961e-07 DIIS
   @DF-RKS iter  10:  -193.16923434701957   -9.56106e-11   2.08525e-08 DIIS
   @DF-RKS iter  11:  -193.16923434702156   -1.98952e-12   3.78273e-09 DIIS
   @DF-RKS iter  12:  -193.16923434702178   -2.27374e-13   2.56966e-10 DIIS
   @DF-RKS iter  13:  -193.16923434702178    0.00000e+00   1.07644e-10 DIIS
   @DF-RKS iter  14:  -193.16923434702173    5.68434e-14   1.45296e-11 DIIS
  Energy and wave function converged.


  ==> Post-Iterations <==

    Orbital Energies [Eh]
    ---------------------

    Doubly Occupied:                                                      

       1Ap   -19.132450     2Ap   -10.271686     1App  -10.184798  
       3Ap   -10.184750     4Ap    -1.032332     5Ap    -0.768469  
       2App   -0.710081     6Ap    -0.530443     7Ap    -0.458869  
       3App   -0.456610     8Ap    -0.448779     4App   -0.403913  
       9Ap    -0.392649     5App   -0.378760    10Ap    -0.346672  
       6App   -0.244689  

    Virtual:                                                              

      11Ap    -0.012154    12Ap     0.072053    13Ap     0.131097  
       7App    0.134399    14Ap     0.141413     8App    0.166457  
       9App    0.170105    15Ap     0.188274    10App    0.279555  
      16Ap     0.292473    17Ap     0.394751    18Ap     0.402929  
      19Ap     0.436812    11App    0.453177    20Ap     0.477966  
      12App    0.486707    13App    0.496089    14App    0.546152  
      21Ap     0.559349    22Ap     0.577228    15App    0.590012  
      23Ap     0.599215    16App    0.616715    17App    0.624120  
      24Ap     0.625384    25Ap     0.654238    18App    0.670954  
      26Ap     0.734755    27Ap     0.794658    28Ap     0.823309  
      19App    0.852540    20App    0.873263    21App    0.919497  
      29Ap     0.935462    30Ap     0.959009    22App    0.970584  
      31Ap     0.989993    32Ap     1.065764    33Ap     1.073881  
      34Ap     1.100992    23App    1.139644    35Ap     1.183830  
      24App    1.249653    25App    1.257791    36Ap     1.291006  
      26App    1.314463    37Ap     1.324288    38Ap     1.325211  
      27App    1.332159    28App    1.351302    29App    1.413565  
      39Ap     1.446148    30App    1.458281    40Ap     1.481290  
      41Ap     1.530237    31App    1.586147    42Ap     1.602849  
      43Ap     1.682099    32App    1.685496    33App    1.746143  
      44Ap     1.798116    34App    1.811417    45Ap     1.829681  
      35App    1.965259    36App    1.972686    46Ap     1.982482  
      47Ap     2.034230    48Ap     2.210696    37App    2.414468  
      49Ap     2.483534    50Ap     2.738914    38App    2.768915  
      39App    2.809615    51Ap     2.843221    52Ap     2.897009  
      40App    2.919422    41App    2.929965    53Ap     2.939932  
      42App    2.998665    43App    3.007432    54Ap     3.017056  
      55Ap     3.093674    56Ap     3.151651    44App    3.209332  
      57Ap     3.236745    45App    3.347379    58Ap     3.357461  
      46App    3.397484    47App    3.445972    59Ap     3.460531  
      60Ap     3.473231    48App    3.505426    61Ap     3.576379  
      62Ap     3.582972    49App    3.608060    63Ap     3.626704  
      50App    3.715388    64Ap     3.780901    65Ap     3.814913  
      51App    3.853528    66Ap     3.856407    67Ap     3.999415  
      52App    4.063912    53App    4.083377    68Ap     4.106330  
      54App    4.144588    69Ap     4.181162    70Ap     4.190527  
      55App    4.223037    56App    4.337236    57App    4.393446  
      71Ap     4.402904    58App    4.441285    59App    4.505168  
      72Ap     4.513478    73Ap     4.531669    74Ap     4.631623  
      60App    4.693337    75Ap     4.924024    61App    4.977273  
      76Ap     5.098448    62App    5.102000    77Ap     5.207098  
      78Ap     5.222996    63App    5.246427    64App    5.299824  
      79Ap     5.559094    65App    5.568931    80Ap     5.936987  
      81Ap     5.940456    66App    6.263222    67App    6.855423  
      82Ap     6.855978    83Ap     7.159733    68App    7.364519  
      84Ap     7.572330  

    Final Occupation by Irrep:
             Ap   App 
    DOCC [    10,    6 ]

  @DF-RKS Final Energy:  -193.16923434702173

   => Energetics <=

    Nuclear Repulsion Energy =            119.1342536878489113
    One-Electron Energy =                -496.9488255319118366
    Two-Electron Energy =                 206.5801302308719016
    DFT Exchange-Correlation Energy =     -21.9347927338307045
    Empirical Dispersion Energy =           0.0000000000000000
    VV10 Nonlocal Energy =                  0.0000000000000000
    Total Energy =                       -193.1692343470217281

Computation Completed


Properties will be evaluated at   0.000000,   0.000000,   0.000000 [a0]

Properties computed using the SCF density matrix

  Nuclear Dipole Moment: [e a0]
     X:    -0.0038      Y:     5.1114      Z:     0.0000

  Electronic Dipole Moment: [e a0]
     X:     0.0046      Y:    -4.0171      Z:     0.0000

  Dipole Moment: [e a0]
     X:     0.0008      Y:     1.0942      Z:     0.0000     Total:     1.0942

  Dipole Moment: [D]
     X:     0.0021      Y:     2.7813      Z:     0.0000     Total:     2.7813


*** tstop() called on n062 at Sat Nov  6 17:51:00 2021
Module time:
	user time   =      71.76 seconds =       1.20 minutes
	system time =       1.06 seconds =       0.02 minutes
	total time  =         73 seconds =       1.22 minutes
Total time:
	user time   =      71.76 seconds =       1.20 minutes
	system time =       1.06 seconds =       0.02 minutes
	total time  =         73 seconds =       1.22 minutes
Grab this energy -193.16923434702173
    Psi4 stopped on: Saturday, 06 November 2021 05:51PM
    Psi4 wall time for execution: 0:01:12.86

*** Psi4 exiting successfully. Buy a developer a beer!
