
    -----------------------------------------------------------------------
          Psi4: An Open-Source Ab Initio Electronic Structure Package
                               Psi4 1.4a2.dev629 

                         Git: Rev {master} 2938fc2 dirty


    D. G. A. Smith, L. A. Burns, A. C. Simmonett, R. M. Parrish,
    M. C. Schieber, R. Galvelis, P. Kraus, H. Kruse, R. Di Remigio,
    A. Alenaizan, A. M. James, S. Lehtola, J. P. Misiewicz, M. Scheurer,
    R. A. Shaw, J. B. Schriber, Y. Xie, Z. L. Glick, D. A. Sirianni,
    J. S. O'Brien, J. M. Waldrop, A. Kumar, E. G. Hohenstein,
    B. P. Pritchard, B. R. Brooks, H. F. Schaefer III, A. Yu. Sokolov,
    K. Patkowski, A. E. DePrince III, U. Bozkaya, R. A. King,
    F. A. Evangelista, J. M. Turney, T. D. Crawford, C. D. Sherrill,
    J. Chem. Phys. 152(18) 184108 (2020). https://doi.org/10.1063/5.0006002

                            Additional Code Authors
    E. T. Seidl, C. L. Janssen, E. F. Valeev, M. L. Leininger,
    J. F. Gonthier, R. M. Richard, H. R. McAlexander, M. Saitow, X. Wang,
    P. Verma, and M. H. Lechner

             Previous Authors, Complete List of Code Contributors,
                       and Citations for Specific Modules
    https://github.com/psi4/psi4/blob/master/codemeta.json
    https://github.com/psi4/psi4/graphs/contributors
    http://psicode.org/psi4manual/master/introduction.html#citing-psifour

    -----------------------------------------------------------------------


    Psi4 started on: Saturday, 06 November 2021 05:54PM

    Process ID: 5098
    Host:       n065
    PSIDATADIR: /opt/psi/4/master/share/psi4
    Memory:     500.0 MiB
    Threads:    1
    
  ==> Input File <==

--------------------------------------------------------------------------
import os
memory 14 GB 
 
molecule {
 C   -0.0000000000   -2.4286718580    1.3209440977
 C    0.0000000000    0.0000000000   -0.1917262941
 C    0.0000000000    2.4286718580    1.3209440977
 H   -0.0000000000   -4.0388717913    0.0472849340
 H   -1.6611062073   -2.4995609384    2.5470825754
 H    1.6611062073   -2.4995609384    2.5470825754
 H    0.0000000000    4.0388717913    0.0472849340
 H    1.6611062073    2.4995609384    2.5470825754
 H   -1.6611062073    2.4995609384    2.5470825754
 O   -0.0000000000    0.0000000000   -2.4787123007
units bohr
}

basis {

assign 6-31g_2dfp_

[ 6-31g_2dfp_ ]

spherical

!----------------------------------------------------------------------
! Basis Set Exchange
! Version v0.8.13
! https://www.basissetexchange.org
!----------------------------------------------------------------------
!   Basis set: 6-31G(2df,p)
! Description: 6-31G(2df,p)
!        Role: orbital
!     Version: 0  (Data from the original Basis Set Exchange)
!----------------------------------------------------------------------


****
H     0
S    3   1.00
     18.7311370              0.03349460
      2.8253937              0.23472695
      0.6401217              0.81375733
S    1   1.00
      0.1612778              1.00000000
P    1   1.00
      1.5000000              1.0000000
P    1   1.00
      0.3750000              1.0000000
****
B     0
S    6   1.00
   2068.8823000              0.0018663
    310.6495700              0.0142515
     70.6830330              0.0695516
     19.8610800              0.2325729
      6.2993048              0.4670787
      2.1270270              0.3634314
SP   3   1.00
      4.7279710             -0.1303938              0.0745976
      1.1903377             -0.1307889              0.3078467
      0.3594117              1.1309444              0.7434568
SP   1   1.00
      0.1267512              1.0000000              1.0000000
D    1   1.00
      0.8020000              1.0000000
D    1   1.00
      0.2005000              1.0000000
F    1   1.00
      0.5000000              1.0000000
****
C     0
S    6   1.00
   3047.5249000              0.0018347
    457.3695100              0.0140373
    103.9486900              0.0688426
     29.2101550              0.2321844
      9.2866630              0.4679413
      3.1639270              0.3623120
SP   3   1.00
      7.8682724             -0.1193324              0.0689991
      1.8812885             -0.1608542              0.3164240
      0.5442493              1.1434564              0.7443083
SP   1   1.00
      0.1687144              1.0000000              1.0000000
D    1   1.00
      1.2520000              1.0000000
D    1   1.00
      0.3130000              1.0000000
F    1   1.00
      0.8000000              1.0000000
****
N     0
S    6   1.00
   4173.5110000              0.0018348
    627.4579000              0.0139950
    142.9021000              0.0685870
     40.2343300              0.2322410
     12.8202100              0.4690700
      4.3904370              0.3604550
SP   3   1.00
     11.6263580             -0.1149610              0.0675800
      2.7162800             -0.1691180              0.3239070
      0.7722180              1.1458520              0.7408950
SP   1   1.00
      0.2120313              1.0000000              1.0000000
D    1   1.00
      1.8260000              1.0000000
D    1   1.00
      0.4565000              1.0000000
F    1   1.00
      1.0000000              1.0000000
****
O     0
S    6   1.00
   5484.6717000              0.0018311
    825.2349500              0.0139501
    188.0469600              0.0684451
     52.9645000              0.2327143
     16.8975700              0.4701930
      5.7996353              0.3585209
SP   3   1.00
     15.5396160             -0.1107775              0.0708743
      3.5999336             -0.1480263              0.3397528
      1.0137618              1.1307670              0.7271586
SP   1   1.00
      0.2700058              1.0000000              1.0000000
D    1   1.00
      2.5840000              1.0000000
D    1   1.00
      0.6460000              1.0000000
F    1   1.00
      1.4000000              1.0000000
****
F     0
S    6   1.00
   7001.7130900              0.0018196169
   1051.3660900              0.0139160796
    239.2856900              0.0684053245
     67.3974453              0.233185760
     21.5199573              0.471267439
      7.40310130             0.356618546
SP   3   1.00
     20.8479528             -0.108506975            0.0716287243
      4.80830834            -0.146451658            0.3459121030
      1.34406986             1.128688580            0.7224699570
SP   1   1.00
      0.358151393            1.0000000              1.0000000
D    1   1.00
      3.5000000              1.0000000
D    1   1.00
      0.8750000              1.0000000
F    1   1.00
      1.8500000              1.0000000
****
Al     0
S    6   1.00
  13983.1000000              0.00194267
   2098.7500000              0.0148599
    477.7050000              0.0728494
    134.3600000              0.2468300
     42.8709000              0.4872580
     14.5189000              0.3234960
SP   6   1.00
    239.6680000             -0.00292619             0.00460285
     57.4419000             -0.0374080              0.0331990
     18.2859000             -0.1144870              0.1362820
      6.5991400              0.1156350              0.3304760
      2.4904900              0.6125950              0.4491460
      0.9445400              0.3937990              0.2657040
SP   3   1.00
      1.2779000             -0.2276060             -0.0175130
      0.3975900              0.00144583             0.2445330
      0.1600950              1.0927900              0.8049340
SP   1   1.00
      0.0556577              1.0000000              1.0000000
D    1   1.00
      0.6500000              1.0000000
D    1   1.00
      0.1625000              1.0000000
F    1   1.00
      0.2500000              1.0000000
****
Si     0
S    6   1.00
  16115.9000000              0.00195948
   2425.5800000              0.01492880
    553.8670000              0.07284780
    156.3400000              0.24613000
     50.0683000              0.48591400
     17.0178000              0.32500200
SP   6   1.00
    292.7180000             -0.00278094             0.00443826
     69.8731000             -0.03571460             0.03266790
     22.3363000             -0.11498500             0.13472100
      8.1503900              0.09356340             0.32867800
      3.1345800              0.60301700             0.44964000
      1.2254300              0.41895900             0.26137200
SP   3   1.00
      1.7273800             -0.24463000            -0.01779510
      0.5729220              0.00431572             0.25353900
      0.2221920              1.09818000             0.80066900
SP   1   1.00
      0.0778369              1.00000000             1.00000000
D    1   1.00
      0.9000000              1.0000000
D    1   1.00
      0.2250000              1.0000000
F    1   1.00
      0.3200000              1.0000000
****
P     0
S    6   1.00
  19413.3000000              0.0018516
   2909.4200000              0.0142062
    661.3640000              0.0699995
    185.7590000              0.2400790
     59.1943000              0.4847620
     20.0310000              0.3352000
SP   6   1.00
    339.4780000             -0.00278217             0.00456462
     81.0101000             -0.0360499              0.03369360
     25.8780000             -0.1166310              0.13975500
      9.4522100              0.0968328              0.33936200
      3.6656600              0.6144180              0.45092100
      1.4674600              0.4037980              0.23858600
SP   3   1.00
      2.1562300             -0.2529230             -0.01776530
      0.7489970              0.0328517              0.27405800
      0.2831450              1.0812500              0.78542100
SP   1   1.00
      0.0998317              1.0000000              1.00000000
D    1   1.00
      1.1000000              1.0000000
D    1   1.00
      0.2750000              1.0000000
F    1   1.00
      0.4500000              1.0000000
****
S     0
S    6   1.00
  21917.1000000              0.0018690
   3301.4900000              0.0142300
    754.1460000              0.0696960
    212.7110000              0.2384870
     67.9896000              0.4833070
     23.0515000              0.3380740
SP   6   1.00
    423.7350000             -0.0023767              0.0040610
    100.7100000             -0.0316930              0.0306810
     32.1599000             -0.1133170              0.1304520
     11.8079000              0.0560900              0.3272050
      4.6311000              0.5922550              0.4528510
      1.8702500              0.4550060              0.2560420
SP   3   1.00
      2.6158400             -0.2503740             -0.0145110
      0.9221670              0.0669570              0.3102630
      0.3412870              1.0545100              0.7544830
SP   1   1.00
      0.1171670              1.0000000              1.0000000
D    1   1.00
      1.3000000              1.0000000
D    1   1.00
      0.3250000              1.0000000
F    1   1.00
      0.5500000              1.0000000
****
Cl     0
S    6   1.00
  25180.1000000              0.0018330
   3780.3500000              0.0140340
    860.4740000              0.0690970
    242.1450000              0.2374520
     77.3349000              0.4830340
     26.2470000              0.3398560
SP   6   1.00
    491.7650000             -0.0022974              0.0039894
    116.9840000             -0.0307140              0.0303180
     37.4153000             -0.1125280              0.1298800
     13.7834000              0.0450160              0.3279510
      5.4521500              0.5893530              0.4535270
      2.2258800              0.4652060              0.2521540
SP   3   1.00
      3.1864900             -0.2518300             -0.0142990
      1.1442700              0.0615890              0.3235720
      0.4203770              1.0601800              0.7435070
SP   1   1.00
      0.1426570              1.0000000              1.0000000
D    1   1.00
      1.5000000              1.0000000
D    1   1.00
      0.3750000              1.0000000
F    1   1.00
      0.7000000              1.0000000
****
}


set {
reference rhf                          
freeze_core true
e_convergence 10                       
d_convergence 10                      
dft_spherical_points 1202
dft_radial_points 99
}

e = energy('b3lyp')

print_out('Grab this energy {0}'.format(e))
--------------------------------------------------------------------------

  Memory set to  13.039 GiB by Python driver.

Scratch directory: /tmp/

*** tstart() called on n065
*** at Sat Nov  6 17:54:02 2021

   => Loading Basis Set <=

    Name: ANONYMOUS325CAA0B
    Role: ORBITAL
    Keyword: BASIS
    atoms 1-3 entry C          line    48 inputblock 6-31g_2dfp_ 
    atoms 4-9 entry H          line    15 inputblock 6-31g_2dfp_ 
    atoms 10  entry O          line    90 inputblock 6-31g_2dfp_ 


         ---------------------------------------------------------
                                   SCF
               by Justin Turney, Rob Parrish, Andy Simmonett
                          and Daniel G. A. Smith
                              RKS Reference
                        1 Threads,  13351 MiB Core
         ---------------------------------------------------------

  ==> Geometry <==

    Molecular point group: c2v
    Full point group: C2v

    Geometry (in Bohr), charge = 0, multiplicity = 1:

       Center              X                  Y                   Z               Mass       
    ------------   -----------------  -----------------  -----------------  -----------------
         C            0.000000000000    -2.428671858000     1.318902202688    12.000000000000
         C           -0.000000000000     0.000000000000    -0.193768189112    12.000000000000
         C           -0.000000000000     2.428671858000     1.318902202688    12.000000000000
         H            0.000000000000    -4.038871791300     0.045243038988     1.007825032230
         H           -1.661106207300    -2.499560938400     2.545040680388     1.007825032230
         H            1.661106207300    -2.499560938400     2.545040680388     1.007825032230
         H           -0.000000000000     4.038871791300     0.045243038988     1.007825032230
         H            1.661106207300     2.499560938400     2.545040680388     1.007825032230
         H           -1.661106207300     2.499560938400     2.545040680388     1.007825032230
         O           -0.000000000000     0.000000000000    -2.480754195712    15.994914619570

  Running in c2v symmetry.

  Rotational constants: A =      0.33844  B =      0.28564  C =      0.16431 [cm^-1]
  Rotational constants: A =  10146.24353  B =   8563.29094  C =   4925.88402 [MHz]
  Nuclear repulsion =  119.525858497708839

  Charge       = 0
  Multiplicity = 1
  Electrons    = 32
  Nalpha       = 16
  Nbeta        = 16

  ==> Algorithm <==

  SCF Algorithm Type is DF.
  DIIS enabled.
  MOM disabled.
  Fractional occupation disabled.
  Guess Type is SAD.
  Energy threshold   = 1.00e-10
  Density threshold  = 1.00e-10
  Integral threshold = 0.00e+00

  ==> Primary Basis <==

  Basis Set: ANONYMOUS325CAA0B
    Blend: 6-31G_2DFP_
    Number of shells: 56
    Number of basis function: 152
    Number of Cartesian functions: 172
    Spherical Harmonics?: true
    Max angular momentum: 3

  ==> DFT Potential <==

   => Composite Functional: B3LYP <= 

    B3LYP Hyb-GGA Exchange-Correlation Functional

    P. J. Stephens, F. J. Devlin, C. F. Chabalowski, and M. J. Frisch, J. Phys. Chem. 98, 11623 (1994)

    Deriv               =              1
    GGA                 =           TRUE
    Meta                =          FALSE

    Exchange Hybrid     =           TRUE
    MP2 Hybrid          =          FALSE

   => Exchange Functionals <=

    0.0800   Slater exchange
    0.7200         Becke 88

   => Exact (HF) Exchange <=

    0.2000               HF 

   => Correlation Functionals <=

    0.1900   Vosko, Wilk & Nusair (VWN5_RPA)
    0.8100   Lee, Yang & Parr

   => Molecular Quadrature <=

    Radial Scheme          =       TREUTLER
    Pruning Scheme         =           NONE
    Nuclear Scheme         =       TREUTLER

    BS radius alpha        =              1
    Pruning alpha          =              1
    Radial Points          =             99
    Spherical Points       =           1202
    Total Points           =        1114068
    Total Blocks           =           7389
    Max Points             =            256
    Max Functions          =            152
    Weights Tolerance      =       1.00E-15

   => Loading Basis Set <=

    Name: (ANONYMOUS325CAA0B AUX)
    Role: JKFIT
    Keyword: DF_BASIS_SCF
    atoms 1-3 entry C          line   198 file /opt/psi/4/master/share/psi4/basis/def2-universal-jkfit.gbs 
    atoms 4-9 entry H          line    18 file /opt/psi/4/master/share/psi4/basis/def2-universal-jkfit.gbs 
    atoms 10  entry O          line   318 file /opt/psi/4/master/share/psi4/basis/def2-universal-jkfit.gbs 

  ==> Integral Setup <==

  DFHelper Memory: AOs need 0.076 GiB; user supplied 5.853 GiB. Using in-core AOs.

  ==> MemDFJK: Density-Fitted J/K Matrices <==

    J tasked:                   Yes
    K tasked:                   Yes
    wK tasked:                   No
    OpenMP threads:               1
    Memory [MiB]:              5993
    Algorithm:                 Core
    Schwarz Cutoff:           1E-12
    Mask sparsity (%):       1.1080
    Fitting Condition:        1E-10

   => Auxiliary Basis Set <=

  Basis Set: (ANONYMOUS325CAA0B AUX)
    Blend: DEF2-UNIVERSAL-JKFIT
    Number of shells: 136
    Number of basis function: 410
    Number of Cartesian functions: 480
    Spherical Harmonics?: true
    Max angular momentum: 4

  Cached 100.0% of DFT collocation blocks in 3.926 [GiB].

  Minimum eigenvalue in the overlap matrix is 1.2591742219E-03.
  Reciprocal condition number of the overlap matrix is 2.4964901563E-04.
    Using symmetric orthogonalization.

  ==> Pre-Iterations <==

  SCF Guess: Superposition of Atomic Densities via on-the-fly atomic UHF (no occupation information).

   -------------------------
    Irrep   Nso     Nmo    
   -------------------------
     A1        53      53 
     A2        25      25 
     B1        31      31 
     B2        43      43 
   -------------------------
    Total     152     152
   -------------------------

  ==> Iterations <==

                           Total Energy        Delta E     RMS |[F,P]|

   @DF-RKS iter SAD:  -192.50412891549507   -1.92504e+02   0.00000e+00 
   @DF-RKS iter   1:  -192.86261386928766   -3.58485e-01   1.01166e-02 DIIS
   @DF-RKS iter   2:  -192.71037813487337    1.52236e-01   1.26263e-02 DIIS
   @DF-RKS iter   3:  -193.13860735784846   -4.28229e-01   3.45053e-03 DIIS
   @DF-RKS iter   4:  -193.16884358613470   -3.02362e-02   3.88549e-04 DIIS
   @DF-RKS iter   5:  -193.16927483268705   -4.31247e-04   4.62396e-05 DIIS
   @DF-RKS iter   6:  -193.16928070126770   -5.86858e-06   9.98004e-06 DIIS
   @DF-RKS iter   7:  -193.16928094669026   -2.45423e-07   2.91623e-06 DIIS
   @DF-RKS iter   8:  -193.16928097162358   -2.49333e-08   8.27097e-07 DIIS
   @DF-RKS iter   9:  -193.16928097344524   -1.82166e-09   1.70140e-07 DIIS
   @DF-RKS iter  10:  -193.16928097352945   -8.42135e-11   2.85334e-08 DIIS
   @DF-RKS iter  11:  -193.16928097353187   -2.41585e-12   4.90165e-09 DIIS
   @DF-RKS iter  12:  -193.16928097353184    2.84217e-14   2.34160e-10 DIIS
   @DF-RKS iter  13:  -193.16928097353187   -2.84217e-14   7.08519e-11 DIIS
  Energy and wave function converged.


  ==> Post-Iterations <==

    Orbital Energies [Eh]
    ---------------------

    Doubly Occupied:                                                      

       1A1   -19.131865     2A1   -10.269963     1B2   -10.183677  
       3A1   -10.183628     4A1    -1.036177     5A1    -0.769056  
       2B2    -0.710549     6A1    -0.530062     1B1    -0.459562  
       3B2    -0.458296     7A1    -0.449311     1A2    -0.403377  
       8A1    -0.393542     4B2    -0.378648     2B1    -0.347950  
       5B2    -0.244498  

    Virtual:                                                              

       3B1    -0.010312     9A1     0.072268    10A1     0.132027  
       6B2     0.134866     4B1     0.142009     2A2     0.166435  
       7B2     0.170690    11A1     0.190368     8B2     0.281709  
      12A1     0.293505    13A1     0.394153    14A1     0.404120  
       5B1     0.437105     3A2     0.453429     6B1     0.478478  
       9B2     0.486506    10B2     0.498190    11B2     0.548004  
      15A1     0.561886     7B1     0.577059     4A2     0.590557  
      16A1     0.600577    12B2     0.617691     5A2     0.625231  
      17A1     0.627260    18A1     0.656128    13B2     0.671752  
       8B1     0.735562    19A1     0.796069     9B1     0.823659  
       6A2     0.852695    14B2     0.874299     7A2     0.920789  
      10B1     0.934675    20A1     0.960356    15B2     0.969575  
      21A1     0.992012    11B1     1.067625    22A1     1.074580  
      12B1     1.103952    16B2     1.140202    23A1     1.185895  
      17B2     1.253673     8A2     1.257897    24A1     1.291408  
      18B2     1.317787    13B1     1.325065    25A1     1.326514  
      19B2     1.333372     9A2     1.353382    20B2     1.415481  
      26A1     1.445975    10A2     1.459205    14B1     1.483244  
      27A1     1.531075    21B2     1.587539    28A1     1.604430  
      29A1     1.683075    22B2     1.690419    11A2     1.748726  
      15B1     1.799641    23B2     1.814163    30A1     1.831507  
      12A2     1.968013    24B2     1.977656    31A1     1.988344  
      32A1     2.039452    16B1     2.214867    25B2     2.422401  
      33A1     2.492752    17B1     2.741361    13A2     2.771422  
      26B2     2.808884    34A1     2.846161    18B1     2.897120  
      27B2     2.924219    14A2     2.930320    35A1     2.940675  
      15A2     2.999071    28B2     3.008646    19B1     3.017550  
      20B1     3.090266    36A1     3.155934    29B2     3.211934  
      37A1     3.240987    16A2     3.350220    21B1     3.356889  
      30B2     3.399521    17A2     3.446218    38A1     3.465863  
      22B1     3.474203    18A2     3.504707    23B1     3.581208  
      39A1     3.585996    31B2     3.607903    40A1     3.623065  
      32B2     3.722035    41A1     3.787964    42A1     3.827268  
      33B2     3.855789    24B1     3.858414    43A1     4.001012  
      34B2     4.067930    19A2     4.088357    25B1     4.107848  
      35B2     4.148711    44A1     4.187417    45A1     4.195056  
      20A2     4.223636    36B2     4.345318    21A2     4.394574  
      26B1     4.405297    37B2     4.448606    22A2     4.511295  
      27B1     4.518075    46A1     4.541700    47A1     4.642625  
      38B2     4.698673    48A1     4.926203    39B2     4.978280  
      28B1     5.099900    40B2     5.103340    49A1     5.211003  
      29B1     5.225258    23A2     5.249378    41B2     5.307232  
      50A1     5.572077    24A2     5.582757    51A1     5.942523  
      30B1     5.950178    42B2     6.279047    25A2     6.857640  
      52A1     6.858450    31B1     7.160043    43B2     7.367507  
      53A1     7.580206  

    Final Occupation by Irrep:
             A1    A2    B1    B2 
    DOCC [     8,    1,    2,    5 ]

  @DF-RKS Final Energy:  -193.16928097353187

   => Energetics <=

    Nuclear Repulsion Energy =            119.5258584977088390
    One-Electron Energy =                -497.7173854673031883
    Two-Electron Energy =                 206.9663077232148112
    DFT Exchange-Correlation Energy =     -21.9440617271523237
    Empirical Dispersion Energy =           0.0000000000000000
    VV10 Nonlocal Energy =                  0.0000000000000000
    Total Energy =                       -193.1692809735318690

Computation Completed


Properties will be evaluated at   0.000000,   0.000000,   0.000000 [a0]

Properties computed using the SCF density matrix

  Nuclear Dipole Moment: [e a0]
     X:    -0.0000      Y:     0.0000      Z:     5.0888

  Electronic Dipole Moment: [e a0]
     X:     0.0000      Y:     0.0000      Z:    -4.0056

  Dipole Moment: [e a0]
     X:    -0.0000      Y:     0.0000      Z:     1.0832     Total:     1.0832

  Dipole Moment: [D]
     X:    -0.0000      Y:     0.0000      Z:     2.7533     Total:     2.7533


*** tstop() called on n065 at Sat Nov  6 17:55:10 2021
Module time:
	user time   =      66.54 seconds =       1.11 minutes
	system time =       1.00 seconds =       0.02 minutes
	total time  =         68 seconds =       1.13 minutes
Total time:
	user time   =      66.54 seconds =       1.11 minutes
	system time =       1.00 seconds =       0.02 minutes
	total time  =         68 seconds =       1.13 minutes
Grab this energy -193.16928097353187
    Psi4 stopped on: Saturday, 06 November 2021 05:55PM
    Psi4 wall time for execution: 0:01:07.58

*** Psi4 exiting successfully. Buy a developer a beer!
