
 Primary working directories    : /tmp/1065196.846.gen6.q
 Secondary working directories  : /tmp/1065196.846.gen6.q
 Wavefunction directory         : /home/vulcan/jj04645/wfu/
 Main file repository           : /tmp/1065196.846.gen6.q/

 ARCHNAME  : Linux/x86_64
 FC        : /opt/intel/compilers_and_libraries_2016.1.150/linux/bin/intel64/ifort
 FCVERSION : 16.0.1
 BLASLIB   : -mkl
 id        : ccgc

 Nodes     nprocs
 n083         1
 ga_uses_ma=false, calling ma_init with nominal heap.
 GA-space will be limited to   8.0 MW (determined by -G option)

 Using customized tuning parameters: mindgm=10; mindgv=16; mindgc=4; mindgr=1; noblas=0; mincuda=1000; minvec=7
 default implementation of scratch files=df  

 ***,Optimization of t-butanol
 memory,1000,m
 gthresh,energy=1.0d-12,orbital=1.0d-10,oneint=1.0d-16,twoint=1.0d-16,optgrad=1.0d-6,compress=1.0d-13
 geomtyp=xyz
 
 bohr
 geometry = {
  C    0.0044032860   -0.0571186460   -0.0001534959
  O   -0.0231055286    2.6556438596    0.0015131642
  C   -2.7681921006   -0.8322856917   -0.0006490794
  C    1.3361192374   -1.0150015832   -2.3780893377
  C    1.3360861680   -1.0179231059    2.3766219364
  H    1.7094444469    3.2103009549    0.0018660221
  H   -2.9461104416   -2.8883737873   -0.0019136760
  H   -3.7111631747   -0.0811069545   -1.6743110924
  H   -3.7111864630   -0.0831642685    1.6739216719
  H    1.3128338444   -3.0783935434   -2.4613135612
  H    3.3167858737   -0.4027647479   -2.3968528308
  H    0.3997848963   -0.2777790989   -4.0554984920
  H    1.3127800731   -3.0814169078    2.4572756261
  H    3.3130374896   -0.3940651097    2.4029089679
  H    0.4080949545   -0.2716701684    4.0546741767
 }
 
 basis=VDZ
 {rhf;maxit,200}
 {ccsd(t);maxit,200}

 Variables initialized (661), CPU time= 0.01 sec
 Commands  initialized (458), CPU time= 0.00 sec, 486 directives.
 Default parameters read. Elapsed time= 0.04 sec

 Checking input...
 Passed
1


                                         ***  PROGRAM SYSTEM MOLPRO  ***
                         Copyright, University College Cardiff Consultants Limited, 2008

                                    Version 2010.1 linked May 16 2016 07:17:05


 **********************************************************************************************************************************
 LABEL *   Optimization of t-butanol                                                     
 Linux-4.4.3/n083(x86_64) 64 bit mpp version                                             DATE: 20-May-24          TIME: 13:52:34  
 **********************************************************************************************************************************

 SHA1:             9e8077add272b0f3cad6f7df79ec5211205f459d
 **********************************************************************************************************************************

 THRESHOLDS:

 ZERO    =  1.00D-12  ONEINT  =  1.00D-16  TWOINT  =  1.00D-16  PREFAC  =  1.00D-14  LOCALI  =  1.00D-09  EORDER  =  1.00D-04
 ENERGY  =  1.00D-12  ETEST   =  0.00D+00  EDENS   =  0.00D+00  THRDEDEF=  1.00D-06  GRADIENT=  1.00D-02  STEP    =  1.00D-03
 ORBITAL =  1.00D-10  CIVEC   =  1.00D-05  COEFF   =  1.00D-04  PRINTCI =  5.00D-02  PUNCHCI =  9.90D+01  OPTGRAD =  1.00D-06
 OPTENERG=  1.00D-06  OPTSTEP =  3.00D-04  THRGRAD =  1.00D-10  COMPRESS=  1.00D-13  VARMIN  =  1.00D-07  VARMAX  =  1.00D-03
 THRDOUB =  0.00D+00  THRDIV  =  1.00D-05  THRRED  =  1.00D-07  THRPSP  =  1.00D+00  THRDC   =  1.00D-10  THRCS   =  1.00D-10
 THRNRM  =  1.00D-08  THREQ   =  0.00D+00  THRDE   =  1.00D+00  THRREF  =  1.00D-05  SPARFAC =  1.00D+00  THRDLP  =  1.00D-07
 THRDIA  =  1.00D-10  THRDLS  =  1.00D-07  THRGPS  =  0.00D+00  THRKEX  =  0.00D+00  THRDIS  =  2.00D-01  THRVAR  =  1.00D-10
 THRLOC  =  1.00D-06  THRGAP  =  1.00D-06  THRLOCT = -1.00D+00  THRGAPT = -1.00D+00  THRORB  =  1.00D-06  THRMLTP =  0.00D+00
 THRCPQCI=  1.00D-10  KEXTA   =  0.00D+00  THRCOARS=  0.00D+00  SYMTOL  =  1.00D-06  GRADTOL =  1.00D-06  THROVL  =  1.00D-08
 THRORTH =  1.00D-08  GRID    =  1.00D-06  GRIDMAX =  1.00D-03  DTMAX   =  0.00D+00

 SETTING GEOMTYP        =    XYZ
 ZUNIT=BOHR
 

 Variable memory set to 1000000000 words,  buffer space   230000 words

 SETTING BASIS          =    VDZ


 Recomputing integrals since basis changed


 Using spherical harmonics

 Library entry C      S cc-pVDZ              selected for orbital group  1
 Library entry C      P cc-pVDZ              selected for orbital group  1
 Library entry C      D cc-pVDZ              selected for orbital group  1
 Library entry O      S cc-pVDZ              selected for orbital group  2
 Library entry O      P cc-pVDZ              selected for orbital group  2
 Library entry O      D cc-pVDZ              selected for orbital group  2
 Library entry H      S cc-pVDZ              selected for orbital group  4
 Library entry H      P cc-pVDZ              selected for orbital group  4

1PROGRAM * SEWARD (Integral evaluation for generally contracted gaussian basis sets)     Author: Roland Lindh, 1990

 Geometry written to block  1 of record 700


 Point group  C1  



 ATOMIC COORDINATES

 NR  ATOM    CHARGE       X              Y              Z

   1  C       6.00    0.004403286   -0.057118646   -0.000153496
   2  O       8.00   -0.023105529    2.655643860    0.001513164
   3  C       6.00   -2.768192101   -0.832285692   -0.000649079
   4  C       6.00    1.336119237   -1.015001583   -2.378089338
   5  C       6.00    1.336086168   -1.017923106    2.376621936
   6  H       1.00    1.709444447    3.210300955    0.001866022
   7  H       1.00   -2.946110442   -2.888373787   -0.001913676
   8  H       1.00   -3.711163175   -0.081106954   -1.674311092
   9  H       1.00   -3.711186463   -0.083164268    1.673921672
  10  H       1.00    1.312833844   -3.078393543   -2.461313561
  11  H       1.00    3.316785874   -0.402764748   -2.396852831
  12  H       1.00    0.399784896   -0.277779099   -4.055498492
  13  H       1.00    1.312780073   -3.081416908    2.457275626
  14  H       1.00    3.313037490   -0.394065110    2.402908968
  15  H       1.00    0.408094954   -0.271670168    4.054674177

 Bond lengths in Bohr (Angstrom)

 1-2  2.712902491  1-3  2.878918091  1-4  2.888872784  1-5  2.888872784  2-6  1.819168501
     ( 1.435606168)     ( 1.523457840)     ( 1.528725637)     ( 1.528725637)     ( 0.962662510)

  3- 7  2.063771982   3- 8  2.062670229   3- 9  2.062670229   4-10  2.065200925   4-11  2.073216423
       ( 1.092101097)       ( 1.091518075)       ( 1.091518075)       ( 1.092857262)       ( 1.097098880)

  4-12  2.057649256   5-13  2.065200925   5-14  2.073216423   5-15  2.057649256
       ( 1.088861090)       ( 1.092857262)       ( 1.097098880)       ( 1.088861090)

 Bond angles

  1-2-6  107.17091859   1-3-7  110.56564859   1-3-8  110.02067678   1-3-9  110.02067680

  1- 4-10  111.05473866   1- 4-11  110.48335322   1- 4-12  110.02668445   1- 5-13  111.05363904

  1- 5-14  110.48225584   1- 5-15  110.02558715   2- 1- 3  105.03903602   2- 1- 4  109.67835923

  2-1-5  109.67835923   3-1-4  110.76498583   3-1-5  110.76498583   4-1-5  110.75948302

  7- 3- 8  108.83916948   7- 3- 9  108.83916951   8- 3- 9  108.51019466  10- 4-11  107.78560834

 10- 4-12  108.66218531  11- 4-12  108.75697809  13- 5-14  108.11530602  13- 5-15  108.99188318

 14- 5-15  108.09428831

 NUCLEAR CHARGE:                   42
 NUMBER OF PRIMITIVE AOS:         205
 NUMBER OF SYMMETRY AOS:          200
 NUMBER OF CONTRACTIONS:          120   ( 120A   )
 NUMBER OF CORE ORBITALS:           5   (   5A   )
 NUMBER OF VALENCE ORBITALS:       30   (  30A   )


 NUCLEAR REPULSION ENERGY  199.65101043


 Eigenvalues of metric

         1 0.260E-02 0.488E-02 0.490E-02 0.835E-02 0.169E-01 0.191E-01 0.192E-01 0.240E-01


 Contracted 2-electron integrals neglected if value below      1.0D-16
 AO integral compression algorithm  1   Integral accuracy      1.0D-16

     221.512 MB (compressed) written to integral file ( 96.8%)

     Node minimum: 221.512 MB, node maximum: 221.512 MB


 NUMBER OF SORTED TWO-ELECTRON INTEGRALS:   26357430.     BUFFER LENGTH:  32768
 NUMBER OF SEGMENTS:   2  SEGMENT LENGTH:   15997996      RECORD LENGTH: 524288

 Memory used in sort:      16.56 MW

 SORT1 READ    28587749. AND WROTE    26318673. INTEGRALS IN     76 RECORDS. CPU TIME:     0.26 SEC, REAL TIME:     0.40 SEC
 SORT2 READ    26318673. AND WROTE    26357430. INTEGRALS IN    845 RECORDS. CPU TIME:     0.19 SEC, REAL TIME:     0.30 SEC

 FILE SIZES:   FILE 1:   206.7 MBYTE,  FILE 4:   318.8 MBYTE,   TOTAL:    525.5 MBYTE

 OPERATOR DM      FOR CENTER  0  COORDINATES:    0.000000    0.000000    0.000000


 **********************************************************************************************************************************
 DATASETS  * FILE   NREC   LENGTH (MB)   RECORD NAMES
              1      19      206.92       500      610      700      900      950      970     1000      129      960     1100   
                                          VAR    BASINP    GEOM    SYMINP    ZMAT    AOBASIS   BASIS     P2S    ABASIS      S 
                                         1400     1410     1200     1210     1080     1600     1650     1300     1700   
                                           T        V       H0       H01     AOSYM     SMH    MOLCAS    ERIS     OPER   

 PROGRAMS   *        TOTAL       INT
 CPU TIMES  *         2.54      2.50
 REAL TIME  *         3.06 SEC
 DISK USED  *       748.01 MB      
 GA USED    *         0.01 MB       (max)       0.00 MB       (current)
 **********************************************************************************************************************************

1PROGRAM * RHF-SCF (CLOSED SHELL)       Authors: W. Meyer, H.-J. Werner


 NUMBER OF ELECTRONS:      21+   21-    SPACE SYMMETRY=1    SPIN SYMMETRY: Singlet 
 CONVERGENCE THRESHOLDS:    1.00E-10 (Density)    1.00E-13 (Energy)
 MAX. NUMBER OF ITERATIONS:      200
 INTERPOLATION TYPE:            DIIS
 INTERPOLATION STEPS:              2 (START)      1 (STEP)
 LEVEL SHIFTS:                  0.00 (CLOSED)  0.00 (OPEN) 



 Orbital guess generated from atomic densities. Full valence occupancy:   35

 Molecular orbital dump at record        2100.2

 ITERATION    DDIFF          GRAD             ENERGY        2-EL.EN.            DIPOLE MOMENTS         DIIS
    1      0.000D+00      0.000D+00      -232.08672811    561.120571    0.89255   -0.62542    0.00044    0
    2      0.000D+00      0.616D-02      -232.16302934    555.892044    0.40679   -0.32454    0.00014    1
    3      0.122D-01      0.265D-02      -232.17372357    557.892671    0.52821   -0.43058    0.00018    2
    4      0.389D-02      0.733D-03      -232.17502398    557.664368    0.50098   -0.39440    0.00019    3
    5      0.141D-02      0.192D-03      -232.17510107    557.601488    0.50012   -0.40660    0.00017    4
    6      0.307D-03      0.357D-04      -232.17510411    557.621578    0.49949   -0.40494    0.00017    5
    7      0.899D-04      0.658D-05      -232.17510425    557.615943    0.49942   -0.40510    0.00017    6
    8      0.184D-04      0.210D-05      -232.17510427    557.617521    0.49942   -0.40520    0.00017    7
    9      0.398D-05      0.678D-06      -232.17510427    557.617176    0.49939   -0.40521    0.00017    7
   10      0.154D-05      0.190D-06      -232.17510427    557.617230    0.49940   -0.40522    0.00017    7
   11      0.500D-06      0.390D-07      -232.17510427    557.617218    0.49940   -0.40523    0.00017    7
   12      0.123D-06      0.120D-07      -232.17510427    557.617226    0.49940   -0.40523    0.00017    7
   13      0.242D-07      0.518D-08      -232.17510427    557.617224    0.49940   -0.40523    0.00017    7
   14      0.101D-07      0.170D-08      -232.17510427    557.617224    0.49940   -0.40523    0.00017    8
   15      0.302D-08      0.441D-09      -232.17510427    557.617224    0.49940   -0.40523    0.00017    8
   16      0.105D-08      0.109D-09      -232.17510427    557.617224    0.49940   -0.40523    0.00017    7
   17      0.253D-09      0.302D-10      -232.17510427    557.617224    0.49940   -0.40523    0.00017    7
   18      0.788D-10      0.853D-11      -232.17510427    557.617224    0.49940   -0.40523    0.00017    8
   19      0.173D-10      0.229D-11      -232.17510427    557.617224    0.49940   -0.40523    0.00017    8
   20      0.631D-11      0.761D-12      -232.17510427    557.617224    0.49940   -0.40523    0.00017    7
   21      0.183D-11      0.264D-12      -232.17510427    557.617224    0.49940   -0.40523    0.00017    7
   22      0.635D-12      0.982D-13      -232.17510427    557.617224    0.49940   -0.40523    0.00017    7
   23      0.346D-12      0.541D-13      -232.17510427    557.617224    0.49940   -0.40523    0.00017    8
   24      0.196D-12      0.286D-13      -232.17510427    557.617224    0.49940   -0.40523    0.00017    8
   25      0.113D-12      0.309D-13      -232.17510427    557.617224    0.49940   -0.40523    0.00017    9
   26      0.900D-13      0.253D-13      -232.17510427    557.617224    0.49940   -0.40523    0.00017    9
   27      0.550D-13      0.272D-13      -232.17510427    557.617224    0.49940   -0.40523    0.00017    9
   28      0.445D-13      0.249D-13      -232.17510427    557.617224    0.49940   -0.40523    0.00017    9
   29      0.287D-13      0.275D-13      -232.17510427    557.617224    0.49940   -0.40523    0.00017    9
   30      0.118D-13      0.242D-13      -232.17510427    557.617224    0.49940   -0.40523    0.00017    9
   31      0.196D-13      0.233D-13      -232.17510427    557.617224    0.49940   -0.40523    0.00017    9
   32      0.474D-14      0.216D-13      -232.17510427    557.617224    0.49940   -0.40523    0.00017    9
   33      0.188D-13      0.230D-13      -232.17510427    557.617224    0.49940   -0.40523    0.00017    9
   34      0.223D-13      0.224D-13      -232.17510427    557.617224    0.49940   -0.40523    0.00017    9
   35      0.397D-13      0.295D-13      -232.17510427    557.617224    0.49940   -0.40523    0.00017    9
   36      0.402D-13      0.275D-13      -232.17510427    557.617224    0.49940   -0.40523    0.00017    0

 Final occupancy:  21

 !RHF STATE 1.1 Energy               -232.175104267935
 Nuclear energy                       199.65101043
 One-electron energy                 -710.63472656
 Two-electron energy                  278.80861186
 Virial quotient                       -1.00088954
 !RHF STATE 1.1 Dipole moment           0.49939586    -0.40522883     0.00017040
 Dipole moment /Debye                   1.26925452    -1.02992149     0.00043308

 Orbital energies:

         1.1          2.1          3.1          4.1          5.1          6.1          7.1          8.1          9.1         10.1
    -20.545134   -11.282106   -11.220457   -11.220436   -11.214466    -1.352181    -1.064285    -0.940026    -0.938076    -0.766710

        11.1         12.1         13.1         14.1         15.1         16.1         17.1         18.1         19.1         20.1
     -0.665712    -0.620565    -0.618052    -0.573808    -0.553697    -0.527860    -0.514656    -0.505212    -0.500350    -0.458089

        21.1         22.1         23.1
     -0.426873     0.166838     0.220204


 **********************************************************************************************************************************
 DATASETS  * FILE   NREC   LENGTH (MB)   RECORD NAMES
              1      19      206.92       500      610      700      900      950      970     1000      129      960     1100   
                                          VAR    BASINP    GEOM    SYMINP    ZMAT    AOBASIS   BASIS     P2S    ABASIS      S 
                                         1400     1410     1200     1210     1080     1600     1650     1300     1700   
                                           T        V       H0       H01     AOSYM     SMH    MOLCAS    ERIS     OPER   

              2       3        0.80       700     1000     2100   
                                         GEOM     BASIS     RHF  

 PROGRAMS   *        TOTAL       RHF       INT
 CPU TIMES  *         7.95      5.41      2.50
 REAL TIME  *         9.15 SEC
 DISK USED  *       748.01 MB      
 GA USED    *         0.01 MB       (max)       0.00 MB       (current)
 **********************************************************************************************************************************


1PROGRAM * CCSD (Closed-shell coupled cluster)     Authors: C. Hampel, H.-J. Werner, 1991, M. Deegan, P.J. Knowles, 1992


 Convergence thresholds:  THRVAR = 1.00D-08  THRDEN = 1.00D-12

 CCSD(T)     terms to be evaluated (factor= 1.000)


 Number of core orbitals:           5 (   5 )
 Number of closed-shell orbitals:  16 (  16 )
 Number of external orbitals:      99 (  99 )

 Molecular orbitals read from record     2100.2  Type=RHF/CANONICAL (state 1.1)

 Number of N-1 electron functions:              16
 Number of N-2 electron functions:             136
 Number of singly external CSFs:              1584
 Number of doubly external CSFs:           1255320
 Total number of CSFs:                     1256905

 Length of J-op  integral file:               0.00 MB
 Length of K-op  integral file:               1.03 MB
 Length of 3-ext integral record:             0.00 MB

 Memory could be reduced to 21.47 Mwords without degradation in triples

 Integral transformation finished. Total CPU:   1.08 sec, npass=  1  Memory used:  18.35 MW

 Reference energy:                   -232.17510427

 MP2 singlet pair energy:              -0.49759471
 MP2 triplet pair energy:              -0.27475136
 MP2 correlation energy:               -0.77234607
 MP2 total energy:                   -232.94745033

 SCS-MP2 correlation energy:           -0.76807005   (PS=  1.200000  PT=  0.333333)
 SCS-MP2 total energy:               -232.94317432

 ITER.      SQ.NORM     CORR.ENERGY   TOTAL ENERGY   ENERGY CHANGE        DEN1      VAR(S)    VAR(P)  DIIS     TIME
   1      1.27363314    -0.82954530  -233.00464957    -0.05719924    -0.03605965  0.25D-02  0.44D-02  1  1     4.43
   2      1.29482000    -0.83386631  -233.00897058    -0.00432101    -0.02220539  0.67D-04  0.42D-03  2  2     7.82
   3      1.29934689    -0.83407651  -233.00918078    -0.00021020    -0.00277734  0.25D-04  0.24D-04  3  3    11.21
   4      1.30061564    -0.83408238  -233.00918665    -0.00000586    -0.00060354  0.64D-06  0.21D-05  4  4    14.61
   5      1.30084740    -0.83409135  -233.00919561    -0.00000897    -0.00008114  0.19D-06  0.15D-06  5  5    18.02
   6      1.30088864    -0.83408808  -233.00919235     0.00000326    -0.00001322  0.26D-07  0.14D-07  6  6    21.43
   7      1.30089559    -0.83408686  -233.00919113     0.00000122    -0.00000072  0.38D-08  0.17D-08  6  1    24.84
   8      1.30089917    -0.83408687  -233.00919114    -0.00000001    -0.00000042  0.68D-09  0.22D-09  6  2    28.25
   9      1.30089974    -0.83408681  -233.00919108     0.00000006     0.00000057  0.64D-10  0.39D-10  6  4    31.65
  10      1.30090033    -0.83408680  -233.00919107     0.00000001    -0.00000001  0.51D-11  0.38D-11  6  3    35.06
  11      1.30090030    -0.83408680  -233.00919107    -0.00000000     0.00000005  0.79D-12  0.47D-12  6  5    38.46
  12      1.30090024    -0.83408680  -233.00919107    -0.00000000     0.00000003  0.14D-12  0.66D-13  6  6    41.87
  13      1.30090019    -0.83408680  -233.00919107    -0.00000000     0.00000003  0.11D-13  0.10D-13  6  2    45.29
  14      1.30090017    -0.83408680  -233.00919107    -0.00000000     0.00000001  0.17D-14  0.62D-15  6  1    48.68
  15      1.30090017    -0.83408680  -233.00919107    -0.00000000     0.00000000  0.22D-15  0.13D-15  6  4    52.09
  16      1.30090017    -0.83408680  -233.00919107     0.00000000    -0.00000000  0.35D-16  0.20D-16  6  3    55.50
  17      1.30090017    -0.83408680  -233.00919107     0.00000000    -0.00000000  0.34D-17  0.26D-17  6  5    58.91
  18      1.30090017    -0.83408680  -233.00919107    -0.00000000    -0.00000000  0.91D-18  0.35D-18  6  6    62.32
  19      1.30090017    -0.83408680  -233.00919107    -0.00000000    -0.00000000  0.22D-18  0.64D-19  6  2    65.72
  20      1.30090017    -0.83408680  -233.00919107    -0.00000000     0.00000000  0.34D-19  0.12D-19  6  1    69.12
  21      1.30090017    -0.83408680  -233.00919107    -0.00000000     0.00000000  0.42D-20  0.22D-20  6  4    72.53
  22      1.30090017    -0.83408680  -233.00919107     0.00000000    -0.00000000  0.75D-21  0.33D-21  6  3    75.94

 Norm of t1 vector:      0.06605284      S-energy:    -0.00000000      T1 diagnostic:  0.00825660
                                                                       D1 diagnostic:  0.02160777


 Total CPU time for triples:     49.99 sec


 RESULTS
 =======

  Reference energy                   -232.175104267935
  CCSD singlet pair energy             -0.581022922913
  CCSD triplet pair energy             -0.253063882037
  CCSD correlation energy              -0.834086804950

  Triples (T) contribution             -0.023260703759
  Total correlation energy             -0.857347508709

  CCSD total energy                  -233.009191072885
  CCSD[T] energy                     -233.033148633125
  CCSD-T energy                      -233.032115752147
 !CCSD(T) total energy               -233.032451776644

 Timing summary (sec):

 STEP                 CPU(USER)    SYS     CPU(TOT)    WALL
 Transformation          1.13      0.13      1.26      1.26
 CCSD iterations        74.81      1.71     76.52     76.63
 Triples                49.99      1.00     50.99     51.00

 Program statistics:

 Available memory in ccsd:               999998876
 Min. memory needed in ccsd:               3310297
 Max. memory used in ccsd:                 4412497
 Max. memory used in cckext:               4149679 (22 integral passes)



 **********************************************************************************************************************************
 DATASETS  * FILE   NREC   LENGTH (MB)   RECORD NAMES
              1      20      293.58       500      610      700      900      950      970     1000      129      960     1100   
                                          VAR    BASINP    GEOM    SYMINP    ZMAT    AOBASIS   BASIS     P2S    ABASIS      S 
                                         1400     1410     1200     1210     1080     1600     1650     1300     1700     1380   
                                           T        V       H0       H01     AOSYM     SMH    MOLCAS    ERIS     OPER     JKOP   

              2       3        0.80       700     1000     2100   
                                         GEOM     BASIS     RHF  

 PROGRAMS   *        TOTAL   CCSD(T)       RHF       INT
 CPU TIMES  *       133.89    125.93      5.41      2.50
 REAL TIME  *       138.08 SEC
 DISK USED  *       748.01 MB      
 GA USED    *         0.01 MB       (max)       0.00 MB       (current)
 **********************************************************************************************************************************

        CCSD(T)         RHF-SCF 
   -233.03245178   -232.17510427
 **********************************************************************************************************************************
 Variable memory released
