
 Primary working directories    : /tmp/1011203.44.gen4.q
 Secondary working directories  : /tmp/1011203.44.gen4.q
 Wavefunction directory         : /home/vulcan/mel64643/wfu/
 Main file repository           : /tmp/1011203.44.gen4.q/

 ARCHNAME  : Linux/x86_64
 FC        : /opt/intel/compilers_and_libraries_2016.1.150/linux/bin/intel64/ifort
 FCVERSION : 16.0.1
 BLASLIB   : -mkl
 id        : ccgc

 Nodes     nprocs
 n049         1
 ga_uses_ma=false, calling ma_init with nominal heap.
 GA-space will be limited to   8.0 MW (determined by -G option)

 Using customized tuning parameters: mindgm=10; mindgv=16; mindgc=4; mindgr=1; noblas=0; mincuda=1000; minvec=7
 default implementation of scratch files=df  

 ***,Optimization of c2h4_2
 memory,1000,m
 gthresh,energy=1.0d-12,orbital=1.0d-10,oneint=1.0d-16,twoint=1.0d-16,optgrad=1.0d-6,compress=1.0d-13
 geomtyp=xyz
 
 
 
 bohr
 geometry = {
  C   -1.2681933729    0.0000010051   -3.4914891220
  C    1.2681933729   -0.0000010051   -3.4914891220
  H   -2.3400806853    0.0030890073   -1.7451371299
  H    2.3400806853   -0.0030890073   -1.7451371299
  H   -2.3344463164   -0.0030900105   -5.2405058233
  H    2.3344463164    0.0030900105   -5.2405058233
  C   -0.0000010051    1.2681932819    3.4914694210
  C    0.0000010051   -1.2681932819    3.4914694210
  H   -0.0030890047    2.3400823123    1.7451188779
  H    0.0030890047   -2.3400823123    1.7451188779
  H    0.0030900118    2.3344449814    5.2404868143
  H   -0.0030900118   -2.3344449814    5.2404868143
 }
 
 basis=aug-cc-pvdz, H=cc-pvdz
 {rhf;maxit,200}
 {mp2}

 Variables initialized (661), CPU time= 0.01 sec
 Commands  initialized (458), CPU time= 0.00 sec, 486 directives.
 Default parameters read. Elapsed time= 0.05 sec

 Checking input...
 Passed
1


                                         ***  PROGRAM SYSTEM MOLPRO  ***
                         Copyright, University College Cardiff Consultants Limited, 2008

                                    Version 2010.1 linked May 16 2016 07:17:05


 **********************************************************************************************************************************
 LABEL *   Optimization of c2h4_2                                                        
 Linux-4.4.3/n049(x86_64) 64 bit mpp version                                             DATE: 25-Feb-24          TIME: 14:14:07  
 **********************************************************************************************************************************

 SHA1:             9e8077add272b0f3cad6f7df79ec5211205f459d
 **********************************************************************************************************************************

 THRESHOLDS:

 ZERO    =  1.00D-12  ONEINT  =  1.00D-16  TWOINT  =  1.00D-16  PREFAC  =  1.00D-14  LOCALI  =  1.00D-09  EORDER  =  1.00D-04
 ENERGY  =  1.00D-12  ETEST   =  0.00D+00  EDENS   =  0.00D+00  THRDEDEF=  1.00D-06  GRADIENT=  1.00D-02  STEP    =  1.00D-03
 ORBITAL =  1.00D-10  CIVEC   =  1.00D-05  COEFF   =  1.00D-04  PRINTCI =  5.00D-02  PUNCHCI =  9.90D+01  OPTGRAD =  1.00D-06
 OPTENERG=  1.00D-06  OPTSTEP =  3.00D-04  THRGRAD =  1.00D-10  COMPRESS=  1.00D-13  VARMIN  =  1.00D-07  VARMAX  =  1.00D-03
 THRDOUB =  0.00D+00  THRDIV  =  1.00D-05  THRRED  =  1.00D-07  THRPSP  =  1.00D+00  THRDC   =  1.00D-10  THRCS   =  1.00D-10
 THRNRM  =  1.00D-08  THREQ   =  0.00D+00  THRDE   =  1.00D+00  THRREF  =  1.00D-05  SPARFAC =  1.00D+00  THRDLP  =  1.00D-07
 THRDIA  =  1.00D-10  THRDLS  =  1.00D-07  THRGPS  =  0.00D+00  THRKEX  =  0.00D+00  THRDIS  =  2.00D-01  THRVAR  =  1.00D-10
 THRLOC  =  1.00D-06  THRGAP  =  1.00D-06  THRLOCT = -1.00D+00  THRGAPT = -1.00D+00  THRORB  =  1.00D-06  THRMLTP =  0.00D+00
 THRCPQCI=  1.00D-10  KEXTA   =  0.00D+00  THRCOARS=  0.00D+00  SYMTOL  =  1.00D-06  GRADTOL =  1.00D-06  THROVL  =  1.00D-08
 THRORTH =  1.00D-08  GRID    =  1.00D-06  GRIDMAX =  1.00D-03  DTMAX   =  0.00D+00

 SETTING GEOMTYP        =    XYZ
 ZUNIT=BOHR
 

 Variable memory set to 1000000000 words,  buffer space   230000 words

 SETTING BASIS          =    AUG-CC-PVDZ,H=CC-PVDZ


 Recomputing integrals since basis changed


 Using spherical harmonics

 Library entry C      S aug-cc-pVDZ          selected for orbital group  1
 Library entry C      P aug-cc-pVDZ          selected for orbital group  1
 Library entry C      D aug-cc-pVDZ          selected for orbital group  1
 Library entry H      S cc-pVDZ              selected for orbital group  2
 Library entry H      P cc-pVDZ              selected for orbital group  2

1PROGRAM * SEWARD (Integral evaluation for generally contracted gaussian basis sets)     Author: Roland Lindh, 1990

 Geometry written to block  1 of record 700


 Point group  C2  



 ATOMIC COORDINATES

 NR  ATOM    CHARGE       X              Y              Z

   1  C       6.00   -1.268193373    0.000001005   -3.491489122
   2  C       6.00    1.268193373   -0.000001005   -3.491489122
   3  H       1.00   -2.340080685    0.003089007   -1.745137130
   4  H       1.00    2.340080685   -0.003089007   -1.745137130
   5  H       1.00   -2.334446316   -0.003090010   -5.240505823
   6  H       1.00    2.334446316    0.003090010   -5.240505823
   7  C       6.00   -0.000001005    1.268193282    3.491469421
   8  C       6.00    0.000001005   -1.268193282    3.491469421
   9  H       1.00   -0.003089005    2.340082312    1.745118878
  10  H       1.00    0.003089005   -2.340082312    1.745118878
  11  H       1.00    0.003090012    2.334444981    5.240486814
  12  H       1.00   -0.003090012   -2.334444981    5.240486814

 Bond lengths in Bohr (Angstrom)

 1-2  2.536386746  1-3  2.049072284  1-5  2.048405310  2-4  2.049072284  2-6  2.048405310
     ( 1.342198059)     ( 1.084322352)     ( 1.083969405)     ( 1.084322352)     ( 1.083969405)

  7- 8  2.536386564   7- 9  2.049071948   7-11  2.048405254   8-10  2.049071948   8-12  2.048405254
       ( 1.342197963)       ( 1.084322175)       ( 1.083969375)       ( 1.084322175)       ( 1.083969375)

 Bond angles

  1-2-4  121.54100156   1-2-6  121.36769573   2-1-3  121.54100156   2-1-5  121.36769573

  3- 1- 5  117.09130271   4- 2- 6  117.09130271   7- 8-10  121.54106370   7- 8-12  121.36765594

  8- 7- 9  121.54106370   8- 7-11  121.36765594   9- 7-11  117.09128036  10- 8-12  117.09128036

 NUCLEAR CHARGE:                   32
 NUMBER OF PRIMITIVE AOS:         204
 NUMBER OF SYMMETRY AOS:          196
 NUMBER OF CONTRACTIONS:          132   (  66A   +  66B   )
 NUMBER OF CORE ORBITALS:           4   (   2A   +   2B   )
 NUMBER OF VALENCE ORBITALS:       24   (  12A   +  12B   )


 NUCLEAR REPULSION ENERGY  102.11568754


 Eigenvalues of metric

         1 0.590E-02 0.672E-02 0.743E-02 0.880E-02 0.119E-01 0.121E-01 0.194E-01 0.200E-01
         2 0.176E-03 0.176E-03 0.335E-03 0.335E-03 0.556E-02 0.559E-02 0.796E-02 0.796E-02


 Contracted 2-electron integrals neglected if value below      1.0D-16
 AO integral compression algorithm  1   Integral accuracy      1.0D-16

     157.811 MB (compressed) written to integral file ( 76.9%)

     Node minimum: 157.811 MB, node maximum: 157.811 MB


 NUMBER OF SORTED TWO-ELECTRON INTEGRALS:   19556295.     BUFFER LENGTH:  32768
 NUMBER OF SEGMENTS:   2  SEGMENT LENGTH:   15994374      RECORD LENGTH: 524288

 Memory used in sort:      16.55 MW

 SORT1 READ    25667632. AND WROTE    18955348. INTEGRALS IN     55 RECORDS. CPU TIME:     0.26 SEC, REAL TIME:     0.38 SEC
 SORT2 READ    18955348. AND WROTE    19556295. INTEGRALS IN    602 RECORDS. CPU TIME:     0.26 SEC, REAL TIME:     0.34 SEC

 FILE SIZES:   FILE 1:   129.3 MBYTE,  FILE 4:   230.7 MBYTE,   TOTAL:    360.0 MBYTE

 OPERATOR DM      FOR CENTER  0  COORDINATES:    0.000000    0.000000    0.000000


 **********************************************************************************************************************************
 DATASETS  * FILE   NREC   LENGTH (MB)   RECORD NAMES
              1      19      129.38       500      610      700      900      950      970     1000      129      960     1100   
                                          VAR    BASINP    GEOM    SYMINP    ZMAT    AOBASIS   BASIS     P2S    ABASIS      S 
                                         1400     1410     1200     1210     1080     1600     1650     1300     1700   
                                           T        V       H0       H01     AOSYM     SMH    MOLCAS    ERIS     OPER   

 PROGRAMS   *        TOTAL       INT
 CPU TIMES  *         2.12      2.07
 REAL TIME  *         2.57 SEC
 DISK USED  *       518.67 MB      
 GA USED    *         0.00 MB       (max)       0.00 MB       (current)
 **********************************************************************************************************************************

1PROGRAM * RHF-SCF (CLOSED SHELL)       Authors: W. Meyer, H.-J. Werner


 NUMBER OF ELECTRONS:      16+   16-
 CONVERGENCE THRESHOLDS:    1.00E-10 (Density)    1.00E-13 (Energy)
 MAX. NUMBER OF ITERATIONS:      200
 INTERPOLATION TYPE:            DIIS
 INTERPOLATION STEPS:              2 (START)      1 (STEP)
 LEVEL SHIFTS:                  0.00 (CLOSED)  0.00 (OPEN) 



 Orbital guess generated from atomic densities. Full valence occupancy:   14  14

 Molecular orbital dump at record        2100.2

 Initial alpha occupancy:   8   8
 Initial beta  occupancy:   8   8
 Wave function symmetry:    1

 ITERATION    DDIFF          GRAD             ENERGY        2-EL.EN.            DIPOLE MOMENTS         DIIS
    1      0.000D+00      0.000D+00      -156.03852852    306.828419    0.00000    0.00000    0.00000    0
    2      0.000D+00      0.487D-02      -156.07879299    304.138948    0.00000    0.00000    0.00000    1
    3      0.104D-01      0.163D-02      -156.08282331    305.250021    0.00000    0.00000    0.00000    2
    4      0.320D-02      0.498D-03      -156.08338984    304.962322    0.00000    0.00000    0.00000    3
    5      0.118D-02      0.622D-04      -156.08340073    304.976901    0.00000    0.00000    0.00000    4
    6      0.163D-03      0.101D-04      -156.08340115    304.975324    0.00000    0.00000    0.00000    5
    7      0.282D-04      0.242D-05      -156.08340117    304.975306    0.00000    0.00000    0.00000    6
    8      0.774D-05      0.362D-06      -156.08340117    304.975314    0.00000    0.00000    0.00000    6
    9      0.119D-05      0.655D-07      -156.08340117    304.975318    0.00000    0.00000    0.00000    5
   10      0.197D-06      0.130D-07      -156.08340117    304.975320    0.00000    0.00000    0.00000    6
   11      0.345D-07      0.244D-08      -156.08340117    304.975319    0.00000    0.00000    0.00000    6
   12      0.884D-08      0.636D-09      -156.08340117    304.975320    0.00000    0.00000    0.00000    6
   13      0.170D-08      0.193D-09      -156.08340117    304.975320    0.00000    0.00000    0.00000    6
   14      0.428D-09      0.333D-10      -156.08340117    304.975320    0.00000    0.00000    0.00000    6
   15      0.977D-10      0.109D-10      -156.08340117    304.975320    0.00000    0.00000    0.00000    0

 Final occupancy:   8   8

 !RHF STATE 1.1 Energy               -156.083401171204
 Nuclear energy                       102.11568754
 One-electron energy                 -410.68674852
 Two-electron energy                  152.48765980
 Virial quotient                       -1.00215041
 !RHF STATE 1.1 Dipole moment           0.00000000     0.00000000     0.00000008
 Dipole moment /Debye                   0.00000000     0.00000000     0.00000020

 Orbital energies:

         1.1          2.1          3.1          4.1          5.1          6.1          7.1          8.1          9.1         10.1
    -11.242462   -11.242459    -1.037557    -1.031711    -0.656384    -0.630882    -0.587725    -0.584488     0.075074     0.081603

         1.2          2.2          3.2          4.2          5.2          6.2          7.2          8.2          9.2         10.2
    -11.240874   -11.240874    -0.795283    -0.795264    -0.509458    -0.509328    -0.375545    -0.375420     0.069013     0.069018


 **********************************************************************************************************************************
 DATASETS  * FILE   NREC   LENGTH (MB)   RECORD NAMES
              1      19      129.38       500      610      700      900      950      970     1000      129      960     1100   
                                          VAR    BASINP    GEOM    SYMINP    ZMAT    AOBASIS   BASIS     P2S    ABASIS      S 
                                         1400     1410     1200     1210     1080     1600     1650     1300     1700   
                                           T        V       H0       H01     AOSYM     SMH    MOLCAS    ERIS     OPER   

              2       3        0.64       700     1000     2100   
                                         GEOM     BASIS     RHF  

 PROGRAMS   *        TOTAL       RHF       INT
 CPU TIMES  *         3.99      1.87      2.07
 REAL TIME  *         4.68 SEC
 DISK USED  *       518.67 MB      
 GA USED    *         0.00 MB       (max)       0.00 MB       (current)
 **********************************************************************************************************************************


1PROGRAM * MP2 (Closed-shell)     Authors: C. Hampel, H.-J. Werner, 1991, M. Deegan, P.J. Knowles, 1992


 Convergence thresholds:  THRVAR = 1.00D-08  THRDEN = 1.00D-12

 Number of core orbitals:           4 (   2   2 )
 Number of closed-shell orbitals:  12 (   6   6 )
 Number of external orbitals:     116 (  58  58 )

 Molecular orbitals read from record     2100.2  Type=RHF/CANONICAL (state 1.1)

 Number of N-1 electron functions:              12
 Number of N-2 electron functions:              78
 Number of singly external CSFs:               696
 Number of doubly external CSFs:            485112
 Total number of CSFs:                      485809

 Length of J-op  integral file:               0.00 MB
 Length of K-op  integral file:               0.64 MB

 Integral transformation finished. Total CPU:   0.30 sec, npass=  1  Memory used:   0.92 MW

 Memory needed for MP2:                      0.04 MW

 SCS-MP2 correlation energy:           -0.574411712084   (PS=  1.200000  PT=  0.333333)
 SCS-MP2 total energy:               -156.657812883288


  Reference energy                   -156.083401171204
  MP2 singlet pair energy              -0.380111990390
  MP2 triplet pair energy              -0.190088555811
  MP2 correlation energy               -0.570200546201

 !MP2 total energy                   -156.653601717406


 **********************************************************************************************************************************
 DATASETS  * FILE   NREC   LENGTH (MB)   RECORD NAMES
              1      20      137.80       500      610      700      900      950      970     1000      129      960     1100   
                                          VAR    BASINP    GEOM    SYMINP    ZMAT    AOBASIS   BASIS     P2S    ABASIS      S 
                                         1400     1410     1200     1210     1080     1600     1650     1300     1700     1380   
                                           T        V       H0       H01     AOSYM     SMH    MOLCAS    ERIS     OPER     JKOP   

              2       3        0.64       700     1000     2100   
                                         GEOM     BASIS     RHF  

 PROGRAMS   *        TOTAL       MP2       RHF       INT
 CPU TIMES  *         4.33      0.34      1.87      2.07
 REAL TIME  *         5.06 SEC
 DISK USED  *       518.67 MB      
 GA USED    *         0.00 MB       (max)       0.00 MB       (current)
 **********************************************************************************************************************************

        MP2             RHF-SCF 
   -156.65360172   -156.08340117
 **********************************************************************************************************************************
 Variable memory released
