
 Primary working directories    : /tmp/878919.841.gen4.q
 Secondary working directories  : /tmp/878919.841.gen4.q
 Wavefunction directory         : /home/vulcan/lo21740/wfu/
 Main file repository           : /tmp/878919.841.gen4.q/

 ARCHNAME  : Linux/x86_64
 FC        : /opt/intel/compilers_and_libraries_2016.1.150/linux/bin/intel64/ifort
 FCVERSION : 16.0.1
 BLASLIB   : -mkl
 id        : ccgc

 Nodes     nprocs
 n027         1
 ga_uses_ma=false, calling ma_init with nominal heap.
 GA-space will be limited to   8.0 MW (determined by -G option)

 Using customized tuning parameters: mindgm=10; mindgv=16; mindgc=4; mindgr=1; noblas=0; mincuda=1000; minvec=7
 default implementation of scratch files=df  

 ***,Optimization of formamide
 memory,1000,m
 gthresh,energy=1.0d-12,orbital=1.0d-10,oneint=1.0d-16,twoint=1.0d-16,optgrad=1.0d-6,compress=1.0d-13
 geomtyp=xyz
 
 bohr
 geometry = {
  C   -3.8269047492    0.0916147511    0.0000000000
  O   -2.7318053710    2.1463215799   -0.0000000000
  N   -2.6769065406   -2.1719510796   -0.0000000000
  H   -3.7276851755   -3.7518502993   -0.0000000000
  H   -0.7489200453   -2.2976355724    0.0000000000
  H   -5.9041522253   -0.0220944819    0.0000000000
  C    3.8269047492   -0.0916147511    0.0000000000
  O    2.7318053710   -2.1463215799    0.0000000000
  N    2.6769065406    2.1719510796    0.0000000000
  H    3.7276851755    3.7518502993   -0.0000000000
  H    0.7489200453    2.2976355724   -0.0000000000
  H    5.9041522253    0.0220944819    0.0000000000
 }
 
 basis=VDZ
 {rhf;maxit,200}
 {ccsd(t);maxit,200}

 Variables initialized (661), CPU time= 0.00 sec
 Commands  initialized (458), CPU time= 0.01 sec, 486 directives.
 Default parameters read. Elapsed time= 0.06 sec

 Checking input...
 Passed
1


                                         ***  PROGRAM SYSTEM MOLPRO  ***
                         Copyright, University College Cardiff Consultants Limited, 2008

                                    Version 2010.1 linked May 16 2016 07:17:05


 **********************************************************************************************************************************
 LABEL *   Optimization of formamide                                                     
 Linux-4.4.3/n027(x86_64) 64 bit mpp version                                             DATE: 22-May-23          TIME: 21:47:38  
 **********************************************************************************************************************************

 SHA1:             9e8077add272b0f3cad6f7df79ec5211205f459d
 **********************************************************************************************************************************

 THRESHOLDS:

 ZERO    =  1.00D-12  ONEINT  =  1.00D-16  TWOINT  =  1.00D-16  PREFAC  =  1.00D-14  LOCALI  =  1.00D-09  EORDER  =  1.00D-04
 ENERGY  =  1.00D-12  ETEST   =  0.00D+00  EDENS   =  0.00D+00  THRDEDEF=  1.00D-06  GRADIENT=  1.00D-02  STEP    =  1.00D-03
 ORBITAL =  1.00D-10  CIVEC   =  1.00D-05  COEFF   =  1.00D-04  PRINTCI =  5.00D-02  PUNCHCI =  9.90D+01  OPTGRAD =  1.00D-06
 OPTENERG=  1.00D-06  OPTSTEP =  3.00D-04  THRGRAD =  1.00D-10  COMPRESS=  1.00D-13  VARMIN  =  1.00D-07  VARMAX  =  1.00D-03
 THRDOUB =  0.00D+00  THRDIV  =  1.00D-05  THRRED  =  1.00D-07  THRPSP  =  1.00D+00  THRDC   =  1.00D-10  THRCS   =  1.00D-10
 THRNRM  =  1.00D-08  THREQ   =  0.00D+00  THRDE   =  1.00D+00  THRREF  =  1.00D-05  SPARFAC =  1.00D+00  THRDLP  =  1.00D-07
 THRDIA  =  1.00D-10  THRDLS  =  1.00D-07  THRGPS  =  0.00D+00  THRKEX  =  0.00D+00  THRDIS  =  2.00D-01  THRVAR  =  1.00D-10
 THRLOC  =  1.00D-06  THRGAP  =  1.00D-06  THRLOCT = -1.00D+00  THRGAPT = -1.00D+00  THRORB  =  1.00D-06  THRMLTP =  0.00D+00
 THRCPQCI=  1.00D-10  KEXTA   =  0.00D+00  THRCOARS=  0.00D+00  SYMTOL  =  1.00D-06  GRADTOL =  1.00D-06  THROVL  =  1.00D-08
 THRORTH =  1.00D-08  GRID    =  1.00D-06  GRIDMAX =  1.00D-03  DTMAX   =  0.00D+00

 SETTING GEOMTYP        =    XYZ
 ZUNIT=BOHR
 

 Variable memory set to 1000000000 words,  buffer space   230000 words

 SETTING BASIS          =    VDZ


 Recomputing integrals since basis changed


 Using spherical harmonics

 Library entry C      S cc-pVDZ              selected for orbital group  1
 Library entry C      P cc-pVDZ              selected for orbital group  1
 Library entry C      D cc-pVDZ              selected for orbital group  1
 Library entry O      S cc-pVDZ              selected for orbital group  2
 Library entry O      P cc-pVDZ              selected for orbital group  2
 Library entry O      D cc-pVDZ              selected for orbital group  2
 Library entry N      S cc-pVDZ              selected for orbital group  3
 Library entry N      P cc-pVDZ              selected for orbital group  3
 Library entry N      D cc-pVDZ              selected for orbital group  3
 Library entry H      S cc-pVDZ              selected for orbital group  4
 Library entry H      P cc-pVDZ              selected for orbital group  4

1PROGRAM * SEWARD (Integral evaluation for generally contracted gaussian basis sets)     Author: Roland Lindh, 1990

 Geometry written to block  1 of record 700


 Point group  C2h 



 ATOMIC COORDINATES

 NR  ATOM    CHARGE       X              Y              Z

   1  C       6.00   -3.826904749    0.091614751    0.000000000
   2  C       6.00    3.826904749   -0.091614751    0.000000000
   3  O       8.00   -2.731805371    2.146321580    0.000000000
   4  O       8.00    2.731805371   -2.146321580    0.000000000
   5  N       7.00   -2.676906541   -2.171951080    0.000000000
   6  N       7.00    2.676906541    2.171951080    0.000000000
   7  H       1.00   -3.727685176   -3.751850299    0.000000000
   8  H       1.00    3.727685176    3.751850299    0.000000000
   9  H       1.00   -0.748920045   -2.297635572    0.000000000
  10  H       1.00    0.748920045    2.297635572    0.000000000
  11  H       1.00   -5.904152225   -0.022094482    0.000000000
  12  H       1.00    5.904152225    0.022094482    0.000000000

 Bond lengths in Bohr (Angstrom)

  1- 3  2.328317590   1- 5  2.538941935   1-11  2.080357389   2- 4  2.328317590   2- 6  2.538941935
       ( 1.232092604)       ( 1.343550207)       ( 1.100877717)       ( 1.232092604)       ( 1.343550207)

  2-12  2.080357389   5- 7  1.897423855   5- 9  1.932078807   6- 8  1.897423855   6-10  1.932078807
       ( 1.100877717)       ( 1.004073460)       ( 1.022412071)       ( 1.004073460)       ( 1.022412071)

 Bond angles

  1- 5- 7  119.43971384   1- 5- 9  120.66252385   2- 6- 8  119.43971384   2- 6-10  120.66252385

  3- 1- 5  125.01095574   3- 1-11  121.18958996   4- 2- 6  125.01095574   4- 2-12  121.18958996

  5- 1-11  113.79945430   6- 2-12  113.79945430   7- 5- 9  119.89776231   8- 6-10  119.89776231

 NUCLEAR CHARGE:                   48
 NUMBER OF PRIMITIVE AOS:         204
 NUMBER OF SYMMETRY AOS:          198
 NUMBER OF CONTRACTIONS:          114   (  42Ag  +  15Au  +  42Bu  +  15Bg  )
 NUMBER OF CORE ORBITALS:           6   (   3Ag  +   0Au  +   3Bu  +   0Bg  )
 NUMBER OF VALENCE ORBITALS:       30   (  12Ag  +   3Au  +  12Bu  +   3Bg  )


 NUCLEAR REPULSION ENERGY  230.50482680


 Eigenvalues of metric

         1 0.555E-02 0.108E-01 0.153E-01 0.238E-01 0.305E-01 0.404E-01 0.419E-01 0.487E-01
         2 0.106E+00 0.169E+00 0.196E+00 0.400E+00 0.437E+00 0.494E+00 0.532E+00 0.601E+00
         3 0.571E-02 0.113E-01 0.154E-01 0.241E-01 0.280E-01 0.398E-01 0.411E-01 0.431E-01
         4 0.105E+00 0.173E+00 0.192E+00 0.409E+00 0.437E+00 0.499E+00 0.524E+00 0.590E+00


 Contracted 2-electron integrals neglected if value below      1.0D-16
 AO integral compression algorithm  1   Integral accuracy      1.0D-16

     56.361 MB (compressed) written to integral file (100.0%)

     Node minimum: 56.361 MB, node maximum: 56.361 MB


 NUMBER OF SORTED TWO-ELECTRON INTEGRALS:    5811279.     BUFFER LENGTH:  32768
 NUMBER OF SEGMENTS:   1  SEGMENT LENGTH:    5811279      RECORD LENGTH: 524288

 Memory used in sort:       6.37 MW

 SORT1 READ     6960680. AND WROTE     5811277. INTEGRALS IN     17 RECORDS. CPU TIME:     0.12 SEC, REAL TIME:     0.16 SEC
 SORT2 READ     5811277. AND WROTE     5811279. INTEGRALS IN    215 RECORDS. CPU TIME:     0.12 SEC, REAL TIME:     0.14 SEC

 FILE SIZES:   FILE 1:    50.0 MBYTE,  FILE 4:    71.3 MBYTE,   TOTAL:    121.3 MBYTE

 OPERATOR DM      FOR CENTER  0  COORDINATES:    0.000000    0.000000    0.000000


 **********************************************************************************************************************************
 DATASETS  * FILE   NREC   LENGTH (MB)   RECORD NAMES
              1      19       50.04       500      610      700      900      950      970     1000      129      960     1100   
                                          VAR    BASINP    GEOM    SYMINP    ZMAT    AOBASIS   BASIS     P2S    ABASIS      S 
                                         1400     1410     1200     1210     1080     1600     1650     1300     1700   
                                           T        V       H0       H01     AOSYM     SMH    MOLCAS    ERIS     OPER   

 PROGRAMS   *        TOTAL       INT
 CPU TIMES  *         1.90      1.84
 REAL TIME  *         2.16 SEC
 DISK USED  *       178.56 MB      
 GA USED    *         0.00 MB       (max)       0.00 MB       (current)
 **********************************************************************************************************************************

1PROGRAM * RHF-SCF (CLOSED SHELL)       Authors: W. Meyer, H.-J. Werner


 NUMBER OF ELECTRONS:      24+   24-
 CONVERGENCE THRESHOLDS:    1.00E-10 (Density)    1.00E-13 (Energy)
 MAX. NUMBER OF ITERATIONS:      200
 INTERPOLATION TYPE:            DIIS
 INTERPOLATION STEPS:              2 (START)      1 (STEP)
 LEVEL SHIFTS:                  0.00 (CLOSED)  0.00 (OPEN) 



 Orbital guess generated from atomic densities. Full valence occupancy:   15   3  15   3

 Molecular orbital dump at record        2100.2

 Initial alpha occupancy:  10   2  10   2
 Initial beta  occupancy:  10   2  10   2
 Wave function symmetry:    1

 ITERATION    DDIFF          GRAD             ENERGY        2-EL.EN.            DIPOLE MOMENTS         DIIS
    1      0.000D+00      0.000D+00      -337.77889240    705.401351    0.00000    0.00000    0.00000    0
    2      0.000D+00      0.171D-01      -337.85749362    700.209282    0.00000    0.00000    0.00000    1
    3      0.340D-01      0.121D-01      -337.91334422    702.688333    0.00000    0.00000    0.00000    2
    4      0.131D-01      0.160D-02      -337.91544433    702.672734    0.00000    0.00000    0.00000    3
    5      0.287D-02      0.563D-03      -337.91571126    702.601839    0.00000    0.00000    0.00000    4
    6      0.103D-02      0.187D-03      -337.91577885    702.620904    0.00000    0.00000    0.00000    5
    7      0.479D-03      0.838D-04      -337.91579020    702.616368    0.00000    0.00000    0.00000    6
    8      0.243D-03      0.220D-04      -337.91579090    702.616946    0.00000    0.00000    0.00000    7
    9      0.623D-04      0.565D-05      -337.91579095    702.616489    0.00000    0.00000    0.00000    7
   10      0.175D-04      0.127D-05      -337.91579095    702.616766    0.00000    0.00000    0.00000    7
   11      0.346D-05      0.339D-06      -337.91579095    702.616665    0.00000    0.00000    0.00000    8
   12      0.807D-06      0.656D-07      -337.91579095    702.616678    0.00000    0.00000    0.00000    7
   13      0.151D-06      0.207D-07      -337.91579095    702.616679    0.00000    0.00000    0.00000    7
   14      0.604D-07      0.505D-08      -337.91579095    702.616678    0.00000    0.00000    0.00000    7
   15      0.117D-07      0.156D-08      -337.91579095    702.616679    0.00000    0.00000    0.00000    7
   16      0.371D-08      0.386D-09      -337.91579095    702.616679    0.00000    0.00000    0.00000    7
   17      0.937D-09      0.173D-09      -337.91579095    702.616679    0.00000    0.00000    0.00000    7
   18      0.471D-09      0.321D-10      -337.91579095    702.616679    0.00000    0.00000    0.00000    7
   19      0.764D-10      0.102D-10      -337.91579095    702.616679    0.00000    0.00000    0.00000    0

 Final occupancy:  10   2  10   2

 !RHF STATE 1.1 Energy               -337.915790953566
 Nuclear energy                       230.50482680
 One-electron energy                 -919.72895701
 Two-electron energy                  351.30833926
 Virial quotient                       -1.00145463
 !RHF STATE 1.1 Dipole moment           0.00000000     0.00000000     0.00000000
 Dipole moment /Debye                   0.00000000     0.00000000     0.00000000

 Orbital energies:

         1.1          2.1          3.1          4.1          5.1          6.1          7.1          8.1          9.1         10.1
    -20.525415   -15.577230   -11.359613    -1.377645    -1.202243    -0.852318    -0.740370    -0.634207    -0.609997    -0.443536

        11.1         12.1
      0.186183     0.231577

         1.2          2.2          3.2          4.2
     -0.564834    -0.400953     0.193972     0.673724

         1.3          2.3          3.3          4.3          5.3          6.3          7.3          8.3          9.3         10.3
    -20.525415   -15.577228   -11.359613    -1.372860    -1.208433    -0.827276    -0.731294    -0.695501    -0.583582    -0.418701

        11.3         12.3
      0.188138     0.241680

         1.4          2.4          3.4          4.4
     -0.557333    -0.410541     0.200893     0.689567


 **********************************************************************************************************************************
 DATASETS  * FILE   NREC   LENGTH (MB)   RECORD NAMES
              1      19       50.04       500      610      700      900      950      970     1000      129      960     1100   
                                          VAR    BASINP    GEOM    SYMINP    ZMAT    AOBASIS   BASIS     P2S    ABASIS      S 
                                         1400     1410     1200     1210     1080     1600     1650     1300     1700   
                                           T        V       H0       H01     AOSYM     SMH    MOLCAS    ERIS     OPER   

              2       3        0.54       700     1000     2100   
                                         GEOM     BASIS     RHF  

 PROGRAMS   *        TOTAL       RHF       INT
 CPU TIMES  *         2.34      0.44      1.84
 REAL TIME  *         2.70 SEC
 DISK USED  *       178.56 MB      
 GA USED    *         0.00 MB       (max)       0.00 MB       (current)
 **********************************************************************************************************************************


1PROGRAM * CCSD (Closed-shell coupled cluster)     Authors: C. Hampel, H.-J. Werner, 1991, M. Deegan, P.J. Knowles, 1992


 Convergence thresholds:  THRVAR = 1.00D-08  THRDEN = 1.00D-12

 CCSD(T)     terms to be evaluated (factor= 1.000)


 Number of core orbitals:           6 (   3   0   3   0 )
 Number of closed-shell orbitals:  18 (   7   2   7   2 )
 Number of external orbitals:      90 (  32  13  32  13 )

 Molecular orbitals read from record     2100.2  Type=RHF/CANONICAL (state 1.1)

 Number of N-1 electron functions:              18
 Number of N-2 electron functions:             171
 Number of singly external CSFs:               500
 Number of doubly external CSFs:            346910
 Total number of CSFs:                      347411

 Length of J-op  integral file:               0.00 MB
 Length of K-op  integral file:               0.31 MB
 Length of 3-ext integral record:             0.00 MB

 Memory could be reduced to 5.11 Mwords without degradation in triples

 Integral transformation finished. Total CPU:   0.20 sec, npass=  1  Memory used:   2.18 MW

 Reference energy:                   -337.91579095

 MP2 singlet pair energy:              -0.58969124
 MP2 triplet pair energy:              -0.38318303
 MP2 correlation energy:               -0.97287427
 MP2 total energy:                   -338.88866522

 SCS-MP2 correlation energy:           -0.94605448   (PS=  1.200000  PT=  0.333333)
 SCS-MP2 total energy:               -338.86184544

 ITER.      SQ.NORM     CORR.ENERGY   TOTAL ENERGY   ENERGY CHANGE        DEN1      VAR(S)    VAR(P)  DIIS     TIME
   1      1.29774712    -1.00482626  -338.92061721    -0.03195199    -0.00225310  0.97D-02  0.55D-02  1  1     0.77
   2      1.32267410    -1.00745536  -338.92324632    -0.00262911    -0.02517005  0.23D-03  0.11D-02  2  2     1.36
   3      1.33536956    -1.00843453  -338.92422549    -0.00097917    -0.00561645  0.22D-03  0.47D-04  3  3     1.94
   4      1.34075935    -1.00820397  -338.92399492     0.00023056    -0.00170170  0.20D-04  0.81D-05  4  4     2.51
   5      1.34288671    -1.00813964  -338.92393059     0.00006433    -0.00043776  0.19D-05  0.11D-05  5  5     3.09
   6      1.34335785    -1.00810864  -338.92389959     0.00003100    -0.00004163  0.15D-06  0.13D-06  6  6     3.68
   7      1.34346361    -1.00809888  -338.92388983     0.00000976    -0.00000530  0.14D-07  0.15D-07  6  2     4.27
   8      1.34348145    -1.00809897  -338.92388992    -0.00000009     0.00000004  0.17D-08  0.17D-08  6  1     4.84
   9      1.34348289    -1.00809865  -338.92388961     0.00000032     0.00000150  0.26D-09  0.21D-09  6  4     5.43
  10      1.34348583    -1.00809861  -338.92388956     0.00000004    -0.00000040  0.69D-10  0.19D-10  6  3     6.02
  11      1.34348570    -1.00809868  -338.92388963    -0.00000007     0.00000017  0.13D-10  0.43D-11  6  5     6.60
  12      1.34348549    -1.00809870  -338.92388965    -0.00000002     0.00000008  0.27D-11  0.11D-11  6  6     7.20
  13      1.34348526    -1.00809873  -338.92388968    -0.00000003     0.00000009  0.39D-12  0.15D-12  6  2     7.78
  14      1.34348517    -1.00809873  -338.92388969    -0.00000001     0.00000002  0.58D-13  0.27D-13  6  1     8.37
  15      1.34348515    -1.00809873  -338.92388969    -0.00000000    -0.00000000  0.11D-13  0.57D-14  6  4     8.96
  16      1.34348514    -1.00809874  -338.92388969    -0.00000000    -0.00000000  0.25D-14  0.10D-14  6  3     9.55
  17      1.34348514    -1.00809874  -338.92388969    -0.00000000    -0.00000000  0.74D-15  0.15D-15  6  5    10.14
  18      1.34348514    -1.00809874  -338.92388969    -0.00000000    -0.00000000  0.63D-16  0.48D-16  6  6    10.72
  19      1.34348514    -1.00809874  -338.92388969    -0.00000000     0.00000000  0.16D-16  0.67D-17  6  2    11.31
  20      1.34348514    -1.00809874  -338.92388969    -0.00000000     0.00000000  0.23D-17  0.11D-17  6  1    11.90
  21      1.34348514    -1.00809874  -338.92388969    -0.00000000     0.00000000  0.27D-18  0.22D-18  6  4    12.48
  22      1.34348514    -1.00809874  -338.92388969     0.00000000     0.00000000  0.73D-19  0.37D-19  6  3    13.06
  23      1.34348514    -1.00809874  -338.92388969    -0.00000000     0.00000000  0.14D-19  0.49D-20  6  5    13.65
  24      1.34348514    -1.00809874  -338.92388969     0.00000000    -0.00000000  0.24D-20  0.13D-20  6  6    14.24
  25      1.34348514    -1.00809874  -338.92388969     0.00000000    -0.00000000  0.48D-21  0.23D-21  6  4    14.82

 Norm of t1 vector:      0.14936923      S-energy:     0.00000000      T1 diagnostic:  0.01760333
                                                                       D1 diagnostic:  0.06244979

 Singles amplitudes (print threshold =  0.500E-01):

         I         SYM. A    A   T(IA)

         8         2         1      0.05790710
        17         4         1      0.05885503


 Total CPU time for triples:      9.29 sec


 RESULTS
 =======

  Reference energy                   -337.915790953566
  CCSD singlet pair energy             -0.667964072065
  CCSD triplet pair energy             -0.340134663735
  CCSD correlation energy              -1.008098735789

  Triples (T) contribution             -0.032276211868
  Total correlation energy             -1.040374947657

  CCSD total energy                  -338.923889689355
  CCSD[T] energy                     -338.959176150596
  CCSD-T energy                      -338.955183709764
 !CCSD(T) total energy               -338.956165901222

 Timing summary (sec):

 STEP                 CPU(USER)    SYS     CPU(TOT)    WALL
 Transformation          0.21      0.04      0.25      0.26
 CCSD iterations        14.61      0.61     15.22     15.26
 Triples                 9.29      0.24      9.53      9.54

 Program statistics:

 Available memory in ccsd:               999998604
 Min. memory needed in ccsd:                956954
 Max. memory used in ccsd:                 1266776
 Max. memory used in cckext:               1354904 (25 integral passes)



 **********************************************************************************************************************************
 DATASETS  * FILE   NREC   LENGTH (MB)   RECORD NAMES
              1      20       71.48       500      610      700      900      950      970     1000      129      960     1100   
                                          VAR    BASINP    GEOM    SYMINP    ZMAT    AOBASIS   BASIS     P2S    ABASIS      S 
                                         1400     1410     1200     1210     1080     1600     1650     1300     1700     1380   
                                           T        V       H0       H01     AOSYM     SMH    MOLCAS    ERIS     OPER     JKOP   

              2       3        0.54       700     1000     2100   
                                         GEOM     BASIS     RHF  

 PROGRAMS   *        TOTAL   CCSD(T)       RHF       INT
 CPU TIMES  *        26.46     24.12      0.44      1.84
 REAL TIME  *        27.80 SEC
 DISK USED  *       190.21 MB      
 GA USED    *         0.00 MB       (max)       0.00 MB       (current)
 **********************************************************************************************************************************

        CCSD(T)         RHF-SCF 
   -338.95616590   -337.91579095
 **********************************************************************************************************************************
 Variable memory released
