
 Primary working directories    : /tmp/862144.132.gen4.q
 Secondary working directories  : /tmp/862144.132.gen4.q
 Wavefunction directory         : /home/vulcan/lo21740/wfu/
 Main file repository           : /tmp/862144.132.gen4.q/

 ARCHNAME  : Linux/x86_64
 FC        : /opt/intel/compilers_and_libraries_2016.1.150/linux/bin/intel64/ifort
 FCVERSION : 16.0.1
 BLASLIB   : -mkl
 id        : ccgc

 Nodes     nprocs
 n061         1
 ga_uses_ma=false, calling ma_init with nominal heap.
 GA-space will be limited to   8.0 MW (determined by -G option)

 Using customized tuning parameters: mindgm=10; mindgv=16; mindgc=4; mindgr=1; noblas=0; mincuda=1000; minvec=7
 default implementation of scratch files=df  

 ***,Optimization of formic acid
 memory,1000,m
 gthresh,energy=1.0d-12,orbital=1.0d-10,oneint=1.0d-16,twoint=1.0d-16,optgrad=1.0d-6,compress=1.0d-13
 geomtyp=xyz
 
 bohr
 geometry = {
  C   -3.5016627031   -0.8320516658    0.0017043913
  O   -3.0955864925    1.6258738136   -0.0006277954
  O   -1.8867692729   -2.4865400894   -0.0008267821
  H   -5.5219237250   -1.2750557190   -0.0004279454
  H   -1.2424677018    1.9616812870   -0.0000827509
  C    3.5016627031    0.8320516658   -0.0017043913
  O    3.0955864925   -1.6258738136    0.0006277954
  O    1.8867692729    2.4865400894    0.0008267821
  H    5.5219237250    1.2750557190    0.0004279454
  H    1.2424677018   -1.9616812870    0.0000827509
 }
 
 basis=VDZ
 {rhf;maxit,200}
 {ccsd(t);maxit,200}

 Variables initialized (661), CPU time= 0.01 sec
 Commands  initialized (458), CPU time= 0.00 sec, 486 directives.
 Default parameters read. Elapsed time= 0.05 sec

 Checking input...
 Passed
1


                                         ***  PROGRAM SYSTEM MOLPRO  ***
                         Copyright, University College Cardiff Consultants Limited, 2008

                                    Version 2010.1 linked May 16 2016 07:17:05


 **********************************************************************************************************************************
 LABEL *   Optimization of formic acid                                                   
 Linux-4.4.3/n061(x86_64) 64 bit mpp version                                             DATE: 26-Apr-23          TIME: 17:50:20  
 **********************************************************************************************************************************

 SHA1:             9e8077add272b0f3cad6f7df79ec5211205f459d
 **********************************************************************************************************************************

 THRESHOLDS:

 ZERO    =  1.00D-12  ONEINT  =  1.00D-16  TWOINT  =  1.00D-16  PREFAC  =  1.00D-14  LOCALI  =  1.00D-09  EORDER  =  1.00D-04
 ENERGY  =  1.00D-12  ETEST   =  0.00D+00  EDENS   =  0.00D+00  THRDEDEF=  1.00D-06  GRADIENT=  1.00D-02  STEP    =  1.00D-03
 ORBITAL =  1.00D-10  CIVEC   =  1.00D-05  COEFF   =  1.00D-04  PRINTCI =  5.00D-02  PUNCHCI =  9.90D+01  OPTGRAD =  1.00D-06
 OPTENERG=  1.00D-06  OPTSTEP =  3.00D-04  THRGRAD =  1.00D-10  COMPRESS=  1.00D-13  VARMIN  =  1.00D-07  VARMAX  =  1.00D-03
 THRDOUB =  0.00D+00  THRDIV  =  1.00D-05  THRRED  =  1.00D-07  THRPSP  =  1.00D+00  THRDC   =  1.00D-10  THRCS   =  1.00D-10
 THRNRM  =  1.00D-08  THREQ   =  0.00D+00  THRDE   =  1.00D+00  THRREF  =  1.00D-05  SPARFAC =  1.00D+00  THRDLP  =  1.00D-07
 THRDIA  =  1.00D-10  THRDLS  =  1.00D-07  THRGPS  =  0.00D+00  THRKEX  =  0.00D+00  THRDIS  =  2.00D-01  THRVAR  =  1.00D-10
 THRLOC  =  1.00D-06  THRGAP  =  1.00D-06  THRLOCT = -1.00D+00  THRGAPT = -1.00D+00  THRORB  =  1.00D-06  THRMLTP =  0.00D+00
 THRCPQCI=  1.00D-10  KEXTA   =  0.00D+00  THRCOARS=  0.00D+00  SYMTOL  =  1.00D-06  GRADTOL =  1.00D-06  THROVL  =  1.00D-08
 THRORTH =  1.00D-08  GRID    =  1.00D-06  GRIDMAX =  1.00D-03  DTMAX   =  0.00D+00

 SETTING GEOMTYP        =    XYZ
 ZUNIT=BOHR
 

 Variable memory set to 1000000000 words,  buffer space   230000 words

 SETTING BASIS          =    VDZ


 Recomputing integrals since basis changed


 Using spherical harmonics

 Library entry C      S cc-pVDZ              selected for orbital group  1
 Library entry C      P cc-pVDZ              selected for orbital group  1
 Library entry C      D cc-pVDZ              selected for orbital group  1
 Library entry O      S cc-pVDZ              selected for orbital group  2
 Library entry O      P cc-pVDZ              selected for orbital group  2
 Library entry O      D cc-pVDZ              selected for orbital group  2
 Library entry H      S cc-pVDZ              selected for orbital group  3
 Library entry H      P cc-pVDZ              selected for orbital group  3

1PROGRAM * SEWARD (Integral evaluation for generally contracted gaussian basis sets)     Author: Roland Lindh, 1990

 Geometry written to block  1 of record 700


 Point group  Ci  



 ATOMIC COORDINATES

 NR  ATOM    CHARGE       X              Y              Z

   1  C       6.00   -3.501662703   -0.832051666    0.001704391
   2  C       6.00    3.501662703    0.832051666   -0.001704391
   3  O       8.00   -3.095586492    1.625873814   -0.000627795
   4  O       8.00    3.095586492   -1.625873814    0.000627795
   5  O       8.00   -1.886769273   -2.486540089   -0.000826782
   6  O       8.00    1.886769273    2.486540089    0.000826782
   7  H       1.00   -5.521923725   -1.275055719   -0.000427945
   8  H       1.00    5.521923725    1.275055719    0.000427945
   9  H       1.00   -1.242467702    1.961681287   -0.000082751
  10  H       1.00    1.242467702   -1.961681287    0.000082751

 Bond lengths in Bohr (Angstrom)

 1-3  2.491244868  1-5  2.311972998  1-7  2.068262975  2-4  2.491244868  2-6  2.311972998
     ( 1.318310006)     ( 1.223443418)     ( 1.094477629)     ( 1.318310006)     ( 1.223443418)

  2- 8  2.068262975   3- 9  1.883299288   4-10  1.883299288
       ( 1.094477629)       ( 0.996599061)       ( 0.996599061)

 Bond angles

  1- 3- 9  109.65235073   2- 4-10  109.65235073   3- 1- 5  126.31259904   3- 1- 7  111.74916637

  4-2-6  126.31259904   4-2-8  111.74916637   5-1-7  121.93791973   6-2-8  121.93791973

 NUCLEAR CHARGE:                   48
 NUMBER OF PRIMITIVE AOS:         190
 NUMBER OF SYMMETRY AOS:          184
 NUMBER OF CONTRACTIONS:          104   (  52Ag  +  52Au  )
 NUMBER OF CORE ORBITALS:           6   (   3Ag  +   3Au  )
 NUMBER OF VALENCE ORBITALS:       28   (  14Ag  +  14Au  )


 NUCLEAR REPULSION ENERGY  235.25320091


 Eigenvalues of metric

         1 0.822E-02 0.138E-01 0.167E-01 0.300E-01 0.377E-01 0.444E-01 0.558E-01 0.936E-01
         2 0.873E-02 0.141E-01 0.165E-01 0.308E-01 0.355E-01 0.442E-01 0.531E-01 0.965E-01


 Contracted 2-electron integrals neglected if value below      1.0D-16
 AO integral compression algorithm  1   Integral accuracy      1.0D-16

     70.779 MB (compressed) written to integral file ( 93.0%)

     Node minimum: 70.779 MB, node maximum: 70.779 MB


 NUMBER OF SORTED TWO-ELECTRON INTEGRALS:    7596914.     BUFFER LENGTH:  32768
 NUMBER OF SEGMENTS:   1  SEGMENT LENGTH:    7596914      RECORD LENGTH: 524288

 Memory used in sort:       8.15 MW

 SORT1 READ     9494560. AND WROTE     7596914. INTEGRALS IN     22 RECORDS. CPU TIME:     0.10 SEC, REAL TIME:     0.14 SEC
 SORT2 READ     7596914. AND WROTE     7596914. INTEGRALS IN    270 RECORDS. CPU TIME:     0.12 SEC, REAL TIME:     0.14 SEC

 FILE SIZES:   FILE 1:    60.3 MBYTE,  FILE 4:    92.3 MBYTE,   TOTAL:    152.6 MBYTE

 OPERATOR DM      FOR CENTER  0  COORDINATES:    0.000000    0.000000    0.000000


 **********************************************************************************************************************************
 DATASETS  * FILE   NREC   LENGTH (MB)   RECORD NAMES
              1      19       60.35       500      610      700      900      950      970     1000      129      960     1100   
                                          VAR    BASINP    GEOM    SYMINP    ZMAT    AOBASIS   BASIS     P2S    ABASIS      S 
                                         1400     1410     1200     1210     1080     1600     1650     1300     1700   
                                           T        V       H0       H01     AOSYM     SMH    MOLCAS    ERIS     OPER   

 PROGRAMS   *        TOTAL       INT
 CPU TIMES  *         1.34      1.30
 REAL TIME  *         1.61 SEC
 DISK USED  *       224.16 MB      
 GA USED    *         0.00 MB       (max)       0.00 MB       (current)
 **********************************************************************************************************************************

1PROGRAM * RHF-SCF (CLOSED SHELL)       Authors: W. Meyer, H.-J. Werner


 NUMBER OF ELECTRONS:      24+   24-
 CONVERGENCE THRESHOLDS:    1.00E-10 (Density)    1.00E-13 (Energy)
 MAX. NUMBER OF ITERATIONS:      200
 INTERPOLATION TYPE:            DIIS
 INTERPOLATION STEPS:              2 (START)      1 (STEP)
 LEVEL SHIFTS:                  0.00 (CLOSED)  0.00 (OPEN) 



 Orbital guess generated from atomic densities. Full valence occupancy:   17  17

 Molecular orbital dump at record        2100.2

 Initial alpha occupancy:  12  12
 Initial beta  occupancy:  12  12
 Wave function symmetry:    1

 ITERATION    DDIFF          GRAD             ENERGY        2-EL.EN.            DIPOLE MOMENTS         DIIS
    1      0.000D+00      0.000D+00      -377.44877498    746.512465    0.00000    0.00000    0.00000    0
    2      0.000D+00      0.156D-01      -377.53661442    743.671687    0.00000    0.00000    0.00000    1
    3      0.307D-01      0.967D-02      -377.58370335    745.926038    0.00000    0.00000    0.00000    2
    4      0.112D-01      0.136D-02      -377.58520252    745.644868    0.00000    0.00000    0.00000    3
    5      0.218D-02      0.568D-03      -377.58546578    745.670966    0.00000    0.00000    0.00000    4
    6      0.900D-03      0.163D-03      -377.58551266    745.715573    0.00000    0.00000    0.00000    5
    7      0.313D-03      0.746D-04      -377.58552418    745.700278    0.00000    0.00000    0.00000    6
    8      0.187D-03      0.222D-04      -377.58552520    745.705517    0.00000    0.00000    0.00000    7
    9      0.583D-04      0.754D-05      -377.58552530    745.704061    0.00000    0.00000    0.00000    8
   10      0.204D-04      0.206D-05      -377.58552531    745.704228    0.00000    0.00000    0.00000    7
   11      0.577D-05      0.504D-06      -377.58552531    745.704173    0.00000    0.00000    0.00000    8
   12      0.134D-05      0.142D-06      -377.58552531    745.704195    0.00000    0.00000    0.00000    7
   13      0.370D-06      0.570D-07      -377.58552531    745.704183    0.00000    0.00000    0.00000    8
   14      0.107D-06      0.173D-07      -377.58552531    745.704186    0.00000    0.00000    0.00000    7
   15      0.444D-07      0.515D-08      -377.58552531    745.704185    0.00000    0.00000    0.00000    7
   16      0.914D-08      0.144D-08      -377.58552531    745.704185    0.00000    0.00000    0.00000    8
   17      0.292D-08      0.516D-09      -377.58552531    745.704185    0.00000    0.00000    0.00000    7
   18      0.989D-09      0.151D-09      -377.58552531    745.704185    0.00000    0.00000    0.00000    8
   19      0.340D-09      0.537D-10      -377.58552531    745.704185    0.00000    0.00000    0.00000    8
   20      0.136D-09      0.130D-10      -377.58552531    745.704185    0.00000    0.00000    0.00000    7
   21      0.335D-10      0.368D-11      -377.58552531    745.704185    0.00000    0.00000    0.00000    7
   22      0.913D-11      0.176D-11      -377.58552531    745.704185    0.00000    0.00000    0.00000    7
   23      0.402D-11      0.782D-12      -377.58552531    745.704185    0.00000    0.00000    0.00000    8
   24      0.190D-11      0.316D-12      -377.58552531    745.704185    0.00000    0.00000    0.00000    8
   25      0.959D-12      0.134D-12      -377.58552531    745.704185    0.00000    0.00000    0.00000    8
   26      0.310D-12      0.408D-13      -377.58552531    745.704185    0.00000    0.00000    0.00000    9
   27      0.982D-13      0.219D-13      -377.58552531    745.704185    0.00000    0.00000    0.00000    9
   28      0.456D-13      0.120D-13      -377.58552531    745.704185    0.00000    0.00000    0.00000    0

 Final occupancy:  12  12

 !RHF STATE 1.1 Energy               -377.585525313891
 Nuclear energy                       235.25320091
 One-electron energy                 -985.69081877
 Two-electron energy                  372.85209254
 Virial quotient                       -1.00131253
 !RHF STATE 1.1 Dipole moment           0.00000000     0.00000000     0.00000000
 Dipole moment /Debye                   0.00000000     0.00000000     0.00000000

 Orbital energies:

         1.1          2.1          3.1          4.1          5.1          6.1          7.1          8.1          9.1         10.1
    -20.613977   -20.575950   -11.412690    -1.480721    -1.369064    -0.913983    -0.727374    -0.688542    -0.628056    -0.614932

        11.1         12.1         13.1         14.1
     -0.498359    -0.489537     0.165120     0.203971

         1.2          2.2          3.2          4.2          5.2          6.2          7.2          8.2          9.2         10.2
    -20.613975   -20.575950   -11.412690    -1.467994    -1.383080    -0.878141    -0.762996    -0.718622    -0.637615    -0.573489

        11.2         12.2         13.2         14.2
     -0.487706    -0.467874     0.160085     0.209597


 **********************************************************************************************************************************
 DATASETS  * FILE   NREC   LENGTH (MB)   RECORD NAMES
              1      19       60.35       500      610      700      900      950      970     1000      129      960     1100   
                                          VAR    BASINP    GEOM    SYMINP    ZMAT    AOBASIS   BASIS     P2S    ABASIS      S 
                                         1400     1410     1200     1210     1080     1600     1650     1300     1700   
                                           T        V       H0       H01     AOSYM     SMH    MOLCAS    ERIS     OPER   

              2       3        0.53       700     1000     2100   
                                         GEOM     BASIS     RHF  

 PROGRAMS   *        TOTAL       RHF       INT
 CPU TIMES  *         2.45      1.11      1.30
 REAL TIME  *         2.94 SEC
 DISK USED  *       224.16 MB      
 GA USED    *         0.00 MB       (max)       0.00 MB       (current)
 **********************************************************************************************************************************


1PROGRAM * CCSD (Closed-shell coupled cluster)     Authors: C. Hampel, H.-J. Werner, 1991, M. Deegan, P.J. Knowles, 1992


 Convergence thresholds:  THRVAR = 1.00D-08  THRDEN = 1.00D-12

 CCSD(T)     terms to be evaluated (factor= 1.000)


 Number of core orbitals:           6 (   3   3 )
 Number of closed-shell orbitals:  18 (   9   9 )
 Number of external orbitals:      80 (  40  40 )

 Molecular orbitals read from record     2100.2  Type=RHF/CANONICAL (state 1.1)

 Number of N-1 electron functions:              18
 Number of N-2 electron functions:             171
 Number of singly external CSFs:               720
 Number of doubly external CSFs:            519120
 Total number of CSFs:                      519841

 Length of J-op  integral file:               0.00 MB
 Length of K-op  integral file:               0.41 MB
 Length of 3-ext integral record:             0.00 MB

 Memory could be reduced to 6.90 Mwords without degradation in triples

 Integral transformation finished. Total CPU:   0.38 sec, npass=  1  Memory used:   5.16 MW

 Reference energy:                   -377.58552531

 MP2 singlet pair energy:              -0.59948051
 MP2 triplet pair energy:              -0.40712046
 MP2 correlation energy:               -1.00660097
 MP2 total energy:                   -378.59212629

 SCS-MP2 correlation energy:           -0.97269601   (PS=  1.200000  PT=  0.333333)
 SCS-MP2 total energy:               -378.55822133

 ITER.      SQ.NORM     CORR.ENERGY   TOTAL ENERGY   ENERGY CHANGE        DEN1      VAR(S)    VAR(P)  DIIS     TIME
   1      1.28205159    -1.02677737  -378.61230269    -0.02017640     0.01071574  0.11D-01  0.55D-02  1  1     1.12
   2      1.30581881    -1.02864376  -378.61416908    -0.00186639    -0.02513075  0.25D-03  0.10D-02  2  2     1.91
   3      1.31895012    -1.02960315  -378.61512846    -0.00095938    -0.00598816  0.21D-03  0.43D-04  3  3     2.69
   4      1.32434473    -1.02936807  -378.61489338     0.00023508    -0.00176373  0.18D-04  0.72D-05  4  4     3.48
   5      1.32643955    -1.02927735  -378.61480266     0.00009072    -0.00046403  0.11D-05  0.69D-06  5  5     4.27
   6      1.32678897    -1.02925671  -378.61478203     0.00002063    -0.00001590  0.10D-06  0.61D-07  6  6     5.07
   7      1.32685918    -1.02924894  -378.61477425     0.00000778    -0.00000459  0.82D-08  0.91D-08  6  2     5.87
   8      1.32686250    -1.02924981  -378.61477512    -0.00000087     0.00000212  0.16D-08  0.92D-09  6  1     6.67
   9      1.32686333    -1.02924947  -378.61477479     0.00000033     0.00000092  0.35D-09  0.17D-09  6  4     7.48
  10      1.32686519    -1.02924931  -378.61477463     0.00000016    -0.00000063  0.98D-10  0.27D-10  6  3     8.28
  11      1.32686466    -1.02924944  -378.61477476    -0.00000013     0.00000025  0.22D-10  0.56D-11  6  5     9.08
  12      1.32686431    -1.02924946  -378.61477477    -0.00000002     0.00000005  0.28D-11  0.12D-11  6  6     9.88
  13      1.32686397    -1.02924950  -378.61477482    -0.00000004     0.00000014  0.31D-12  0.22D-12  6  1    10.68
  14      1.32686385    -1.02924951  -378.61477482    -0.00000000     0.00000002  0.31D-13  0.24D-13  6  2    11.47
  15      1.32686382    -1.02924951  -378.61477482    -0.00000000     0.00000001  0.65D-14  0.30D-14  6  4    12.27
  16      1.32686380    -1.02924951  -378.61477482    -0.00000000     0.00000000  0.10D-14  0.65D-15  6  5    13.06
  17      1.32686380    -1.02924951  -378.61477482    -0.00000000    -0.00000000  0.15D-15  0.62D-16  6  3    13.86
  18      1.32686380    -1.02924951  -378.61477482    -0.00000000     0.00000000  0.53D-16  0.18D-16  6  5    14.64
  19      1.32686380    -1.02924951  -378.61477482    -0.00000000     0.00000000  0.13D-16  0.34D-17  6  6    15.44
  20      1.32686380    -1.02924951  -378.61477482     0.00000000     0.00000000  0.38D-17  0.88D-18  6  1    16.24
  21      1.32686380    -1.02924951  -378.61477482    -0.00000000     0.00000000  0.92D-18  0.23D-18  6  2    17.03
  22      1.32686380    -1.02924951  -378.61477482     0.00000000    -0.00000000  0.15D-18  0.51D-19  6  4    17.81
  23      1.32686380    -1.02924951  -378.61477482     0.00000000    -0.00000000  0.25D-19  0.11D-19  6  3    18.60
  24      1.32686380    -1.02924951  -378.61477482     0.00000000    -0.00000000  0.21D-20  0.23D-20  6  6    19.39
  25      1.32686380    -1.02924951  -378.61477482     0.00000000    -0.00000000  0.32D-21  0.19D-21  6  5    20.18

 Norm of t1 vector:      0.15311754      S-energy:     0.00000000      T1 diagnostic:  0.01804508
                                                                       D1 diagnostic:  0.06527936

 Singles amplitudes (print threshold =  0.500E-01):

         I         SYM. A    A   T(IA)

         6         1         1      0.06158344
        15         2         1      0.05974737


 Total CPU time for triples:     11.23 sec


 RESULTS
 =======

  Reference energy                   -377.585525313891
  CCSD singlet pair energy             -0.671376361023
  CCSD triplet pair energy             -0.357873148265
  CCSD correlation energy              -1.029249509288

  Triples (T) contribution             -0.032012069326
  Total correlation energy             -1.061261578613

  CCSD total energy                  -378.614774823178
  CCSD[T] energy                     -378.650098374659
  CCSD-T energy                      -378.645699155005
 !CCSD(T) total energy               -378.646786892504

 Timing summary (sec):

 STEP                 CPU(USER)    SYS     CPU(TOT)    WALL
 Transformation          0.39      0.05      0.44      0.45
 CCSD iterations        19.79      0.74     20.53     20.57
 Triples                11.23      0.31     11.54     11.55

 Program statistics:

 Available memory in ccsd:               999998604
 Min. memory needed in ccsd:               1434204
 Max. memory used in ccsd:                 1896588
 Max. memory used in cckext:               2097662 (25 integral passes)



 **********************************************************************************************************************************
 DATASETS  * FILE   NREC   LENGTH (MB)   RECORD NAMES
              1      20       90.65       500      610      700      900      950      970     1000      129      960     1100   
                                          VAR    BASINP    GEOM    SYMINP    ZMAT    AOBASIS   BASIS     P2S    ABASIS      S 
                                         1400     1410     1200     1210     1080     1600     1650     1300     1700     1380   
                                           T        V       H0       H01     AOSYM     SMH    MOLCAS    ERIS     OPER     JKOP   

              2       3        0.53       700     1000     2100   
                                         GEOM     BASIS     RHF  

 PROGRAMS   *        TOTAL   CCSD(T)       RHF       INT
 CPU TIMES  *        33.87     31.41      1.11      1.30
 REAL TIME  *        35.54 SEC
 DISK USED  *       254.19 MB      
 GA USED    *         0.00 MB       (max)       0.00 MB       (current)
 **********************************************************************************************************************************

        CCSD(T)         RHF-SCF 
   -378.64678689   -377.58552531
 **********************************************************************************************************************************
 Variable memory released
