
 Primary working directories    : /tmp/1049502.690.gen4.q
 Secondary working directories  : /tmp/1049502.690.gen4.q
 Wavefunction directory         : /home/vulcan/jj04645/wfu/
 Main file repository           : /tmp/1049502.690.gen4.q/

 ARCHNAME  : Linux/x86_64
 FC        : /opt/intel/compilers_and_libraries_2016.1.150/linux/bin/intel64/ifort
 FCVERSION : 16.0.1
 BLASLIB   : -mkl
 id        : ccgc

 Nodes     nprocs
 n067         1
 ga_uses_ma=false, calling ma_init with nominal heap.
 GA-space will be limited to   8.0 MW (determined by -G option)

 Using customized tuning parameters: mindgm=10; mindgv=16; mindgc=4; mindgr=1; noblas=0; mincuda=1000; minvec=7
 default implementation of scratch files=df  

 ***,Optimization of neopentane
 memory,1000,m
 gthresh,energy=1.0d-12,orbital=1.0d-10,oneint=1.0d-16,twoint=1.0d-16,optgrad=1.0d-6,compress=1.0d-13
 geomtyp=xyz
 
 bohr
 geometry = {
  C   -0.0000001603    0.0000069003   -0.0093686858
  C    2.3709184868    0.0004250991   -1.6742162564
  C    0.0000013191   -2.3603444832    1.6704271904
  C    0.0008358184    2.3586669695    1.6728009901
  C   -2.3717479326    0.0012631870   -1.6730344472
  H    2.4145320232    1.6729880345   -2.8951528403
  H   -1.6800418838   -2.4040609905    2.8810463539
  H    1.6773132154    2.3969522665    2.8885364993
  H   -2.4243179294   -1.6784661969   -2.8837369906
  H    4.0817039552    0.0079071757   -0.5175476821
  H    0.0077577454   -4.0784046541    0.5245937916
  H    0.0008545297    4.0778881424    0.5286840165
  H   -4.0819540006    0.0093498053   -0.5155134311
  H    2.4221395783   -1.6743564261   -2.8813651010
  H    1.6673221196   -2.3961410303    2.8884111990
  H   -1.6700670976    2.3974297230    2.8857750149
  H   -2.4152497868    1.6688964776   -2.8903396214
 }
 
 basis=VDZ
 {rhf;maxit,200}
 {ccsd(t);maxit,200}

 Variables initialized (661), CPU time= 0.01 sec
 Commands  initialized (458), CPU time= 0.00 sec, 486 directives.
 Default parameters read. Elapsed time= 0.04 sec

 Checking input...
 Passed
1


                                         ***  PROGRAM SYSTEM MOLPRO  ***
                         Copyright, University College Cardiff Consultants Limited, 2008

                                    Version 2010.1 linked May 16 2016 07:17:05


 **********************************************************************************************************************************
 LABEL *   Optimization of neopentane                                                    
 Linux-4.4.3/n067(x86_64) 64 bit mpp version                                             DATE: 30-Mar-24          TIME: 21:35:06  
 **********************************************************************************************************************************

 SHA1:             9e8077add272b0f3cad6f7df79ec5211205f459d
 **********************************************************************************************************************************

 THRESHOLDS:

 ZERO    =  1.00D-12  ONEINT  =  1.00D-16  TWOINT  =  1.00D-16  PREFAC  =  1.00D-14  LOCALI  =  1.00D-09  EORDER  =  1.00D-04
 ENERGY  =  1.00D-12  ETEST   =  0.00D+00  EDENS   =  0.00D+00  THRDEDEF=  1.00D-06  GRADIENT=  1.00D-02  STEP    =  1.00D-03
 ORBITAL =  1.00D-10  CIVEC   =  1.00D-05  COEFF   =  1.00D-04  PRINTCI =  5.00D-02  PUNCHCI =  9.90D+01  OPTGRAD =  1.00D-06
 OPTENERG=  1.00D-06  OPTSTEP =  3.00D-04  THRGRAD =  1.00D-10  COMPRESS=  1.00D-13  VARMIN  =  1.00D-07  VARMAX  =  1.00D-03
 THRDOUB =  0.00D+00  THRDIV  =  1.00D-05  THRRED  =  1.00D-07  THRPSP  =  1.00D+00  THRDC   =  1.00D-10  THRCS   =  1.00D-10
 THRNRM  =  1.00D-08  THREQ   =  0.00D+00  THRDE   =  1.00D+00  THRREF  =  1.00D-05  SPARFAC =  1.00D+00  THRDLP  =  1.00D-07
 THRDIA  =  1.00D-10  THRDLS  =  1.00D-07  THRGPS  =  0.00D+00  THRKEX  =  0.00D+00  THRDIS  =  2.00D-01  THRVAR  =  1.00D-10
 THRLOC  =  1.00D-06  THRGAP  =  1.00D-06  THRLOCT = -1.00D+00  THRGAPT = -1.00D+00  THRORB  =  1.00D-06  THRMLTP =  0.00D+00
 THRCPQCI=  1.00D-10  KEXTA   =  0.00D+00  THRCOARS=  0.00D+00  SYMTOL  =  1.00D-06  GRADTOL =  1.00D-06  THROVL  =  1.00D-08
 THRORTH =  1.00D-08  GRID    =  1.00D-06  GRIDMAX =  1.00D-03  DTMAX   =  0.00D+00

 SETTING GEOMTYP        =    XYZ
 ZUNIT=BOHR
 

 Variable memory set to 1000000000 words,  buffer space   230000 words

 SETTING BASIS          =    VDZ


 Recomputing integrals since basis changed


 Using spherical harmonics

 Library entry C      S cc-pVDZ              selected for orbital group  1
 Library entry C      P cc-pVDZ              selected for orbital group  1
 Library entry C      D cc-pVDZ              selected for orbital group  1
 Library entry H      S cc-pVDZ              selected for orbital group  2
 Library entry H      P cc-pVDZ              selected for orbital group  2

1PROGRAM * SEWARD (Integral evaluation for generally contracted gaussian basis sets)     Author: Roland Lindh, 1990

 Geometry written to block  1 of record 700


 Point group  C1  



 ATOMIC COORDINATES

 NR  ATOM    CHARGE       X              Y              Z

   1  C       6.00   -0.000000160    0.000006900   -0.009368686
   2  C       6.00    2.370918487    0.000425099   -1.674216256
   3  C       6.00    0.000001319   -2.360344483    1.670427190
   4  C       6.00    0.000835818    2.358666970    1.672800990
   5  C       6.00   -2.371747933    0.001263187   -1.673034447
   6  H       1.00    2.414532023    1.672988035   -2.895152840
   7  H       1.00   -1.680041884   -2.404060991    2.881046354
   8  H       1.00    1.677313215    2.396952267    2.888536499
   9  H       1.00   -2.424317929   -1.678466197   -2.883736991
  10  H       1.00    4.081703955    0.007907176   -0.517547682
  11  H       1.00    0.007757745   -4.078404654    0.524593792
  12  H       1.00    0.000854530    4.077888142    0.528684016
  13  H       1.00   -4.081954001    0.009349805   -0.515513431
  14  H       1.00    2.422139578   -1.674356426   -2.881365101
  15  H       1.00    1.667322120   -2.396141030    2.888411199
  16  H       1.00   -1.670067098    2.397429723    2.885775015
  17  H       1.00   -2.415249787    1.668896478   -2.890339621

 Bond lengths in Bohr (Angstrom)

 1-2  2.897062795  1-3  2.897062795  1-4  2.897062795  1-5  2.897062795  2-6  2.071244808
     ( 1.533059604)     ( 1.533059604)     ( 1.533059604)     ( 1.533059604)     ( 1.096055547)

  2-10  2.065121084   2-14  2.065121084   3- 7  2.071244808   3-11  2.065121084   3-15  2.065121084
       ( 1.092815011)       ( 1.092815011)       ( 1.096055547)       ( 1.092815011)       ( 1.092815011)

  4- 8  2.071244808   4-12  2.065121084   4-16  2.065121084   5- 9  2.071244808   5-13  2.065121084
       ( 1.096055547)       ( 1.092815011)       ( 1.092815011)       ( 1.096055547)       ( 1.092815011)

  5-17  2.065121084
       ( 1.092815011)

 Bond angles

  1- 2- 6  110.86076871   1- 2-10  110.86076859   1- 2-14  110.86076900   1- 3- 7  110.86076867

  1- 3-11  110.86076924   1- 3-15  110.86076839   1- 4- 8  110.86076863   1- 4-12  110.86076896

  1- 4-16  110.86076870   1- 5- 9  110.86076875   1- 5-13  110.86076938   1- 5-17  110.86076818

  2-1-3  109.47071421   2-1-4  109.47071421   2-1-5  109.87585655   3-1-4  109.06557187

  3- 1- 5  109.47071421   4- 1- 5  109.47071421   6- 2-10  108.04663831   6- 2-14  108.04663909

  7- 3-11  108.04663947   7- 3-15  108.04663785   8- 4-12  108.04663887   8- 4-16  108.04663838

  9- 5-13  108.04663988   9- 5-17  108.04663757  10- 2-14  108.04663884  11- 3-15  108.04663893

 12- 4-16  108.04663900  13- 5-17  108.04663878

 NUCLEAR CHARGE:                   42
 NUMBER OF PRIMITIVE AOS:         219
 NUMBER OF SYMMETRY AOS:          214
 NUMBER OF CONTRACTIONS:          130   ( 130A   )
 NUMBER OF CORE ORBITALS:           5   (   5A   )
 NUMBER OF VALENCE ORBITALS:       32   (  32A   )


 NUCLEAR REPULSION ENERGY  198.59980373


 Eigenvalues of metric

         1 0.280E-02 0.500E-02 0.504E-02 0.507E-02 0.171E-01 0.189E-01 0.189E-01 0.190E-01


 Contracted 2-electron integrals neglected if value below      1.0D-16
 AO integral compression algorithm  1   Integral accuracy      1.0D-16

     302.776 MB (compressed) written to integral file ( 97.1%)

     Node minimum: 302.776 MB, node maximum: 302.776 MB


 NUMBER OF SORTED TWO-ELECTRON INTEGRALS:   36256870.     BUFFER LENGTH:  32768
 NUMBER OF SEGMENTS:   3  SEGMENT LENGTH:   15998004      RECORD LENGTH: 524288

 Memory used in sort:      16.56 MW

 SORT1 READ    38982888. AND WROTE    36207971. INTEGRALS IN    105 RECORDS. CPU TIME:     0.40 SEC, REAL TIME:     0.60 SEC
 SORT2 READ    36207971. AND WROTE    36256870. INTEGRALS IN   1155 RECORDS. CPU TIME:     0.27 SEC, REAL TIME:     0.45 SEC

 FILE SIZES:   FILE 1:   283.3 MBYTE,  FILE 4:   440.4 MBYTE,   TOTAL:    723.7 MBYTE

 OPERATOR DM      FOR CENTER  0  COORDINATES:    0.000000    0.000000    0.000000


 **********************************************************************************************************************************
 DATASETS  * FILE   NREC   LENGTH (MB)   RECORD NAMES
              1      19      283.49       500      610      700      900      950      970     1000      129      960     1100   
                                          VAR    BASINP    GEOM    SYMINP    ZMAT    AOBASIS   BASIS     P2S    ABASIS      S 
                                         1400     1410     1200     1210     1080     1600     1650     1300     1700   
                                           T        V       H0       H01     AOSYM     SMH    MOLCAS    ERIS     OPER   

 PROGRAMS   *        TOTAL       INT
 CPU TIMES  *         4.22      4.17
 REAL TIME  *         4.90 SEC
 DISK USED  *         1.03 GB      
 GA USED    *         0.01 MB       (max)       0.00 MB       (current)
 **********************************************************************************************************************************

1PROGRAM * RHF-SCF (CLOSED SHELL)       Authors: W. Meyer, H.-J. Werner


 NUMBER OF ELECTRONS:      21+   21-    SPACE SYMMETRY=1    SPIN SYMMETRY: Singlet 
 CONVERGENCE THRESHOLDS:    1.00E-10 (Density)    1.00E-13 (Energy)
 MAX. NUMBER OF ITERATIONS:      200
 INTERPOLATION TYPE:            DIIS
 INTERPOLATION STEPS:              2 (START)      1 (STEP)
 LEVEL SHIFTS:                  0.00 (CLOSED)  0.00 (OPEN) 



 Orbital guess generated from atomic densities. Full valence occupancy:   37

 Molecular orbital dump at record        2100.2

 ITERATION    DDIFF          GRAD             ENERGY        2-EL.EN.            DIPOLE MOMENTS         DIIS
    1      0.000D+00      0.000D+00      -196.27087134    527.678462   -0.00001   -0.00000   -0.00023    0
    2      0.000D+00      0.467D-02      -196.33873044    521.944975    0.00000    0.00001   -0.00085    1
    3      0.930D-02      0.177D-02      -196.34652104    524.515099    0.00000    0.00001   -0.00115    2
    4      0.346D-02      0.571D-03      -196.34766782    523.813771    0.00000    0.00001   -0.00111    3
    5      0.114D-02      0.118D-03      -196.34770240    523.880280    0.00000    0.00001   -0.00106    4
    6      0.198D-03      0.238D-04      -196.34770407    523.876520    0.00000    0.00001   -0.00109    5
    7      0.659D-04      0.226D-05      -196.34770410    523.876287    0.00000    0.00001   -0.00107    6
    8      0.685D-05      0.490D-06      -196.34770410    523.876245    0.00000    0.00001   -0.00108    6
    9      0.138D-05      0.772D-07      -196.34770410    523.876238    0.00000    0.00001   -0.00108    5
   10      0.242D-06      0.203D-07      -196.34770410    523.876241    0.00000    0.00001   -0.00108    6
   11      0.467D-07      0.425D-08      -196.34770410    523.876243    0.00000    0.00001   -0.00108    6
   12      0.107D-07      0.729D-09      -196.34770410    523.876242    0.00000    0.00001   -0.00108    6
   13      0.160D-08      0.320D-09      -196.34770410    523.876243    0.00000    0.00001   -0.00108    6
   14      0.638D-09      0.499D-10      -196.34770410    523.876242    0.00000    0.00001   -0.00108    6
   15      0.128D-09      0.174D-10      -196.34770410    523.876242    0.00000    0.00001   -0.00108    7
   16      0.500D-10      0.363D-11      -196.34770410    523.876242    0.00000    0.00001   -0.00108    7
   17      0.107D-10      0.807D-12      -196.34770410    523.876242    0.00000    0.00001   -0.00108    7
   18      0.256D-11      0.195D-12      -196.34770410    523.876242    0.00000    0.00001   -0.00108    0

 Final occupancy:  21

 !RHF STATE 1.1 Energy               -196.347704097583
 Nuclear energy                       198.59980373
 One-electron energy                 -656.88562908
 Two-electron energy                  261.93812125
 Virial quotient                       -1.00118083
 !RHF STATE 1.1 Dipole moment           0.00000429     0.00000848    -0.00107906
 Dipole moment /Debye                   0.00001091     0.00002155    -0.00274251

 Orbital energies:

         1.1          2.1          3.1          4.1          5.1          6.1          7.1          8.1          9.1         10.1
    -11.230714   -11.214275   -11.214253   -11.213933   -11.213908    -1.103752    -0.928022    -0.927506    -0.927156    -0.728616

        11.1         12.1         13.1         14.1         15.1         16.1         17.1         18.1         19.1         20.1
     -0.609450    -0.609361    -0.608416    -0.550843    -0.550135    -0.508244    -0.507592    -0.507525    -0.451074    -0.450311

        21.1         22.1         23.1
     -0.449607     0.170676     0.231084


 **********************************************************************************************************************************
 DATASETS  * FILE   NREC   LENGTH (MB)   RECORD NAMES
              1      19      283.49       500      610      700      900      950      970     1000      129      960     1100   
                                          VAR    BASINP    GEOM    SYMINP    ZMAT    AOBASIS   BASIS     P2S    ABASIS      S 
                                         1400     1410     1200     1210     1080     1600     1650     1300     1700   
                                           T        V       H0       H01     AOSYM     SMH    MOLCAS    ERIS     OPER   

              2       3        0.89       700     1000     2100   
                                         GEOM     BASIS     RHF  

 PROGRAMS   *        TOTAL       RHF       INT
 CPU TIMES  *         9.18      4.96      4.17
 REAL TIME  *        10.47 SEC
 DISK USED  *         1.03 GB      
 GA USED    *         0.01 MB       (max)       0.00 MB       (current)
 **********************************************************************************************************************************


1PROGRAM * CCSD (Closed-shell coupled cluster)     Authors: C. Hampel, H.-J. Werner, 1991, M. Deegan, P.J. Knowles, 1992


 Convergence thresholds:  THRVAR = 1.00D-08  THRDEN = 1.00D-12

 CCSD(T)     terms to be evaluated (factor= 1.000)


 Number of core orbitals:           5 (   5 )
 Number of closed-shell orbitals:  16 (  16 )
 Number of external orbitals:     109 ( 109 )

 Molecular orbitals read from record     2100.2  Type=RHF/CANONICAL (state 1.1)

 Number of N-1 electron functions:              16
 Number of N-2 electron functions:             136
 Number of singly external CSFs:              1744
 Number of doubly external CSFs:           1521640
 Total number of CSFs:                     1523385

 Length of J-op  integral file:               0.00 MB
 Length of K-op  integral file:               1.20 MB
 Length of 3-ext integral record:             0.00 MB

 Memory could be reduced to 28.13 Mwords without degradation in triples

 Integral transformation finished. Total CPU:   1.91 sec, npass=  1  Memory used:  22.98 MW

 Reference energy:                   -196.34770410

 MP2 singlet pair energy:              -0.48845338
 MP2 triplet pair energy:              -0.25007828
 MP2 correlation energy:               -0.73853166
 MP2 total energy:                   -197.08623576

 SCS-MP2 correlation energy:           -0.74174832   (PS=  1.200000  PT=  0.333333)
 SCS-MP2 total energy:               -197.08945241

 ITER.      SQ.NORM     CORR.ENERGY   TOTAL ENERGY   ENERGY CHANGE        DEN1      VAR(S)    VAR(P)  DIIS     TIME
   1      1.28821667    -0.80655668  -197.15426077    -0.06802502    -0.04667734  0.17D-02  0.47D-02  1  1     6.97
   2      1.31152492    -0.81149029  -197.15919438    -0.00493361    -0.02353352  0.47D-04  0.32D-03  2  2    12.10
   3      1.31554143    -0.81163998  -197.15934408    -0.00014970    -0.00244100  0.53D-05  0.22D-04  3  3    17.24
   4      1.31658431    -0.81170229  -197.15940639    -0.00006231    -0.00046285  0.25D-06  0.12D-05  4  4    22.38
   5      1.31671015    -0.81170669  -197.15941079    -0.00000440    -0.00005116  0.15D-07  0.93D-07  5  5    27.52
   6      1.31672276    -0.81170427  -197.15940837     0.00000242    -0.00000854  0.69D-09  0.61D-08  6  6    32.67
   7      1.31672135    -0.81170455  -197.15940865    -0.00000028     0.00000063  0.16D-09  0.52D-09  6  1    37.81
   8      1.31672106    -0.81170470  -197.15940879    -0.00000015     0.00000027  0.78D-11  0.30D-10  6  2    42.96
   9      1.31672078    -0.81170474  -197.15940884    -0.00000005     0.00000025  0.11D-11  0.25D-11  6  3    48.09
  10      1.31672067    -0.81170475  -197.15940885    -0.00000001     0.00000009  0.90D-13  0.22D-12  6  4    53.22
  11      1.31672060    -0.81170475  -197.15940885    -0.00000000     0.00000004  0.95D-14  0.24D-13  6  5    58.35
  12      1.31672057    -0.81170476  -197.15940885    -0.00000000     0.00000002  0.91D-15  0.12D-14  6  1    63.48
  13      1.31672057    -0.81170476  -197.15940885    -0.00000000     0.00000000  0.81D-16  0.70D-16  6  6    68.61
  14      1.31672057    -0.81170476  -197.15940885    -0.00000000     0.00000000  0.15D-16  0.97D-17  6  2    73.76
  15      1.31672057    -0.81170476  -197.15940885    -0.00000000     0.00000000  0.13D-17  0.11D-17  6  3    78.90
  16      1.31672057    -0.81170476  -197.15940885     0.00000000    -0.00000000  0.76D-19  0.94D-19  6  4    84.04
  17      1.31672057    -0.81170476  -197.15940885     0.00000000    -0.00000000  0.46D-20  0.89D-20  6  5    89.17
  18      1.31672057    -0.81170476  -197.15940885     0.00000000    -0.00000000  0.65D-21  0.13D-20  6  1    94.31
  19      1.31672057    -0.81170476  -197.15940885     0.00000000    -0.00000000  0.74D-22  0.18D-21  6  6    99.45

 Norm of t1 vector:      0.05469849      S-energy:    -0.00000000      T1 diagnostic:  0.00683731
                                                                       D1 diagnostic:  0.01261715


 Total CPU time for triples:     80.73 sec


 RESULTS
 =======

  Reference energy                   -196.347704097583
  CCSD singlet pair energy             -0.577588212179
  CCSD triplet pair energy             -0.234116543613
  CCSD correlation energy              -0.811704755792

  Triples (T) contribution             -0.023942537545
  Total correlation energy             -0.835647293337

  CCSD total energy                  -197.159408853375
  CCSD[T] energy                     -197.183810739474
  CCSD-T energy                      -197.183102725679
 !CCSD(T) total energy               -197.183351390920

 Timing summary (sec):

 STEP                 CPU(USER)    SYS     CPU(TOT)    WALL
 Transformation          1.99      0.17      2.16      2.15
 CCSD iterations        97.47      2.07     99.54     99.67
 Triples                80.73      1.57     82.30     82.30

 Program statistics:

 Available memory in ccsd:               999998876
 Min. memory needed in ccsd:               3966807
 Max. memory used in ccsd:                 5311887
 Max. memory used in cckext:               4858018 (19 integral passes)



 **********************************************************************************************************************************
 DATASETS  * FILE   NREC   LENGTH (MB)   RECORD NAMES
              1      20      395.20       500      610      700      900      950      970     1000      129      960     1100   
                                          VAR    BASINP    GEOM    SYMINP    ZMAT    AOBASIS   BASIS     P2S    ABASIS      S 
                                         1400     1410     1200     1210     1080     1600     1650     1300     1700     1380   
                                           T        V       H0       H01     AOSYM     SMH    MOLCAS    ERIS     OPER     JKOP   

              2       3        0.89       700     1000     2100   
                                         GEOM     BASIS     RHF  

 PROGRAMS   *        TOTAL   CCSD(T)       RHF       INT
 CPU TIMES  *       189.38    180.20      4.96      4.17
 REAL TIME  *       194.64 SEC
 DISK USED  *         1.03 GB      
 GA USED    *         0.01 MB       (max)       0.00 MB       (current)
 **********************************************************************************************************************************

        CCSD(T)         RHF-SCF 
   -197.18335139   -196.34770410
 **********************************************************************************************************************************
 Variable memory released
