
 Primary working directories    : /tmp/985636.1057.gen6.q
 Secondary working directories  : /tmp/985636.1057.gen6.q
 Wavefunction directory         : /home/vulcan/jj04645/wfu/
 Main file repository           : /tmp/985636.1057.gen6.q/

 ARCHNAME  : Linux/x86_64
 FC        : /opt/intel/compilers_and_libraries_2016.1.150/linux/bin/intel64/ifort
 FCVERSION : 16.0.1
 BLASLIB   : -mkl
 id        : ccgc

 Nodes     nprocs
 n091         1
 ga_uses_ma=false, calling ma_init with nominal heap.
 GA-space will be limited to   8.0 MW (determined by -G option)

 Using customized tuning parameters: mindgm=10; mindgv=16; mindgc=4; mindgr=1; noblas=0; mincuda=1000; minvec=7
 default implementation of scratch files=df  

 ***,Optimization of tetrahydrothiopyran
 memory,1000,m
 gthresh,energy=1.0d-12,orbital=1.0d-10,oneint=1.0d-16,twoint=1.0d-16,optgrad=1.0d-6,compress=1.0d-13
 geomtyp=xyz
 
 bohr
 geometry = {
  S    0.3529801606    2.7085694728    0.0000000000
  C   -0.3316591323   -3.3736101138   -0.0000000000
  C   -0.6610414165    0.6698244950   -2.5754201576
  C   -0.6610414165    0.6698244950    2.5754201576
  C    0.4714740465   -1.9817941301   -2.4088561573
  C    0.4714740465   -1.9817941301    2.4088561573
  H   -2.7273077594    0.5720172799   -2.5784811084
  H   -2.7273077594    0.5720172799    2.5784811084
  H   -0.0735586168    1.6223407506   -4.3078209856
  H   -0.0735586168    1.6223407506    4.3078209856
  H    2.5336161068   -1.8370006471   -2.4732665893
  H    2.5336161068   -1.8370006471    2.4732665893
  H   -0.1258365802   -3.0712247737   -4.0637716056
  H   -0.1258365802   -3.0712247737    4.0637716056
  H    0.4661211748   -5.2717459399   -0.0000000000
  H   -2.4008687807   -3.5913607853   -0.0000000000
 }
 
 basis=VDZ
 {rhf;maxit,200}
 {ccsd(t);maxit,200}

 Variables initialized (661), CPU time= 0.00 sec
 Commands  initialized (458), CPU time= 0.01 sec, 486 directives.
 Default parameters read. Elapsed time= 0.04 sec

 Checking input...
 Passed
1


                                         ***  PROGRAM SYSTEM MOLPRO  ***
                         Copyright, University College Cardiff Consultants Limited, 2008

                                    Version 2010.1 linked May 16 2016 07:17:05


 **********************************************************************************************************************************
 LABEL *   Optimization of tetrahydrothiopyran                                           
 Linux-4.4.3/n091(x86_64) 64 bit mpp version                                             DATE: 26-Jan-24          TIME: 16:06:14  
 **********************************************************************************************************************************

 SHA1:             9e8077add272b0f3cad6f7df79ec5211205f459d
 **********************************************************************************************************************************

 THRESHOLDS:

 ZERO    =  1.00D-12  ONEINT  =  1.00D-16  TWOINT  =  1.00D-16  PREFAC  =  1.00D-14  LOCALI  =  1.00D-09  EORDER  =  1.00D-04
 ENERGY  =  1.00D-12  ETEST   =  0.00D+00  EDENS   =  0.00D+00  THRDEDEF=  1.00D-06  GRADIENT=  1.00D-02  STEP    =  1.00D-03
 ORBITAL =  1.00D-10  CIVEC   =  1.00D-05  COEFF   =  1.00D-04  PRINTCI =  5.00D-02  PUNCHCI =  9.90D+01  OPTGRAD =  1.00D-06
 OPTENERG=  1.00D-06  OPTSTEP =  3.00D-04  THRGRAD =  1.00D-10  COMPRESS=  1.00D-13  VARMIN  =  1.00D-07  VARMAX  =  1.00D-03
 THRDOUB =  0.00D+00  THRDIV  =  1.00D-05  THRRED  =  1.00D-07  THRPSP  =  1.00D+00  THRDC   =  1.00D-10  THRCS   =  1.00D-10
 THRNRM  =  1.00D-08  THREQ   =  0.00D+00  THRDE   =  1.00D+00  THRREF  =  1.00D-05  SPARFAC =  1.00D+00  THRDLP  =  1.00D-07
 THRDIA  =  1.00D-10  THRDLS  =  1.00D-07  THRGPS  =  0.00D+00  THRKEX  =  0.00D+00  THRDIS  =  2.00D-01  THRVAR  =  1.00D-10
 THRLOC  =  1.00D-06  THRGAP  =  1.00D-06  THRLOCT = -1.00D+00  THRGAPT = -1.00D+00  THRORB  =  1.00D-06  THRMLTP =  0.00D+00
 THRCPQCI=  1.00D-10  KEXTA   =  0.00D+00  THRCOARS=  0.00D+00  SYMTOL  =  1.00D-06  GRADTOL =  1.00D-06  THROVL  =  1.00D-08
 THRORTH =  1.00D-08  GRID    =  1.00D-06  GRIDMAX =  1.00D-03  DTMAX   =  0.00D+00

 SETTING GEOMTYP        =    XYZ
 ZUNIT=BOHR
 

 Variable memory set to 1000000000 words,  buffer space   230000 words

 SETTING BASIS          =    VDZ


 Recomputing integrals since basis changed


 Using spherical harmonics

 Library entry S      S cc-pVDZ              selected for orbital group  1
 Library entry S      P cc-pVDZ              selected for orbital group  1
 Library entry S      D cc-pVDZ              selected for orbital group  1
 Library entry C      S cc-pVDZ              selected for orbital group  2
 Library entry C      P cc-pVDZ              selected for orbital group  2
 Library entry C      D cc-pVDZ              selected for orbital group  2
 Library entry H      S cc-pVDZ              selected for orbital group  3
 Library entry H      P cc-pVDZ              selected for orbital group  3

1PROGRAM * SEWARD (Integral evaluation for generally contracted gaussian basis sets)     Author: Roland Lindh, 1990

 Geometry written to block  1 of record 700


 Point group  Cs  



 ATOMIC COORDINATES

 NR  ATOM    CHARGE       X              Y              Z

   1  S      16.00    0.352980161    2.708569473    0.000000000
   2  C       6.00   -0.331659132   -3.373610114    0.000000000
   3  C       6.00   -0.661041417    0.669824495   -2.575420158
   4  C       6.00   -0.661041417    0.669824495    2.575420158
   5  C       6.00    0.471474047   -1.981794130   -2.408856157
   6  C       6.00    0.471474047   -1.981794130    2.408856157
   7  H       1.00   -2.727307759    0.572017280   -2.578481108
   8  H       1.00   -2.727307759    0.572017280    2.578481108
   9  H       1.00   -0.073558617    1.622340751   -4.307820986
  10  H       1.00   -0.073558617    1.622340751    4.307820986
  11  H       1.00    2.533616107   -1.837000647   -2.473266589
  12  H       1.00    2.533616107   -1.837000647    2.473266589
  13  H       1.00   -0.125836580   -3.071224774   -4.063771606
  14  H       1.00   -0.125836580   -3.071224774    4.063771606
  15  H       1.00    0.466121175   -5.271745940    0.000000000
  16  H       1.00   -2.400868781   -3.591360785    0.000000000

 Bond lengths in Bohr (Angstrom)

  1- 3  3.437660517   1- 4  3.437660517   2- 5  2.895645459   2- 6  2.895645459   2-15  2.058973781
       ( 1.819131598)       ( 1.819131598)       ( 1.532309582)       ( 1.532309582)       ( 1.089561999)

  2-16  2.080635462   3- 5  2.888150996   3- 7  2.068582176   3- 9  2.062434456   4- 6  2.888150996
       ( 1.101024867)       ( 1.528343683)       ( 1.094646543)       ( 1.091393309)       ( 1.528343683)

  4- 8  2.068582176   4-10  2.062434456   5-11  2.068222361   5-13  2.069392242   6-12  2.068222361
       ( 1.094646543)       ( 1.091393309)       ( 1.094456136)       ( 1.095075211)       ( 1.094456136)

  6-14  2.069392242
       ( 1.095075211)

 Bond angles

  1-3-5  112.68214393   1-3-7  108.89252381   1-3-9  105.74582668   1-4-6  112.68214393

  1- 4- 8  108.89252381   1- 4-10  105.74582668   2- 5- 3  112.36531161   2- 5-11  109.63951718

  2- 5-13  109.40062495   2- 6- 4  112.36531161   2- 6-12  109.63951718   2- 6-14  109.40062495

  3- 1- 4   97.03847411   3- 5-11  108.95956273   3- 5-13  108.90687931   4- 6-12  108.95956273

  4- 6-14  108.90687931   5- 2- 6  112.58659096   5- 2-15  109.61173385   5- 2-16  109.03462750

  5- 3- 7  110.38710761   5- 3- 9  111.14709519   6- 2-15  109.61173385   6- 2-16  109.03462750

  6- 4- 8  110.38710761   6- 4-10  111.14709519   7- 3- 9  107.76563772   8- 4-10  107.76563772

 11- 5-13  107.44215321  12- 6-14  107.44215321  15- 2-16  106.78951797

 NUCLEAR CHARGE:                   56
 NUMBER OF PRIMITIVE AOS:         247
 NUMBER OF SYMMETRY AOS:          241
 NUMBER OF CONTRACTIONS:          138   (  79A'  +  59A"  )
 NUMBER OF CORE ORBITALS:          10   (   7A'  +   3A"  )
 NUMBER OF VALENCE ORBITALS:       34   (  20A'  +  14A"  )


 NUCLEAR REPULSION ENERGY  312.09023513


 Eigenvalues of metric

         1 0.305E-02 0.426E-02 0.632E-02 0.157E-01 0.197E-01 0.239E-01 0.284E-01 0.342E-01
         2 0.285E-02 0.707E-02 0.151E-01 0.195E-01 0.220E-01 0.342E-01 0.351E-01 0.358E-01


 Contracted 2-electron integrals neglected if value below      1.0D-16
 AO integral compression algorithm  1   Integral accuracy      1.0D-16

     207.094 MB (compressed) written to integral file ( 97.6%)

     Node minimum: 207.094 MB, node maximum: 207.094 MB


 NUMBER OF SORTED TWO-ELECTRON INTEGRALS:   23341315.     BUFFER LENGTH:  32768
 NUMBER OF SEGMENTS:   2  SEGMENT LENGTH:   15994315      RECORD LENGTH: 524288

 Memory used in sort:      16.55 MW

 SORT1 READ    26508670. AND WROTE    23262019. INTEGRALS IN     68 RECORDS. CPU TIME:     0.28 SEC, REAL TIME:     0.44 SEC
 SORT2 READ    23262019. AND WROTE    23341315. INTEGRALS IN    790 RECORDS. CPU TIME:     0.20 SEC, REAL TIME:     0.30 SEC

 FILE SIZES:   FILE 1:   187.9 MBYTE,  FILE 4:   285.2 MBYTE,   TOTAL:    473.1 MBYTE

 OPERATOR DM      FOR CENTER  0  COORDINATES:    0.000000    0.000000    0.000000


 **********************************************************************************************************************************
 DATASETS  * FILE   NREC   LENGTH (MB)   RECORD NAMES
              1      19      188.01       500      610      700      900      950      970     1000      129      960     1100   
                                          VAR    BASINP    GEOM    SYMINP    ZMAT    AOBASIS   BASIS     P2S    ABASIS      S 
                                         1400     1410     1200     1210     1080     1600     1650     1300     1700   
                                           T        V       H0       H01     AOSYM     SMH    MOLCAS    ERIS     OPER   

 PROGRAMS   *        TOTAL       INT
 CPU TIMES  *         3.00      2.96
 REAL TIME  *         3.76 SEC
 DISK USED  *       681.24 MB      
 GA USED    *         0.00 MB       (max)       0.00 MB       (current)
 **********************************************************************************************************************************

1PROGRAM * RHF-SCF (CLOSED SHELL)       Authors: W. Meyer, H.-J. Werner


 NUMBER OF ELECTRONS:      28+   28-
 CONVERGENCE THRESHOLDS:    1.00E-10 (Density)    1.00E-13 (Energy)
 MAX. NUMBER OF ITERATIONS:      200
 INTERPOLATION TYPE:            DIIS
 INTERPOLATION STEPS:              2 (START)      1 (STEP)
 LEVEL SHIFTS:                  0.00 (CLOSED)  0.00 (OPEN) 



 Orbital guess generated from atomic densities. Full valence occupancy:   27  17

 Molecular orbital dump at record        2100.2

 Initial alpha occupancy:  18  10
 Initial beta  occupancy:  18  10
 Wave function symmetry:    1

 ITERATION    DDIFF          GRAD             ENERGY        2-EL.EN.            DIPOLE MOMENTS         DIIS
    1      0.000D+00      0.000D+00      -592.64383418   1056.745926   -0.40702   -0.80355    0.00000    0
    2      0.000D+00      0.552D-02      -592.70485555   1054.162180   -0.20583   -0.74071    0.00000    1
    3      0.109D-01      0.185D-02      -592.71079705   1055.596090   -0.27776   -0.67781    0.00000    2
    4      0.375D-02      0.753D-03      -592.71180848   1054.978466   -0.25049   -0.71127    0.00000    3
    5      0.130D-02      0.108D-03      -592.71183428   1055.041366   -0.24651   -0.70277    0.00000    4
    6      0.253D-03      0.374D-04      -592.71183683   1055.010445   -0.24823   -0.70308    0.00000    5
    7      0.706D-04      0.867D-05      -592.71183704   1055.013583   -0.24756   -0.70296    0.00000    6
    8      0.231D-04      0.244D-05      -592.71183706   1055.012717   -0.24755   -0.70282    0.00000    7
    9      0.761D-05      0.636D-06      -592.71183706   1055.012599   -0.24753   -0.70278    0.00000    7
   10      0.179D-05      0.226D-06      -592.71183706   1055.012638   -0.24752   -0.70278    0.00000    7
   11      0.671D-06      0.480D-07      -592.71183706   1055.012623   -0.24753   -0.70278    0.00000    7
   12      0.159D-06      0.961D-08      -592.71183706   1055.012629   -0.24753   -0.70278    0.00000    7
   13      0.256D-07      0.402D-08      -592.71183706   1055.012626   -0.24753   -0.70278    0.00000    7
   14      0.887D-08      0.118D-08      -592.71183706   1055.012627   -0.24753   -0.70278    0.00000    7
   15      0.317D-08      0.383D-09      -592.71183706   1055.012626   -0.24753   -0.70278    0.00000    7
   16      0.926D-09      0.119D-09      -592.71183706   1055.012627   -0.24753   -0.70278    0.00000    8
   17      0.287D-09      0.258D-10      -592.71183706   1055.012627   -0.24753   -0.70278    0.00000    7
   18      0.684D-10      0.763D-11      -592.71183706   1055.012627   -0.24753   -0.70278    0.00000    7
   19      0.241D-10      0.226D-11      -592.71183706   1055.012627   -0.24753   -0.70278    0.00000    0

 Final occupancy:  18  10

 !RHF STATE 1.1 Energy               -592.711837064566
 Nuclear energy                       312.09023513
 One-electron energy                -1432.30838547
 Two-electron energy                  527.50631327
 Virial quotient                       -1.00019595
 !RHF STATE 1.1 Dipole moment          -0.24752529    -0.70277632     0.00000000
 Dipole moment /Debye                  -0.62910533    -1.78616225     0.00000000

 Orbital energies:

         1.1          2.1          3.1          4.1          5.1          6.1          7.1          8.1          9.1         10.1
    -91.929911   -11.254905   -11.231016   -11.229206    -8.933783    -6.614246    -6.612040    -1.119545    -1.006817    -0.836047

        11.1         12.1         13.1         14.1         15.1         16.1         17.1         18.1         19.1         20.1
     -0.755488    -0.647077    -0.609699    -0.578352    -0.496644    -0.472843    -0.412192    -0.328800     0.177024     0.201149

         1.2          2.2          3.2          4.2          5.2          6.2          7.2          8.2          9.2         10.2
    -11.254918   -11.230927    -6.615674    -1.019689    -0.842244    -0.614131    -0.546705    -0.523514    -0.497372    -0.434092

        11.2         12.2
      0.190064     0.222778


 **********************************************************************************************************************************
 DATASETS  * FILE   NREC   LENGTH (MB)   RECORD NAMES
              1      19      188.01       500      610      700      900      950      970     1000      129      960     1100   
                                          VAR    BASINP    GEOM    SYMINP    ZMAT    AOBASIS   BASIS     P2S    ABASIS      S 
                                         1400     1410     1200     1210     1080     1600     1650     1300     1700   
                                           T        V       H0       H01     AOSYM     SMH    MOLCAS    ERIS     OPER   

              2       3        0.73       700     1000     2100   
                                         GEOM     BASIS     RHF  

 PROGRAMS   *        TOTAL       RHF       INT
 CPU TIMES  *         4.79      1.79      2.96
 REAL TIME  *         5.90 SEC
 DISK USED  *       681.24 MB      
 GA USED    *         0.00 MB       (max)       0.00 MB       (current)
 **********************************************************************************************************************************


1PROGRAM * CCSD (Closed-shell coupled cluster)     Authors: C. Hampel, H.-J. Werner, 1991, M. Deegan, P.J. Knowles, 1992


 Convergence thresholds:  THRVAR = 1.00D-08  THRDEN = 1.00D-12

 CCSD(T)     terms to be evaluated (factor= 1.000)


 Number of core orbitals:          10 (   7   3 )
 Number of closed-shell orbitals:  18 (  11   7 )
 Number of external orbitals:     110 (  61  49 )

 Molecular orbitals read from record     2100.2  Type=RHF/CANONICAL (state 1.1)

 Number of N-1 electron functions:              18
 Number of N-2 electron functions:             171
 Number of singly external CSFs:              1014
 Number of doubly external CSFs:            981666
 Total number of CSFs:                      982681

 Length of J-op  integral file:               0.00 MB
 Length of K-op  integral file:               0.70 MB
 Length of 3-ext integral record:             0.00 MB

 Memory could be reduced to 16.31 Mwords without degradation in triples

 Integral transformation finished. Total CPU:   0.74 sec, npass=  1  Memory used:  10.63 MW

 Reference energy:                   -592.71183706

 MP2 singlet pair energy:              -0.53948090
 MP2 triplet pair energy:              -0.30437930
 MP2 correlation energy:               -0.84386020
 MP2 total energy:                   -593.55569726

 SCS-MP2 correlation energy:           -0.83676864   (PS=  1.200000  PT=  0.333333)
 SCS-MP2 total energy:               -593.54860571

 ITER.      SQ.NORM     CORR.ENERGY   TOTAL ENERGY   ENERGY CHANGE        DEN1      VAR(S)    VAR(P)  DIIS     TIME
   1      1.33972200    -0.91083450  -593.62267156    -0.06697430    -0.04301368  0.26D-02  0.55D-02  1  1     2.29
   2      1.36672025    -0.91618198  -593.62801905    -0.00534749    -0.02577819  0.69D-04  0.46D-03  2  2     3.90
   3      1.37205543    -0.91630993  -593.62814699    -0.00012794    -0.00303855  0.16D-04  0.28D-04  3  3     5.51
   4      1.37354919    -0.91636801  -593.62820507    -0.00005808    -0.00059412  0.76D-06  0.20D-05  4  4     7.14
   5      1.37378994    -0.91637461  -593.62821168    -0.00000661    -0.00007086  0.17D-06  0.16D-06  5  5     8.75
   6      1.37383561    -0.91637016  -593.62820723     0.00000445    -0.00001393  0.30D-07  0.14D-07  6  6    10.38
   7      1.37384319    -0.91637005  -593.62820712     0.00000011     0.00000064  0.53D-08  0.23D-08  6  2    11.99
   8      1.37384927    -0.91636974  -593.62820680     0.00000031    -0.00000124  0.73D-09  0.26D-09  6  1    13.62
   9      1.37385009    -0.91636968  -593.62820674     0.00000006     0.00000050  0.66D-10  0.44D-10  6  4    15.24
  10      1.37385098    -0.91636964  -593.62820671     0.00000003    -0.00000011  0.48D-11  0.35D-11  6  3    16.86
  11      1.37385099    -0.91636964  -593.62820671    -0.00000000     0.00000004  0.11D-11  0.54D-12  6  5    18.48
  12      1.37385095    -0.91636965  -593.62820671    -0.00000000     0.00000002  0.17D-12  0.77D-13  6  6    20.10
  13      1.37385090    -0.91636965  -593.62820671    -0.00000000     0.00000002  0.23D-13  0.10D-13  6  1    21.73
  14      1.37385089    -0.91636965  -593.62820671    -0.00000000     0.00000000  0.30D-14  0.12D-14  6  2    23.35
  15      1.37385089    -0.91636965  -593.62820671     0.00000000    -0.00000000  0.66D-15  0.30D-15  6  4    24.96
  16      1.37385090    -0.91636965  -593.62820671     0.00000000    -0.00000000  0.31D-16  0.23D-16  6  5    26.56
  17      1.37385090    -0.91636965  -593.62820671     0.00000000    -0.00000000  0.55D-17  0.23D-17  6  3    28.18
  18      1.37385090    -0.91636965  -593.62820671     0.00000000    -0.00000000  0.18D-17  0.47D-18  6  6    29.80
  19      1.37385090    -0.91636965  -593.62820671     0.00000000    -0.00000000  0.36D-18  0.11D-18  6  1    31.42
  20      1.37385090    -0.91636965  -593.62820671     0.00000000     0.00000000  0.44D-19  0.17D-19  6  2    33.04
  21      1.37385090    -0.91636965  -593.62820671    -0.00000000     0.00000000  0.79D-20  0.33D-20  6  4    34.67

 Norm of t1 vector:      0.07015186      S-energy:    -0.00000000      T1 diagnostic:  0.00826748
                                                                       D1 diagnostic:  0.02107025


 Total CPU time for triples:     30.00 sec


 RESULTS
 =======

  Reference energy                   -592.711837064566
  CCSD singlet pair energy             -0.634238986588
  CCSD triplet pair energy             -0.282130661926
  CCSD correlation energy              -0.916369648515

  Triples (T) contribution             -0.029870876998
  Total correlation energy             -0.946240525513

  CCSD total energy                  -593.628206713080
  CCSD[T] energy                     -593.658697048400
  CCSD-T energy                      -593.657766394554
 !CCSD(T) total energy               -593.658077590078

 Timing summary (sec):

 STEP                 CPU(USER)    SYS     CPU(TOT)    WALL
 Transformation          0.76      0.12      0.88      0.89
 CCSD iterations        33.91      1.27     35.18     35.24
 Triples                30.00      0.97     30.97     30.99

 Program statistics:

 Available memory in ccsd:               999998604
 Min. memory needed in ccsd:               2548392
 Max. memory used in ccsd:                 3412984
 Max. memory used in cckext:               3730705 (21 integral passes)



 **********************************************************************************************************************************
 DATASETS  * FILE   NREC   LENGTH (MB)   RECORD NAMES
              1      20      256.18       500      610      700      900      950      970     1000      129      960     1100   
                                          VAR    BASINP    GEOM    SYMINP    ZMAT    AOBASIS   BASIS     P2S    ABASIS      S 
                                         1400     1410     1200     1210     1080     1600     1650     1300     1700     1380   
                                           T        V       H0       H01     AOSYM     SMH    MOLCAS    ERIS     OPER     JKOP   

              2       3        0.73       700     1000     2100   
                                         GEOM     BASIS     RHF  

 PROGRAMS   *        TOTAL   CCSD(T)       RHF       INT
 CPU TIMES  *        69.46     64.66      1.79      2.96
 REAL TIME  *        73.05 SEC
 DISK USED  *       681.24 MB      
 GA USED    *         0.00 MB       (max)       0.00 MB       (current)
 **********************************************************************************************************************************

        CCSD(T)         RHF-SCF 
   -593.65807759   -592.71183706
 **********************************************************************************************************************************
 Variable memory released
