
 Primary working directories    : /tmp/1049102.1588.gen4.q
 Secondary working directories  : /tmp/1049102.1588.gen4.q
 Wavefunction directory         : /home/vulcan/mel64643/wfu/
 Main file repository           : /tmp/1049102.1588.gen4.q/

 ARCHNAME  : Linux/x86_64
 FC        : /opt/intel/compilers_and_libraries_2016.1.150/linux/bin/intel64/ifort
 FCVERSION : 16.0.1
 BLASLIB   : -mkl
 id        : ccgc

 Nodes     nprocs
 n067         1
 ga_uses_ma=false, calling ma_init with nominal heap.
 GA-space will be limited to   8.0 MW (determined by -G option)

 Using customized tuning parameters: mindgm=10; mindgv=16; mindgc=4; mindgr=1; noblas=0; mincuda=1000; minvec=7
 default implementation of scratch files=df  

 ***,Optimization of h2o_3
 memory,1000,m
 gthresh,energy=1.0d-12,orbital=1.0d-10,oneint=1.0d-16,twoint=1.0d-16,optgrad=1.0d-6,compress=1.0d-13
 geomtyp=xyz
 
 
 
 bohr
 geometry = {
  C    0.9157396217    1.4104392445   -2.2730110386
  C    0.7476157739    2.7153888257    0.0183958806
  C    1.0053167869    1.4117426955    2.3023704148
  C    1.4295433071   -1.1968999336    2.2949415466
  C    1.5983961378   -2.5013604485    0.0035756095
  C    1.3407546338   -1.1974908087   -2.2801949402
  H    0.7185680399    2.4218016766   -4.0430086764
  H    0.4091422155    4.7350628346    0.0241066194
  H    0.8639340593    2.4217039494    4.0787225031
  H    1.6149724579   -2.2092514189    4.0660578235
  H    1.9193422195   -4.5243727049   -0.0021016094
  H    1.4750446079   -2.2080526381   -4.0570419470
  N   -5.4420991063   -0.3719453375   -0.0699892352
  H   -5.5874224088   -1.5834352021   -1.5506875204
  H   -6.0657020597   -1.3322349788    1.4695248719
  H   -3.5622144196   -0.0828853531    0.1984173749
 }
 
 basis=aug-cc-pvdz, H=cc-pvdz
 {rhf;maxit,200}
 {ccsd(t)}

 Variables initialized (661), CPU time= 0.00 sec
 Commands  initialized (458), CPU time= 0.00 sec, 486 directives.
 Default parameters read. Elapsed time= 0.05 sec

 Checking input...
 Passed
1


                                         ***  PROGRAM SYSTEM MOLPRO  ***
                         Copyright, University College Cardiff Consultants Limited, 2008

                                    Version 2010.1 linked May 16 2016 07:17:05


 **********************************************************************************************************************************
 LABEL *   Optimization of h2o_3                                                         
 Linux-4.4.3/n067(x86_64) 64 bit mpp version                                             DATE: 21-Mar-24          TIME: 10:26:36  
 **********************************************************************************************************************************

 SHA1:             9e8077add272b0f3cad6f7df79ec5211205f459d
 **********************************************************************************************************************************

 THRESHOLDS:

 ZERO    =  1.00D-12  ONEINT  =  1.00D-16  TWOINT  =  1.00D-16  PREFAC  =  1.00D-14  LOCALI  =  1.00D-09  EORDER  =  1.00D-04
 ENERGY  =  1.00D-12  ETEST   =  0.00D+00  EDENS   =  0.00D+00  THRDEDEF=  1.00D-06  GRADIENT=  1.00D-02  STEP    =  1.00D-03
 ORBITAL =  1.00D-10  CIVEC   =  1.00D-05  COEFF   =  1.00D-04  PRINTCI =  5.00D-02  PUNCHCI =  9.90D+01  OPTGRAD =  1.00D-06
 OPTENERG=  1.00D-06  OPTSTEP =  3.00D-04  THRGRAD =  1.00D-10  COMPRESS=  1.00D-13  VARMIN  =  1.00D-07  VARMAX  =  1.00D-03
 THRDOUB =  0.00D+00  THRDIV  =  1.00D-05  THRRED  =  1.00D-07  THRPSP  =  1.00D+00  THRDC   =  1.00D-10  THRCS   =  1.00D-10
 THRNRM  =  1.00D-08  THREQ   =  0.00D+00  THRDE   =  1.00D+00  THRREF  =  1.00D-05  SPARFAC =  1.00D+00  THRDLP  =  1.00D-07
 THRDIA  =  1.00D-10  THRDLS  =  1.00D-07  THRGPS  =  0.00D+00  THRKEX  =  0.00D+00  THRDIS  =  2.00D-01  THRVAR  =  1.00D-10
 THRLOC  =  1.00D-06  THRGAP  =  1.00D-06  THRLOCT = -1.00D+00  THRGAPT = -1.00D+00  THRORB  =  1.00D-06  THRMLTP =  0.00D+00
 THRCPQCI=  1.00D-10  KEXTA   =  0.00D+00  THRCOARS=  0.00D+00  SYMTOL  =  1.00D-06  GRADTOL =  1.00D-06  THROVL  =  1.00D-08
 THRORTH =  1.00D-08  GRID    =  1.00D-06  GRIDMAX =  1.00D-03  DTMAX   =  0.00D+00

 SETTING GEOMTYP        =    XYZ
 ZUNIT=BOHR
 

 Variable memory set to 1000000000 words,  buffer space   230000 words

 SETTING BASIS          =    AUG-CC-PVDZ,H=CC-PVDZ


 Recomputing integrals since basis changed


 Using spherical harmonics

 Library entry C      S aug-cc-pVDZ          selected for orbital group  1
 Library entry C      P aug-cc-pVDZ          selected for orbital group  1
 Library entry C      D aug-cc-pVDZ          selected for orbital group  1
 Library entry H      S cc-pVDZ              selected for orbital group  2
 Library entry H      P cc-pVDZ              selected for orbital group  2
 Library entry N      S aug-cc-pVDZ          selected for orbital group  3
 Library entry N      P aug-cc-pVDZ          selected for orbital group  3
 Library entry N      D aug-cc-pVDZ          selected for orbital group  3

1PROGRAM * SEWARD (Integral evaluation for generally contracted gaussian basis sets)     Author: Roland Lindh, 1990

 Geometry written to block  1 of record 700


 Point group  C1  



 ATOMIC COORDINATES

 NR  ATOM    CHARGE       X              Y              Z

   1  C       6.00    0.915739622    1.410439245   -2.273011039
   2  C       6.00    0.747615774    2.715388826    0.018395881
   3  C       6.00    1.005316787    1.411742696    2.302370415
   4  C       6.00    1.429543307   -1.196899934    2.294941547
   5  C       6.00    1.598396138   -2.501360448    0.003575610
   6  C       6.00    1.340754634   -1.197490809   -2.280194940
   7  H       1.00    0.718568040    2.421801677   -4.043008676
   8  H       1.00    0.409142216    4.735062835    0.024106619
   9  H       1.00    0.863934059    2.421703949    4.078722503
  10  H       1.00    1.614972458   -2.209251419    4.066057823
  11  H       1.00    1.919342220   -4.524372705   -0.002101609
  12  H       1.00    1.475044608   -2.208052638   -4.057041947
  13  N       7.00   -5.442099106   -0.371945337   -0.069989235
  14  H       1.00   -5.587422409   -1.583435202   -1.550687520
  15  H       1.00   -6.065702060   -1.332234979    1.469524872
  16  H       1.00   -3.562214420   -0.082885353    0.198417375

 Bond lengths in Bohr (Angstrom)

 1-2  2.642291564  1-6  2.642345271  1-7  2.048077694  2-3  2.642431213  2-8  2.047847666
     ( 1.398240475)     ( 1.398268896)     ( 1.083796038)     ( 1.398314375)     ( 1.083674313)

  3- 4  2.642922567   3- 9  2.048276727   4- 5  2.642061008   4-10  2.048436566   5- 6  2.642359382
       ( 1.398574388)       ( 1.083901362)       ( 1.398118470)       ( 1.083985945)       ( 1.398276363)

  5-11  2.048320582   6-12  2.048524907  13-14  1.918669843  13-15  1.918629856  13-16  1.920823838
       ( 1.083924569)       ( 1.084032693)       ( 1.015316352)       ( 1.015295192)       ( 1.016456198)

 Bond angles

  1- 2- 3  119.98067202   1- 2- 8  120.00071588   1- 6- 5  120.02353123   1- 6-12  119.98606075

  2-1-6  120.00199302   2-1-7  119.96393415   2-3-4  120.01167739   2-3-9  119.97385960

  3- 2- 8  120.01801942   3- 4- 5  120.00136513   3- 4-10  119.99315926   4- 3- 9  120.01325097

  4- 5- 6  119.98073327   4- 5-11  120.00301815   5- 4-10  120.00422411   5- 6-12  119.99024453

  6- 1- 7  120.03403677   6- 5-11  120.01550419  14-13-15  106.17607565  14-13-16  106.08043224

 15-13-16  106.33745562

 NUCLEAR CHARGE:                   52
 NUMBER OF PRIMITIVE AOS:         322
 NUMBER OF SYMMETRY AOS:          308
 NUMBER OF CONTRACTIONS:          206   ( 206A   )
 NUMBER OF CORE ORBITALS:           7   (   7A   )
 NUMBER OF VALENCE ORBITALS:       37   (  37A   )


 NUCLEAR REPULSION ENERGY  273.70475206


 Eigenvalues of metric

         1 0.861E-05 0.184E-04 0.228E-04 0.532E-04 0.643E-04 0.644E-04 0.107E-03 0.107E-03


 Contracted 2-electron integrals neglected if value below      1.0D-16
 AO integral compression algorithm  1   Integral accuracy      1.0D-16

     1892.418 MB (compressed) written to integral file ( 94.5%)

     Node minimum: 1892.418 MB, node maximum: 1892.418 MB


 NUMBER OF SORTED TWO-ELECTRON INTEGRALS:  227303181.     BUFFER LENGTH:  32768
 NUMBER OF SEGMENTS:  15  SEGMENT LENGTH:   15999503      RECORD LENGTH: 524288

 Memory used in sort:      16.56 MW

 SORT1 READ   250230670. AND WROTE   226406266. INTEGRALS IN    654 RECORDS. CPU TIME:     2.45 SEC, REAL TIME:     4.18 SEC
 SORT2 READ   226406266. AND WROTE   227303181. INTEGRALS IN   7219 RECORDS. CPU TIME:     1.49 SEC, REAL TIME:     2.32 SEC

 FILE SIZES:   FILE 1:  1743.2 MBYTE,  FILE 4:  2743.1 MBYTE,   TOTAL:   4486.3 MBYTE

 OPERATOR DM      FOR CENTER  0  COORDINATES:    0.000000    0.000000    0.000000


 **********************************************************************************************************************************
 DATASETS  * FILE   NREC   LENGTH (MB)   RECORD NAMES
              1      19     1743.72       500      610      700      900      950      970     1000      129      960     1100   
                                          VAR    BASINP    GEOM    SYMINP    ZMAT    AOBASIS   BASIS     P2S    ABASIS      S 
                                         1400     1410     1200     1210     1080     1600     1650     1300     1700   
                                           T        V       H0       H01     AOSYM     SMH    MOLCAS    ERIS     OPER   

 PROGRAMS   *        TOTAL       INT
 CPU TIMES  *        14.79     14.75
 REAL TIME  *        18.44 SEC
 DISK USED  *         6.38 GB      
 GA USED    *         0.01 MB       (max)       0.00 MB       (current)
 **********************************************************************************************************************************

1PROGRAM * RHF-SCF (CLOSED SHELL)       Authors: W. Meyer, H.-J. Werner


 NUMBER OF ELECTRONS:      26+   26-    SPACE SYMMETRY=1    SPIN SYMMETRY: Singlet 
 CONVERGENCE THRESHOLDS:    1.00E-10 (Density)    1.00E-13 (Energy)
 MAX. NUMBER OF ITERATIONS:      200
 INTERPOLATION TYPE:            DIIS
 INTERPOLATION STEPS:              2 (START)      1 (STEP)
 LEVEL SHIFTS:                  0.00 (CLOSED)  0.00 (OPEN) 



 Orbital guess generated from atomic densities. Full valence occupancy:   44

 Molecular orbital dump at record        2100.2

 ITERATION    DDIFF          GRAD             ENERGY        2-EL.EN.            DIPOLE MOMENTS         DIIS
    1      0.000D+00      0.000D+00      -286.85325084    740.871672    0.52129   -0.76660    0.13598    0
    2      0.000D+00      0.322D-02      -286.92080848    735.080608    0.43636   -0.38281    0.06221    1
    3      0.826D-02      0.133D-02      -286.93013842    737.712936    0.45315   -0.52161    0.09212    2
    4      0.218D-02      0.381D-03      -286.93135653    737.193081    0.45172   -0.49460    0.08439    3
    5      0.783D-03      0.527D-04      -286.93138035    737.181859    0.45758   -0.50480    0.08832    4
    6      0.135D-03      0.177D-04      -286.93138279    737.196746    0.45643   -0.49924    0.08625    5
    7      0.510D-04      0.554D-05      -286.93138307    737.193685    0.45708   -0.50146    0.08699    6
    8      0.149D-04      0.129D-05      -286.93138308    737.192677    0.45724   -0.50110    0.08686    7
    9      0.415D-05      0.540D-06      -286.93138309    737.193134    0.45727   -0.50119    0.08689    7
   10      0.147D-05      0.142D-06      -286.93138309    737.193083    0.45727   -0.50120    0.08689    7
   11      0.510D-06      0.402D-07      -286.93138309    737.193069    0.45728   -0.50119    0.08689    7
   12      0.137D-06      0.168D-07      -286.93138309    737.193083    0.45728   -0.50120    0.08689    8
   13      0.579D-07      0.721D-08      -286.93138309    737.193078    0.45728   -0.50120    0.08689    8
   14      0.309D-07      0.346D-08      -286.93138309    737.193080    0.45728   -0.50120    0.08689    8
   15      0.189D-07      0.135D-08      -286.93138309    737.193079    0.45728   -0.50120    0.08689    8
   16      0.698D-08      0.451D-09      -286.93138309    737.193079    0.45728   -0.50120    0.08689    9
   17      0.216D-08      0.124D-09      -286.93138309    737.193079    0.45728   -0.50120    0.08689    9
   18      0.419D-09      0.379D-10      -286.93138309    737.193079    0.45728   -0.50120    0.08689    8
   19      0.184D-09      0.153D-10      -286.93138309    737.193079    0.45728   -0.50120    0.08689    9
   20      0.125D-09      0.819D-11      -286.93138309    737.193079    0.45728   -0.50120    0.08689    9
   21      0.125D-09      0.409D-11      -286.93138309    737.193079    0.45728   -0.50120    0.08689    9
   22      0.162D-09      0.123D-11      -286.93138309    737.193079    0.45728   -0.50120    0.08689    9
   23      0.938D-10      0.709D-12      -286.93138309    737.193079    0.45728   -0.50120    0.08689    9
   24      0.828D-10      0.553D-12      -286.93138309    737.193079    0.45728   -0.50120    0.08689    9
   25      0.545D-10      0.599D-12      -286.93138309    737.193079    0.45728   -0.50120    0.08689    9
   26      0.494D-10      0.521D-12      -286.93138309    737.193079    0.45728   -0.50120    0.08689    9
   27      0.283D-10      0.477D-12      -286.93138309    737.193079    0.45728   -0.50120    0.08689    9
   28      0.323D-10      0.457D-12      -286.93138309    737.193079    0.45728   -0.50120    0.08689    9
   29      0.255D-10      0.479D-12      -286.93138309    737.193079    0.45728   -0.50120    0.08689    9
   30      0.150D-10      0.439D-12      -286.93138309    737.193079    0.45728   -0.50120    0.08689    9
   31      0.113D-10      0.429D-12      -286.93138309    737.193079    0.45728   -0.50120    0.08689    9
   32      0.112D-10      0.438D-12      -286.93138309    737.193079    0.45728   -0.50120    0.08689    9
   33      0.101D-10      0.449D-12      -286.93138309    737.193079    0.45728   -0.50120    0.08689    9
   34      0.168D-10      0.422D-12      -286.93138309    737.193079    0.45728   -0.50120    0.08689    9
   35      0.176D-10      0.450D-12      -286.93138309    737.193079    0.45728   -0.50120    0.08689    9
   36      0.210D-10      0.542D-12      -286.93138309    737.193079    0.45728   -0.50120    0.08689    9
   37      0.102D-10      0.497D-12      -286.93138309    737.193079    0.45728   -0.50120    0.08689    9
   38      0.197D-10      0.553D-12      -286.93138309    737.193079    0.45728   -0.50120    0.08689    9
   39      0.842D-11      0.464D-12      -286.93138309    737.193079    0.45728   -0.50120    0.08689    9
   40      0.169D-10      0.473D-12      -286.93138309    737.193079    0.45728   -0.50120    0.08689    9
   41      0.209D-10      0.536D-12      -286.93138309    737.193079    0.45728   -0.50120    0.08689    9
   42      0.200D-10      0.511D-12      -286.93138309    737.193079    0.45728   -0.50120    0.08689    9
   43      0.222D-10      0.442D-12      -286.93138309    737.193079    0.45728   -0.50120    0.08689    9
   44      0.259D-10      0.476D-12      -286.93138309    737.193079    0.45728   -0.50120    0.08689    9
   45      0.217D-10      0.500D-12      -286.93138309    737.193079    0.45728   -0.50120    0.08689    0

 Final occupancy:  26

 !RHF STATE 1.1 Energy               -286.931383087753
 Nuclear energy                       273.70475206
 One-electron energy                 -929.23267462
 Two-electron energy                  368.59653947
 Virial quotient                       -1.00146586
 !RHF STATE 1.1 Dipole moment           0.45728034    -0.50119577     0.08688684
 Dipole moment /Debye                   1.16221457    -1.27382915     0.22082986

 Orbital energies:

         1.1          2.1          3.1          4.1          5.1          6.1          7.1          8.1          9.1         10.1
    -15.535010   -11.250632   -11.250027   -11.249683   -11.248806   -11.248668   -11.247843    -1.157505    -1.125556    -1.022058

        11.1         12.1         13.1         14.1         15.1         16.1         17.1         18.1         19.1         20.1
     -1.021955    -0.830641    -0.830544    -0.714510    -0.650462    -0.623926    -0.611648    -0.609813    -0.593585    -0.593463

        21.1         22.1         23.1         24.1         25.1         26.1         27.1         28.1
     -0.504919    -0.500106    -0.500034    -0.413442    -0.342976    -0.341987     0.063890     0.066420


 **********************************************************************************************************************************
 DATASETS  * FILE   NREC   LENGTH (MB)   RECORD NAMES
              1      19     1743.72       500      610      700      900      950      970     1000      129      960     1100   
                                          VAR    BASINP    GEOM    SYMINP    ZMAT    AOBASIS   BASIS     P2S    ABASIS      S 
                                         1400     1410     1200     1210     1080     1600     1650     1300     1700   
                                           T        V       H0       H01     AOSYM     SMH    MOLCAS    ERIS     OPER   

              2       3        1.40       700     1000     2100   
                                         GEOM     BASIS     RHF  

 PROGRAMS   *        TOTAL       RHF       INT
 CPU TIMES  *        92.47     77.68     14.75
 REAL TIME  *       104.58 SEC
 DISK USED  *         6.38 GB      
 GA USED    *         0.01 MB       (max)       0.00 MB       (current)
 **********************************************************************************************************************************


1PROGRAM * CCSD (Closed-shell coupled cluster)     Authors: C. Hampel, H.-J. Werner, 1991, M. Deegan, P.J. Knowles, 1992


 Convergence thresholds:  THRVAR = 1.00D-08  THRDEN = 1.00D-12

 CCSD(T)     terms to be evaluated (factor= 1.000)


 Number of core orbitals:           7 (   7 )
 Number of closed-shell orbitals:  19 (  19 )
 Number of external orbitals:     180 ( 180 )

 Molecular orbitals read from record     2100.2  Type=RHF/CANONICAL (state 1.1)

 Number of N-1 electron functions:              19
 Number of N-2 electron functions:             190
 Number of singly external CSFs:              3420
 Number of doubly external CSFs:           5849910
 Total number of CSFs:                     5853331

 Length of J-op  integral file:               0.00 MB
 Length of K-op  integral file:               2.96 MB
 Length of 3-ext integral record:             0.00 MB

 Memory could be reduced to 140.12 Mwords without degradation in triples

 Integral transformation finished. Total CPU:  14.00 sec, npass=  1  Memory used: 101.90 MW

 Reference energy:                   -286.93138309

 MP2 singlet pair energy:              -0.62062865
 MP2 triplet pair energy:              -0.38982524
 MP2 correlation energy:               -1.01045389
 MP2 total energy:                   -287.94183698

 SCS-MP2 correlation energy:           -0.98731231   (PS=  1.200000  PT=  0.333333)
 SCS-MP2 total energy:               -287.91869539

 ITER.      SQ.NORM     CORR.ENERGY   TOTAL ENERGY   ENERGY CHANGE        DEN1      VAR(S)    VAR(P)  DIIS     TIME
   1      1.38488126    -1.05474962  -287.98613270    -0.04429573    -0.01721713  0.36D-02  0.80D-02  1  1    51.01
   2      1.41439447    -1.06061245  -287.99199554    -0.00586283    -0.02705316  0.63D-04  0.10D-02  2  2    88.48
   3      1.42352547    -1.06070819  -287.99209127    -0.00009574    -0.00464342  0.27D-04  0.84D-04  3  3   126.01
   4      1.42746270    -1.06087693  -287.99226002    -0.00016874    -0.00121414  0.22D-05  0.11D-04  4  4   163.51
   5      1.42867622    -1.06090788  -287.99229096    -0.00003095    -0.00027319  0.27D-06  0.13D-05  5  5   201.04
   6      1.42897876    -1.06089764  -287.99228073     0.00001023    -0.00004348  0.23D-07  0.79D-07  6  6   238.57
   7      1.42901951    -1.06089927  -287.99228236    -0.00000163    -0.00000103  0.35D-08  0.82D-08  6  2   276.13
   8      1.42902869    -1.06089913  -287.99228222     0.00000014    -0.00000117  0.75D-09  0.76D-09  6  1   313.67
   9      1.42902852    -1.06089927  -287.99228235    -0.00000014     0.00000123  0.21D-09  0.92D-10  6  4   351.21
  10      1.42902971    -1.06089928  -287.99228237    -0.00000001    -0.00000018  0.57D-10  0.15D-10  6  3   388.67
  11      1.42902966    -1.06089929  -287.99228238    -0.00000002     0.00000013  0.14D-10  0.37D-11  6  5   426.19
  12      1.42902961    -1.06089930  -287.99228239    -0.00000000     0.00000003  0.15D-11  0.10D-11  6  6   463.70
  13      1.42902944    -1.06089930  -287.99228239    -0.00000000     0.00000006  0.69D-13  0.20D-12  6  2   501.20
  14      1.42902934    -1.06089930  -287.99228239    -0.00000000     0.00000002  0.81D-14  0.40D-13  6  1   538.67
  15      1.42902928    -1.06089930  -287.99228239    -0.00000000     0.00000001  0.89D-15  0.53D-14  6  3   576.11
  16      1.42902926    -1.06089930  -287.99228239    -0.00000000     0.00000000  0.12D-15  0.37D-15  6  4   613.57
  17      1.42902925    -1.06089930  -287.99228239    -0.00000000     0.00000000  0.31D-16  0.44D-16  6  5   651.04
  18      1.42902925    -1.06089930  -287.99228239    -0.00000000     0.00000000  0.81D-17  0.70D-17  6  6   688.53
  19      1.42902925    -1.06089930  -287.99228239    -0.00000000     0.00000000  0.24D-17  0.76D-18  6  2   726.00
  20      1.42902925    -1.06089930  -287.99228239    -0.00000000     0.00000000  0.76D-18  0.18D-18  6  1   763.46
  21      1.42902925    -1.06089930  -287.99228239    -0.00000000     0.00000000  0.29D-18  0.75D-19  6  3   800.93
  22      1.42902925    -1.06089930  -287.99228239    -0.00000000     0.00000000  0.11D-18  0.35D-19  6  4   838.41
  23      1.42902925    -1.06089930  -287.99228239    -0.00000000     0.00000000  0.51D-19  0.20D-19  6  6   875.88

 Norm of t1 vector:      0.08385500      S-energy:    -0.00000000      T1 diagnostic:  0.00961883
                                                                       D1 diagnostic:  0.02619941

 Doubles amplitudes (print threshold =  0.500E-01):

         I         J         SYM. A    SYM. B    A         B      T(IJ, AB)

        18        18         1         1         6         6     -0.05149803
        19        19         1         1         7         7     -0.05478784


 Total CPU time for triples:    734.56 sec


 RESULTS
 =======

  Reference energy                   -286.931383087753
  CCSD singlet pair energy             -0.711155034555
  CCSD triplet pair energy             -0.349744267462
  CCSD correlation energy              -1.060899302017

  Triples (T) contribution             -0.045601065448
  Total correlation energy             -1.106500367466

  CCSD total energy                  -287.992282389770
  CCSD[T] energy                     -288.038753671692
  CCSD-T energy                      -288.037494922484
 !CCSD(T) total energy               -288.037883455219

 Timing summary (sec):

 STEP                 CPU(USER)    SYS     CPU(TOT)    WALL
 Transformation         14.42      0.84     15.26     15.26
 CCSD iterations       861.48     12.41    873.89    874.10
 Triples               734.56     11.49    746.05    746.05

 Program statistics:

 Available memory in ccsd:               999998456
 Min. memory needed in ccsd:              14392275
 Max. memory used in ccsd:                19775697
 Max. memory used in cckext:              16737545 (23 integral passes)



 **********************************************************************************************************************************
 DATASETS  * FILE   NREC   LENGTH (MB)   RECORD NAMES
              1      20     2287.32       500      610      700      900      950      970     1000      129      960     1100   
                                          VAR    BASINP    GEOM    SYMINP    ZMAT    AOBASIS   BASIS     P2S    ABASIS      S 
                                         1400     1410     1200     1210     1080     1600     1650     1300     1700     1380   
                                           T        V       H0       H01     AOSYM     SMH    MOLCAS    ERIS     OPER     JKOP   

              2       3        1.40       700     1000     2100   
                                         GEOM     BASIS     RHF  

 PROGRAMS   *        TOTAL   CCSD(T)       RHF       INT
 CPU TIMES  *      1702.94   1610.47     77.68     14.75
 REAL TIME  *      1740.11 SEC
 DISK USED  *         6.38 GB      
 GA USED    *         0.01 MB       (max)       0.00 MB       (current)
 **********************************************************************************************************************************

        CCSD(T)         RHF-SCF 
   -288.03788346   -286.93138309
 **********************************************************************************************************************************
 Variable memory released
