
 Primary working directories    : /tmp/879303.152.gen4.q
 Secondary working directories  : /tmp/879303.152.gen4.q
 Wavefunction directory         : /home/vulcan/lo21740/wfu/
 Main file repository           : /tmp/879303.152.gen4.q/

 ARCHNAME  : Linux/x86_64
 FC        : /opt/intel/compilers_and_libraries_2016.1.150/linux/bin/intel64/ifort
 FCVERSION : 16.0.1
 BLASLIB   : -mkl
 id        : ccgc

 Nodes     nprocs
 n065         1
 ga_uses_ma=false, calling ma_init with nominal heap.
 GA-space will be limited to   8.0 MW (determined by -G option)

 Using customized tuning parameters: mindgm=10; mindgv=16; mindgc=4; mindgr=1; noblas=0; mincuda=1000; minvec=7
 default implementation of scratch files=df  

 ***,Optimization of formamide
 memory,1000,m
 gthresh,energy=1.0d-12,orbital=1.0d-10,oneint=1.0d-16,twoint=1.0d-16,optgrad=1.0d-6,compress=1.0d-13
 geomtyp=xyz
 
 bohr
 geometry = {
  C   -3.8260651029    0.0873567570   -0.0013502733
  O   -2.7321125515    2.1399633399    0.0006829816
  N   -2.6821363927   -2.1785342732    0.0007912683
  H   -3.7414065704   -3.7596901839   -0.0002722357
  H   -0.7496213551   -2.3017458725    0.0002759460
  H   -5.8993957942   -0.0187364117    0.0003372031
  C    3.8260651029   -0.0873567570    0.0013502733
  O    2.7321125515   -2.1399633399   -0.0006829816
  N    2.6821363927    2.1785342732   -0.0007912683
  H    3.7414065704    3.7596901839    0.0002722357
  H    0.7496213551    2.3017458725   -0.0002759460
  H    5.8993957942    0.0187364117   -0.0003372031
 }
 
 basis=AVDZ, H=VDZ
 {rhf;maxit,200}
 {ccsd(t);maxit,200}

 Variables initialized (661), CPU time= 0.00 sec
 Commands  initialized (458), CPU time= 0.00 sec, 486 directives.
 Default parameters read. Elapsed time= 0.05 sec

 Checking input...
 Passed
1


                                         ***  PROGRAM SYSTEM MOLPRO  ***
                         Copyright, University College Cardiff Consultants Limited, 2008

                                    Version 2010.1 linked May 16 2016 07:17:05


 **********************************************************************************************************************************
 LABEL *   Optimization of formamide                                                     
 Linux-4.4.3/n065(x86_64) 64 bit mpp version                                             DATE: 23-May-23          TIME: 13:29:52  
 **********************************************************************************************************************************

 SHA1:             9e8077add272b0f3cad6f7df79ec5211205f459d
 **********************************************************************************************************************************

 THRESHOLDS:

 ZERO    =  1.00D-12  ONEINT  =  1.00D-16  TWOINT  =  1.00D-16  PREFAC  =  1.00D-14  LOCALI  =  1.00D-09  EORDER  =  1.00D-04
 ENERGY  =  1.00D-12  ETEST   =  0.00D+00  EDENS   =  0.00D+00  THRDEDEF=  1.00D-06  GRADIENT=  1.00D-02  STEP    =  1.00D-03
 ORBITAL =  1.00D-10  CIVEC   =  1.00D-05  COEFF   =  1.00D-04  PRINTCI =  5.00D-02  PUNCHCI =  9.90D+01  OPTGRAD =  1.00D-06
 OPTENERG=  1.00D-06  OPTSTEP =  3.00D-04  THRGRAD =  1.00D-10  COMPRESS=  1.00D-13  VARMIN  =  1.00D-07  VARMAX  =  1.00D-03
 THRDOUB =  0.00D+00  THRDIV  =  1.00D-05  THRRED  =  1.00D-07  THRPSP  =  1.00D+00  THRDC   =  1.00D-10  THRCS   =  1.00D-10
 THRNRM  =  1.00D-08  THREQ   =  0.00D+00  THRDE   =  1.00D+00  THRREF  =  1.00D-05  SPARFAC =  1.00D+00  THRDLP  =  1.00D-07
 THRDIA  =  1.00D-10  THRDLS  =  1.00D-07  THRGPS  =  0.00D+00  THRKEX  =  0.00D+00  THRDIS  =  2.00D-01  THRVAR  =  1.00D-10
 THRLOC  =  1.00D-06  THRGAP  =  1.00D-06  THRLOCT = -1.00D+00  THRGAPT = -1.00D+00  THRORB  =  1.00D-06  THRMLTP =  0.00D+00
 THRCPQCI=  1.00D-10  KEXTA   =  0.00D+00  THRCOARS=  0.00D+00  SYMTOL  =  1.00D-06  GRADTOL =  1.00D-06  THROVL  =  1.00D-08
 THRORTH =  1.00D-08  GRID    =  1.00D-06  GRIDMAX =  1.00D-03  DTMAX   =  0.00D+00

 SETTING GEOMTYP        =    XYZ
 ZUNIT=BOHR
 

 Variable memory set to 1000000000 words,  buffer space   230000 words

 SETTING BASIS          =    AVDZ,H=VDZ


 Recomputing integrals since basis changed


 Using spherical harmonics

 Library entry C      S aug-cc-pVDZ          selected for orbital group  1
 Library entry C      P aug-cc-pVDZ          selected for orbital group  1
 Library entry C      D aug-cc-pVDZ          selected for orbital group  1
 Library entry O      S aug-cc-pVDZ          selected for orbital group  2
 Library entry O      P aug-cc-pVDZ          selected for orbital group  2
 Library entry O      D aug-cc-pVDZ          selected for orbital group  2
 Library entry N      S aug-cc-pVDZ          selected for orbital group  3
 Library entry N      P aug-cc-pVDZ          selected for orbital group  3
 Library entry N      D aug-cc-pVDZ          selected for orbital group  3
 Library entry H      S cc-pVDZ              selected for orbital group  4
 Library entry H      P cc-pVDZ              selected for orbital group  4

1PROGRAM * SEWARD (Integral evaluation for generally contracted gaussian basis sets)     Author: Roland Lindh, 1990

 Geometry written to block  1 of record 700


 Point group  Ci  



 ATOMIC COORDINATES

 NR  ATOM    CHARGE       X              Y              Z

   1  C       6.00   -3.826065103    0.087356757   -0.001350273
   2  C       6.00    3.826065103   -0.087356757    0.001350273
   3  O       8.00   -2.732112552    2.139963340    0.000682982
   4  O       8.00    2.732112552   -2.139963340   -0.000682982
   5  N       7.00   -2.682136393   -2.178534273    0.000791268
   6  N       7.00    2.682136393    2.178534273   -0.000791268
   7  H       1.00   -3.741406570   -3.759690184   -0.000272236
   8  H       1.00    3.741406570    3.759690184    0.000272236
   9  H       1.00   -0.749621355   -2.301745873    0.000275946
  10  H       1.00    0.749621355    2.301745873   -0.000275946
  11  H       1.00   -5.899395794   -0.018736412    0.000337203
  12  H       1.00    5.899395794    0.018736412   -0.000337203

 Bond lengths in Bohr (Angstrom)

  1- 3  2.325925644   1- 5  2.538274934   1-11  2.076044018   2- 4  2.325925644   2- 6  2.538274934
       ( 1.230826841)       ( 1.343197245)       ( 1.098595179)       ( 1.230826841)       ( 1.343197245)

  2-12  2.076044018   5- 7  1.903183768   5- 9  1.936438931   6- 8  1.903183768   6-10  1.936438931
       ( 1.098595179)       ( 1.007121475)       ( 1.024719349)       ( 1.007121475)       ( 1.024719349)

 Bond angles

  1- 5- 7  119.39367665   1- 5- 9  120.43484698   2- 6- 8  119.39367665   2- 6-10  120.43484698

  3- 1- 5  125.15739001   3- 1-11  120.98495102   4- 2- 6  125.15739001   4- 2-12  120.98495102

  5- 1-11  113.85744515   6- 2-12  113.85744515   7- 5- 9  120.17138451   8- 6-10  120.17138451

 NUCLEAR CHARGE:                   48
 NUMBER OF PRIMITIVE AOS:         264
 NUMBER OF SYMMETRY AOS:          252
 NUMBER OF CONTRACTIONS:          168   (  84Ag  +  84Au  )
 NUMBER OF CORE ORBITALS:           6   (   3Ag  +   3Au  )
 NUMBER OF VALENCE ORBITALS:       30   (  15Ag  +  15Au  )


 NUCLEAR REPULSION ENERGY  230.48220514


 Eigenvalues of metric

         1 0.626E-03 0.114E-02 0.161E-02 0.366E-02 0.514E-02 0.795E-02 0.797E-02 0.902E-02
         2 0.417E-03 0.135E-02 0.168E-02 0.437E-02 0.525E-02 0.719E-02 0.810E-02 0.108E-01


 Contracted 2-electron integrals neglected if value below      1.0D-16
 AO integral compression algorithm  1   Integral accuracy      1.0D-16

     484.442 MB (compressed) written to integral file ( 93.4%)

     Node minimum: 484.442 MB, node maximum: 484.442 MB


 NUMBER OF SORTED TWO-ELECTRON INTEGRALS:   50983170.     BUFFER LENGTH:  32768
 NUMBER OF SEGMENTS:   4  SEGMENT LENGTH:   15993600      RECORD LENGTH: 524288

 Memory used in sort:      16.55 MW

 SORT1 READ    64801056. AND WROTE    50982590. INTEGRALS IN    147 RECORDS. CPU TIME:     0.74 SEC, REAL TIME:     1.07 SEC
 SORT2 READ    50982590. AND WROTE    50983170. INTEGRALS IN   1848 RECORDS. CPU TIME:     0.52 SEC, REAL TIME:     0.74 SEC

 FILE SIZES:   FILE 1:   392.9 MBYTE,  FILE 4:   616.6 MBYTE,   TOTAL:   1009.5 MBYTE

 OPERATOR DM      FOR CENTER  0  COORDINATES:    0.000000    0.000000    0.000000


 **********************************************************************************************************************************
 DATASETS  * FILE   NREC   LENGTH (MB)   RECORD NAMES
              1      19      393.03       500      610      700      900      950      970     1000      129      960     1100   
                                          VAR    BASINP    GEOM    SYMINP    ZMAT    AOBASIS   BASIS     P2S    ABASIS      S 
                                         1400     1410     1200     1210     1080     1600     1650     1300     1700   
                                           T        V       H0       H01     AOSYM     SMH    MOLCAS    ERIS     OPER   

 PROGRAMS   *        TOTAL       INT
 CPU TIMES  *         4.52      4.48
 REAL TIME  *         5.49 SEC
 DISK USED  *         1.49 GB      
 GA USED    *         0.00 MB       (max)       0.00 MB       (current)
 **********************************************************************************************************************************

1PROGRAM * RHF-SCF (CLOSED SHELL)       Authors: W. Meyer, H.-J. Werner


 NUMBER OF ELECTRONS:      24+   24-
 CONVERGENCE THRESHOLDS:    1.00E-10 (Density)    1.00E-13 (Energy)
 MAX. NUMBER OF ITERATIONS:      200
 INTERPOLATION TYPE:            DIIS
 INTERPOLATION STEPS:              2 (START)      1 (STEP)
 LEVEL SHIFTS:                  0.00 (CLOSED)  0.00 (OPEN) 



 Orbital guess generated from atomic densities. Full valence occupancy:   18  18

 Molecular orbital dump at record        2100.2

 Initial alpha occupancy:  12  12
 Initial beta  occupancy:  12  12
 Wave function symmetry:    1

 ITERATION    DDIFF          GRAD             ENERGY        2-EL.EN.            DIPOLE MOMENTS         DIIS
    1      0.000D+00      0.000D+00      -337.80401052    704.632602    0.00000    0.00000    0.00000    0
    2      0.000D+00      0.906D-02      -337.88144207    699.035808    0.00000    0.00000    0.00000    1
    3      0.173D-01      0.660D-02      -337.93908611    701.769402    0.00000    0.00000    0.00000    2
    4      0.685D-02      0.873D-03      -337.94130060    701.674227    0.00000    0.00000    0.00000    3
    5      0.151D-02      0.300D-03      -337.94156815    701.607530    0.00000    0.00000    0.00000    4
    6      0.542D-03      0.986D-04      -337.94162936    701.633378    0.00000    0.00000    0.00000    5
    7      0.234D-03      0.437D-04      -337.94164033    701.624500    0.00000    0.00000    0.00000    6
    8      0.116D-03      0.129D-04      -337.94164126    701.630017    0.00000    0.00000    0.00000    7
    9      0.358D-04      0.390D-05      -337.94164133    701.627550    0.00000    0.00000    0.00000    8
   10      0.956D-05      0.136D-05      -337.94164134    701.628095    0.00000    0.00000    0.00000    7
   11      0.397D-05      0.325D-06      -337.94164134    701.628023    0.00000    0.00000    0.00000    8
   12      0.919D-06      0.484D-07      -337.94164134    701.628029    0.00000    0.00000    0.00000    7
   13      0.141D-06      0.115D-07      -337.94164134    701.628030    0.00000    0.00000    0.00000    7
   14      0.356D-07      0.211D-08      -337.94164134    701.628030    0.00000    0.00000    0.00000    6
   15      0.505D-08      0.950D-09      -337.94164134    701.628030    0.00000    0.00000    0.00000    6
   16      0.192D-08      0.314D-09      -337.94164134    701.628030    0.00000    0.00000    0.00000    7
   17      0.595D-09      0.719D-10      -337.94164134    701.628030    0.00000    0.00000    0.00000    7
   18      0.168D-09      0.230D-10      -337.94164134    701.628030    0.00000    0.00000    0.00000    7
   19      0.603D-10      0.796D-11      -337.94164134    701.628030    0.00000    0.00000    0.00000    7
   20      0.201D-10      0.289D-11      -337.94164134    701.628030    0.00000    0.00000    0.00000    7
   21      0.784D-11      0.727D-12      -337.94164134    701.628030    0.00000    0.00000    0.00000    8
   22      0.247D-11      0.261D-12      -337.94164134    701.628030    0.00000    0.00000    0.00000    8
   23      0.141D-11      0.138D-12      -337.94164134    701.628030    0.00000    0.00000    0.00000    8
   24      0.103D-11      0.774D-13      -337.94164134    701.628030    0.00000    0.00000    0.00000    8
   25      0.788D-12      0.536D-13      -337.94164134    701.628030    0.00000    0.00000    0.00000    9
   26      0.581D-12      0.555D-13      -337.94164134    701.628030    0.00000    0.00000    0.00000    9
   27      0.386D-12      0.420D-13      -337.94164134    701.628030    0.00000    0.00000    0.00000    9
   28      0.237D-12      0.489D-13      -337.94164134    701.628030    0.00000    0.00000    0.00000    9
   29      0.159D-12      0.422D-13      -337.94164134    701.628030    0.00000    0.00000    0.00000    9
   30      0.181D-12      0.498D-13      -337.94164134    701.628030    0.00000    0.00000    0.00000    9
   31      0.190D-12      0.522D-13      -337.94164134    701.628030    0.00000    0.00000    0.00000    9
   32      0.132D-12      0.432D-13      -337.94164134    701.628030    0.00000    0.00000    0.00000    9
   33      0.133D-12      0.422D-13      -337.94164134    701.628030    0.00000    0.00000    0.00000    0

 Final occupancy:  12  12

 !RHF STATE 1.1 Energy               -337.941641339467
 Nuclear energy                       230.48220514
 One-electron energy                 -919.23786155
 Two-electron energy                  350.81401507
 Virial quotient                       -1.00177714
 !RHF STATE 1.1 Dipole moment           0.00000000     0.00000000     0.00000000
 Dipole moment /Debye                   0.00000000     0.00000000     0.00000000

 Orbital energies:

         1.1          2.1          3.1          4.1          5.1          6.1          7.1          8.1          9.1         10.1
    -20.540838   -15.589653   -11.368108    -1.389597    -1.211979    -0.860851    -0.749359    -0.644902    -0.619246    -0.565816

        11.1         12.1         13.1         14.1
     -0.454409    -0.420356     0.068802     0.093380

         1.2          2.2          3.2          4.2          5.2          6.2          7.2          8.2          9.2         10.2
    -20.540839   -15.589652   -11.368109    -1.384895    -1.218131    -0.835649    -0.740398    -0.705746    -0.593665    -0.573850

        11.2         12.2         13.2         14.2
     -0.429049    -0.409817     0.067995     0.083206


 **********************************************************************************************************************************
 DATASETS  * FILE   NREC   LENGTH (MB)   RECORD NAMES
              1      19      393.03       500      610      700      900      950      970     1000      129      960     1100   
                                          VAR    BASINP    GEOM    SYMINP    ZMAT    AOBASIS   BASIS     P2S    ABASIS      S 
                                         1400     1410     1200     1210     1080     1600     1650     1300     1700   
                                           T        V       H0       H01     AOSYM     SMH    MOLCAS    ERIS     OPER   

              2       3        0.76       700     1000     2100   
                                         GEOM     BASIS     RHF  

 PROGRAMS   *        TOTAL       RHF       INT
 CPU TIMES  *        13.51      8.99      4.48
 REAL TIME  *        15.87 SEC
 DISK USED  *         1.49 GB      
 GA USED    *         0.00 MB       (max)       0.00 MB       (current)
 **********************************************************************************************************************************


1PROGRAM * CCSD (Closed-shell coupled cluster)     Authors: C. Hampel, H.-J. Werner, 1991, M. Deegan, P.J. Knowles, 1992


 Convergence thresholds:  THRVAR = 1.00D-08  THRDEN = 1.00D-12

 CCSD(T)     terms to be evaluated (factor= 1.000)


 Number of core orbitals:           6 (   3   3 )
 Number of closed-shell orbitals:  18 (   9   9 )
 Number of external orbitals:     144 (  72  72 )

 Molecular orbitals read from record     2100.2  Type=RHF/CANONICAL (state 1.1)

 Number of N-1 electron functions:              18
 Number of N-2 electron functions:             171
 Number of singly external CSFs:              1296
 Number of doubly external CSFs:           1680912
 Total number of CSFs:                     1682209

 Length of J-op  integral file:               0.00 MB
 Length of K-op  integral file:               1.01 MB
 Length of 3-ext integral record:             0.00 MB

 Memory could be reduced to 35.12 Mwords without degradation in triples

 Integral transformation finished. Total CPU:   2.41 sec, npass=  1  Memory used:  19.69 MW

 Reference energy:                   -337.94164134

 MP2 singlet pair energy:              -0.61960879
 MP2 triplet pair energy:              -0.40483684
 MP2 correlation energy:               -1.02444563
 MP2 total energy:                   -338.96608697

 SCS-MP2 correlation energy:           -0.99542903   (PS=  1.200000  PT=  0.333333)
 SCS-MP2 total energy:               -338.93707037

 ITER.      SQ.NORM     CORR.ENERGY   TOTAL ENERGY   ENERGY CHANGE        DEN1      VAR(S)    VAR(P)  DIIS     TIME
   1      1.31873212    -1.05314818  -338.99478952    -0.02870255     0.00239487  0.10D-01  0.60D-02  1  1     6.05
   2      1.34417276    -1.05510309  -338.99674443    -0.00195491    -0.02586034  0.22D-03  0.11D-02  2  2     9.90
   3      1.35674371    -1.05599674  -338.99763808    -0.00089364    -0.00554643  0.22D-03  0.51D-04  3  3    13.76
   4      1.36193317    -1.05573416  -338.99737550     0.00026257    -0.00168429  0.21D-04  0.92D-05  4  4    17.64
   5      1.36405039    -1.05567809  -338.99731943     0.00005607    -0.00044141  0.26D-05  0.11D-05  5  5    21.52
   6      1.36455775    -1.05564882  -338.99729016     0.00002928    -0.00004747  0.24D-06  0.17D-06  6  6    25.38
   7      1.36468520    -1.05563692  -338.99727826     0.00001189    -0.00000768  0.32D-07  0.22D-07  6  2    29.26
   8      1.36470938    -1.05563679  -338.99727813     0.00000014    -0.00000003  0.57D-08  0.27D-08  6  1    33.13
   9      1.36471175    -1.05563650  -338.99727784     0.00000029     0.00000184  0.94D-09  0.46D-09  6  4    37.00
  10      1.36471587    -1.05563644  -338.99727778     0.00000006    -0.00000045  0.26D-09  0.47D-10  6  3    40.88
  11      1.36471610    -1.05563652  -338.99727786    -0.00000008     0.00000016  0.38D-10  0.11D-10  6  5    44.76
  12      1.36471591    -1.05563654  -338.99727788    -0.00000002     0.00000008  0.54D-11  0.26D-11  6  6    48.65
  13      1.36471561    -1.05563658  -338.99727792    -0.00000004     0.00000013  0.80D-12  0.36D-12  6  2    52.52
  14      1.36471545    -1.05563659  -338.99727793    -0.00000001     0.00000004  0.12D-12  0.71D-13  6  1    56.40
  15      1.36471539    -1.05563659  -338.99727793    -0.00000000     0.00000001  0.25D-13  0.14D-13  6  4    60.28
  16      1.36471535    -1.05563660  -338.99727794    -0.00000000     0.00000000  0.46D-14  0.24D-14  6  3    64.17
  17      1.36471534    -1.05563660  -338.99727794    -0.00000000    -0.00000000  0.13D-14  0.40D-15  6  5    68.04
  18      1.36471534    -1.05563660  -338.99727794    -0.00000000     0.00000000  0.20D-15  0.11D-15  6  6    71.92
  19      1.36471534    -1.05563660  -338.99727794    -0.00000000     0.00000000  0.55D-16  0.20D-16  6  2    75.80
  20      1.36471534    -1.05563660  -338.99727794    -0.00000000     0.00000000  0.12D-16  0.37D-17  6  1    79.67
  21      1.36471534    -1.05563660  -338.99727794    -0.00000000     0.00000000  0.28D-17  0.11D-17  6  4    83.55
  22      1.36471534    -1.05563660  -338.99727794     0.00000000    -0.00000000  0.78D-18  0.32D-18  6  3    87.43
  23      1.36471534    -1.05563660  -338.99727794     0.00000000    -0.00000000  0.22D-18  0.59D-19  6  5    91.30
  24      1.36471534    -1.05563660  -338.99727794     0.00000000    -0.00000000  0.61D-19  0.21D-19  6  1    95.18
  25      1.36471534    -1.05563660  -338.99727794     0.00000000    -0.00000000  0.11D-19  0.27D-20  6  6    99.06
  26      1.36471534    -1.05563660  -338.99727794    -0.00000000     0.00000000  0.22D-20  0.82D-21  6  2   102.93
  27      1.36471534    -1.05563660  -338.99727794    -0.00000000     0.00000000  0.45D-21  0.16D-21  6  3   106.81

 Norm of t1 vector:      0.14790437      S-energy:    -0.00000000      T1 diagnostic:  0.01743070
                                                                       D1 diagnostic:  0.05898117


 Total CPU time for triples:    100.78 sec


 RESULTS
 =======

  Reference energy                   -337.941641339467
  CCSD singlet pair energy             -0.696750648644
  CCSD triplet pair energy             -0.358885948453
  CCSD correlation energy              -1.055636597098

  Triples (T) contribution             -0.039273599341
  Total correlation energy             -1.094910196439

  CCSD total energy                  -338.997277936565
  CCSD[T] energy                     -339.039741403233
  CCSD-T energy                      -339.035456450853
 !CCSD(T) total energy               -339.036551535906

 Timing summary (sec):

 STEP                 CPU(USER)    SYS     CPU(TOT)    WALL
 Transformation          2.45      0.23      2.68      2.69
 CCSD iterations       104.36      3.42    107.78    107.90
 Triples               100.78      2.52    103.30    103.29

 Program statistics:

 Available memory in ccsd:               999998604
 Min. memory needed in ccsd:               4264540
 Max. memory used in ccsd:                 5806348
 Max. memory used in cckext:               5610853 (27 integral passes)



 **********************************************************************************************************************************
 DATASETS  * FILE   NREC   LENGTH (MB)   RECORD NAMES
              1      20      531.55       500      610      700      900      950      970     1000      129      960     1100   
                                          VAR    BASINP    GEOM    SYMINP    ZMAT    AOBASIS   BASIS     P2S    ABASIS      S 
                                         1400     1410     1200     1210     1080     1600     1650     1300     1700     1380   
                                           T        V       H0       H01     AOSYM     SMH    MOLCAS    ERIS     OPER     JKOP   

              2       3        0.76       700     1000     2100   
                                         GEOM     BASIS     RHF  

 PROGRAMS   *        TOTAL   CCSD(T)       RHF       INT
 CPU TIMES  *       221.11    207.60      8.99      4.48
 REAL TIME  *       229.81 SEC
 DISK USED  *         1.49 GB      
 GA USED    *         0.00 MB       (max)       0.00 MB       (current)
 **********************************************************************************************************************************

        CCSD(T)         RHF-SCF 
   -339.03655154   -337.94164134
 **********************************************************************************************************************************
 Variable memory released
