
 Primary working directories    : /tmp/1049502.334.gen6.q
 Secondary working directories  : /tmp/1049502.334.gen6.q
 Wavefunction directory         : /home/vulcan/jj04645/wfu/
 Main file repository           : /tmp/1049502.334.gen6.q/

 ARCHNAME  : Linux/x86_64
 FC        : /opt/intel/compilers_and_libraries_2016.1.150/linux/bin/intel64/ifort
 FCVERSION : 16.0.1
 BLASLIB   : -mkl
 id        : ccgc

 Nodes     nprocs
 n086         1
 ga_uses_ma=false, calling ma_init with nominal heap.
 GA-space will be limited to   8.0 MW (determined by -G option)

 Using customized tuning parameters: mindgm=10; mindgv=16; mindgc=4; mindgr=1; noblas=0; mincuda=1000; minvec=7
 default implementation of scratch files=df  

 ***,Optimization of neopentane
 memory,1000,m
 gthresh,energy=1.0d-12,orbital=1.0d-10,oneint=1.0d-16,twoint=1.0d-16,optgrad=1.0d-6,compress=1.0d-13
 geomtyp=xyz
 
 bohr
 geometry = {
  C    0.0000000000   -0.0000000000    0.0027169424
  C    2.3695243499   -0.0000000000   -1.6727897936
  C    0.0000000000   -2.3613593841    1.6724501758
  C    0.0000000000    2.3613593841    1.6724501758
  C   -2.3695243499    0.0000000000   -1.6727897936
  H    2.4100754531    1.6699947392   -2.8904240813
  H   -1.6699947392   -2.4019104873    2.8900844635
  H    1.6699947392    2.4019104873    2.8900844635
  H   -2.4100754531   -1.6699947392   -2.8904240813
  H    4.0857983926   -0.0028642973   -0.5205939397
  H    0.0028642973   -4.0776334268    0.5202543219
  H   -0.0028642973    4.0776334268    0.5202543219
  H   -4.0857983926    0.0028642973   -0.5205939397
  H    2.4115057804   -1.6714323899   -2.8884013287
  H    1.6714323899   -2.4033408146    2.8880617109
  H   -1.6714323899    2.4033408146    2.8880617109
  H   -2.4115057804    1.6714323899   -2.8884013287
 }
 
 basis=VDZ
 {rhf;maxit,200}
 {ccsd(t);maxit,200}

 Variables initialized (661), CPU time= 0.00 sec
 Commands  initialized (458), CPU time= 0.01 sec, 486 directives.
 Default parameters read. Elapsed time= 0.04 sec

 Checking input...
 Passed
1


                                         ***  PROGRAM SYSTEM MOLPRO  ***
                         Copyright, University College Cardiff Consultants Limited, 2008

                                    Version 2010.1 linked May 16 2016 07:17:05


 **********************************************************************************************************************************
 LABEL *   Optimization of neopentane                                                    
 Linux-4.4.3/n086(x86_64) 64 bit mpp version                                             DATE: 30-Mar-24          TIME: 19:51:22  
 **********************************************************************************************************************************

 SHA1:             9e8077add272b0f3cad6f7df79ec5211205f459d
 **********************************************************************************************************************************

 THRESHOLDS:

 ZERO    =  1.00D-12  ONEINT  =  1.00D-16  TWOINT  =  1.00D-16  PREFAC  =  1.00D-14  LOCALI  =  1.00D-09  EORDER  =  1.00D-04
 ENERGY  =  1.00D-12  ETEST   =  0.00D+00  EDENS   =  0.00D+00  THRDEDEF=  1.00D-06  GRADIENT=  1.00D-02  STEP    =  1.00D-03
 ORBITAL =  1.00D-10  CIVEC   =  1.00D-05  COEFF   =  1.00D-04  PRINTCI =  5.00D-02  PUNCHCI =  9.90D+01  OPTGRAD =  1.00D-06
 OPTENERG=  1.00D-06  OPTSTEP =  3.00D-04  THRGRAD =  1.00D-10  COMPRESS=  1.00D-13  VARMIN  =  1.00D-07  VARMAX  =  1.00D-03
 THRDOUB =  0.00D+00  THRDIV  =  1.00D-05  THRRED  =  1.00D-07  THRPSP  =  1.00D+00  THRDC   =  1.00D-10  THRCS   =  1.00D-10
 THRNRM  =  1.00D-08  THREQ   =  0.00D+00  THRDE   =  1.00D+00  THRREF  =  1.00D-05  SPARFAC =  1.00D+00  THRDLP  =  1.00D-07
 THRDIA  =  1.00D-10  THRDLS  =  1.00D-07  THRGPS  =  0.00D+00  THRKEX  =  0.00D+00  THRDIS  =  2.00D-01  THRVAR  =  1.00D-10
 THRLOC  =  1.00D-06  THRGAP  =  1.00D-06  THRLOCT = -1.00D+00  THRGAPT = -1.00D+00  THRORB  =  1.00D-06  THRMLTP =  0.00D+00
 THRCPQCI=  1.00D-10  KEXTA   =  0.00D+00  THRCOARS=  0.00D+00  SYMTOL  =  1.00D-06  GRADTOL =  1.00D-06  THROVL  =  1.00D-08
 THRORTH =  1.00D-08  GRID    =  1.00D-06  GRIDMAX =  1.00D-03  DTMAX   =  0.00D+00

 SETTING GEOMTYP        =    XYZ
 ZUNIT=BOHR
 

 Variable memory set to 1000000000 words,  buffer space   230000 words

 SETTING BASIS          =    VDZ


 Recomputing integrals since basis changed


 Using spherical harmonics

 Library entry C      S cc-pVDZ              selected for orbital group  1
 Library entry C      P cc-pVDZ              selected for orbital group  1
 Library entry C      D cc-pVDZ              selected for orbital group  1
 Library entry H      S cc-pVDZ              selected for orbital group  2
 Library entry H      P cc-pVDZ              selected for orbital group  2

1PROGRAM * SEWARD (Integral evaluation for generally contracted gaussian basis sets)     Author: Roland Lindh, 1990

 Geometry written to block  1 of record 700


 Point group  C2  



 ATOMIC COORDINATES

 NR  ATOM    CHARGE       X              Y              Z

   1  C       6.00    0.000000000    0.000000000    0.002716942
   2  C       6.00    2.369524350    0.000000000   -1.672789794
   3  C       6.00   -2.369524350    0.000000000   -1.672789794
   4  C       6.00    0.000000000   -2.361359384    1.672450176
   5  C       6.00    0.000000000    2.361359384    1.672450176
   6  H       1.00    2.410075453    1.669994739   -2.890424081
   7  H       1.00   -2.410075453   -1.669994739   -2.890424081
   8  H       1.00   -1.669994739   -2.401910487    2.890084464
   9  H       1.00    1.669994739    2.401910487    2.890084464
  10  H       1.00    4.085798393   -0.002864297   -0.520593940
  11  H       1.00   -4.085798393    0.002864297   -0.520593940
  12  H       1.00    0.002864297   -4.077633427    0.520254322
  13  H       1.00   -0.002864297    4.077633427    0.520254322
  14  H       1.00    2.411505780   -1.671432390   -2.888401329
  15  H       1.00   -2.411505780    1.671432390   -2.888401329
  16  H       1.00    1.671432390   -2.403340815    2.888061711
  17  H       1.00   -1.671432390    2.403340815    2.888061711

 Bond lengths in Bohr (Angstrom)

 1-2  2.902062795  1-3  2.902062795  1-4  2.892062795  1-5  2.892062795  2-6  2.067162325
     ( 1.535705490)     ( 1.535705490)     ( 1.530413718)     ( 1.530413718)     ( 1.093895190)

  2-10  2.067162325   2-14  2.067162325   3- 7  2.067162325   3-11  2.067162325   3-15  2.067162325
       ( 1.093895190)       ( 1.093895190)       ( 1.093895190)       ( 1.093895190)       ( 1.093895190)

  4- 8  2.067162325   4-12  2.067162325   4-16  2.067162325   5- 9  2.067162325   5-13  2.067162325
       ( 1.093895190)       ( 1.093895190)       ( 1.093895190)       ( 1.093895190)       ( 1.093895190)

  5-17  2.067162325
       ( 1.093895190)

 Bond angles

  1- 2- 6  110.86072216   1- 2-10  110.86072158   1- 2-14  110.86072278   1- 3- 7  110.86072216

  1- 3-11  110.86072158   1- 3-15  110.86072278   1- 4- 8  110.86072216   1- 4-12  110.86072158

  1- 4-16  110.86072278   1- 5- 9  110.86072216   1- 5-13  110.86072158   1- 5-17  110.86072278

  2-1-3  109.47122063   2-1-4  109.47122064   2-1-5  109.47122064   3-1-4  109.47122064

  3- 1- 5  109.47122064   4- 1- 5  109.47122063   6- 2-10  108.24916217   6- 2-14  107.84402211

  7- 3-11  108.24916217   7- 3-15  107.84402211   8- 4-12  108.24916217   8- 4-16  107.84402211

  9- 5-13  108.24916217   9- 5-17  107.84402211  10- 2-14  108.04659217  11- 3-15  108.04659217

 12- 4-16  108.04659217  13- 5-17  108.04659217

 NUCLEAR CHARGE:                   42
 NUMBER OF PRIMITIVE AOS:         219
 NUMBER OF SYMMETRY AOS:          214
 NUMBER OF CONTRACTIONS:          130   (  66A   +  64B   )
 NUMBER OF CORE ORBITALS:           5   (   3A   +   2B   )
 NUMBER OF VALENCE ORBITALS:       32   (  16A   +  16B   )


 NUCLEAR REPULSION ENERGY  198.59928012


 Eigenvalues of metric

         1 0.280E-02 0.503E-02 0.171E-01 0.189E-01 0.237E-01 0.319E-01 0.337E-01 0.338E-01
         2 0.502E-02 0.506E-02 0.189E-01 0.189E-01 0.236E-01 0.237E-01 0.319E-01 0.320E-01


 Contracted 2-electron integrals neglected if value below      1.0D-16
 AO integral compression algorithm  1   Integral accuracy      1.0D-16

     158.597 MB (compressed) written to integral file ( 93.9%)

     Node minimum: 158.597 MB, node maximum: 158.597 MB


 NUMBER OF SORTED TWO-ELECTRON INTEGRALS:   18406246.     BUFFER LENGTH:  32768
 NUMBER OF SEGMENTS:   2  SEGMENT LENGTH:   15998467      RECORD LENGTH: 524288

 Memory used in sort:      16.56 MW

 SORT1 READ    21105840. AND WROTE    17600206. INTEGRALS IN     51 RECORDS. CPU TIME:     0.23 SEC, REAL TIME:     0.33 SEC
 SORT2 READ    17600206. AND WROTE    18406246. INTEGRALS IN    605 RECORDS. CPU TIME:     0.21 SEC, REAL TIME:     0.29 SEC

 FILE SIZES:   FILE 1:   144.6 MBYTE,  FILE 4:   213.9 MBYTE,   TOTAL:    358.5 MBYTE

 OPERATOR DM      FOR CENTER  0  COORDINATES:    0.000000    0.000000    0.000000


 **********************************************************************************************************************************
 DATASETS  * FILE   NREC   LENGTH (MB)   RECORD NAMES
              1      19      144.71       500      610      700      900      950      970     1000      129      960     1100   
                                          VAR    BASINP    GEOM    SYMINP    ZMAT    AOBASIS   BASIS     P2S    ABASIS      S 
                                         1400     1410     1200     1210     1080     1600     1650     1300     1700   
                                           T        V       H0       H01     AOSYM     SMH    MOLCAS    ERIS     OPER   

 PROGRAMS   *        TOTAL       INT
 CPU TIMES  *         2.65      2.61
 REAL TIME  *         3.13 SEC
 DISK USED  *       518.18 MB      
 GA USED    *         0.00 MB       (max)       0.00 MB       (current)
 **********************************************************************************************************************************

1PROGRAM * RHF-SCF (CLOSED SHELL)       Authors: W. Meyer, H.-J. Werner


 NUMBER OF ELECTRONS:      21+   21-
 CONVERGENCE THRESHOLDS:    1.00E-10 (Density)    1.00E-13 (Energy)
 MAX. NUMBER OF ITERATIONS:      200
 INTERPOLATION TYPE:            DIIS
 INTERPOLATION STEPS:              2 (START)      1 (STEP)
 LEVEL SHIFTS:                  0.00 (CLOSED)  0.00 (OPEN) 



 Orbital guess generated from atomic densities. Full valence occupancy:   19  18

 Molecular orbital dump at record        2100.2

 Initial alpha occupancy:  11  10
 Initial beta  occupancy:  11  10
 Wave function symmetry:    1

 ITERATION    DDIFF          GRAD             ENERGY        2-EL.EN.            DIPOLE MOMENTS         DIIS
    1      0.000D+00      0.000D+00      -196.27088378    527.677551    0.00000    0.00000    0.00150    0
    2      0.000D+00      0.657D-02      -196.33874265    521.943924    0.00000    0.00000    0.00048    1
    3      0.131D-01      0.249D-02      -196.34653331    524.514108    0.00000    0.00000    0.00001    2
    4      0.488D-02      0.804D-03      -196.34768010    523.812772    0.00000    0.00000    0.00025    3
    5      0.161D-02      0.166D-03      -196.34771469    523.879279    0.00000    0.00000    0.00019    4
    6      0.279D-03      0.335D-04      -196.34771636    523.875522    0.00000    0.00000    0.00022    5
    7      0.930D-04      0.319D-05      -196.34771639    523.875288    0.00000    0.00000    0.00022    6
    8      0.965D-05      0.689D-06      -196.34771639    523.875247    0.00000    0.00000    0.00022    6
    9      0.194D-05      0.103D-06      -196.34771639    523.875239    0.00000    0.00000    0.00022    5
   10      0.343D-06      0.222D-07      -196.34771639    523.875246    0.00000    0.00000    0.00022    5
   11      0.554D-07      0.706D-08      -196.34771639    523.875244    0.00000    0.00000    0.00022    6
   12      0.150D-07      0.738D-09      -196.34771639    523.875244    0.00000    0.00000    0.00022    6
   13      0.194D-08      0.198D-09      -196.34771639    523.875244    0.00000    0.00000    0.00022    6
   14      0.466D-09      0.366D-10      -196.34771639    523.875244    0.00000    0.00000    0.00022    6
   15      0.960D-10      0.720D-11      -196.34771639    523.875244    0.00000    0.00000    0.00022    6
   16      0.196D-10      0.263D-11      -196.34771639    523.875244    0.00000    0.00000    0.00022    6
   17      0.495D-11      0.798D-12      -196.34771639    523.875244    0.00000    0.00000    0.00022    6
   18      0.239D-11      0.182D-12      -196.34771639    523.875244    0.00000    0.00000    0.00022    0

 Final occupancy:  11  10

 !RHF STATE 1.1 Energy               -196.347716387940
 Nuclear energy                       198.59928012
 One-electron energy                 -656.88461861
 Two-electron energy                  261.93762210
 Virial quotient                       -1.00118100
 !RHF STATE 1.1 Dipole moment           0.00000000     0.00000000     0.00022041
 Dipole moment /Debye                   0.00000000     0.00000000     0.00056019

 Orbital energies:

         1.1          2.1          3.1          4.1          5.1          6.1          7.1          8.1          9.1         10.1
    -11.230714   -11.214253   -11.213905    -1.103755    -0.927644    -0.728612    -0.609172    -0.551001    -0.549969    -0.507361

        11.1         12.1         13.1
     -0.450533     0.170676     0.231085

         1.2          2.2          3.2          4.2          5.2          6.2          7.2          8.2          9.2         10.2
    -11.214275   -11.213931    -0.927699    -0.927340    -0.609236    -0.608824    -0.508249    -0.507755    -0.450942    -0.449517

        11.2         12.2
      0.231175     0.231334


 **********************************************************************************************************************************
 DATASETS  * FILE   NREC   LENGTH (MB)   RECORD NAMES
              1      19      144.71       500      610      700      900      950      970     1000      129      960     1100   
                                          VAR    BASINP    GEOM    SYMINP    ZMAT    AOBASIS   BASIS     P2S    ABASIS      S 
                                         1400     1410     1200     1210     1080     1600     1650     1300     1700   
                                           T        V       H0       H01     AOSYM     SMH    MOLCAS    ERIS     OPER   

              2       3        0.72       700     1000     2100   
                                         GEOM     BASIS     RHF  

 PROGRAMS   *        TOTAL       RHF       INT
 CPU TIMES  *         3.99      1.33      2.61
 REAL TIME  *         4.73 SEC
 DISK USED  *       518.18 MB      
 GA USED    *         0.00 MB       (max)       0.00 MB       (current)
 **********************************************************************************************************************************


1PROGRAM * CCSD (Closed-shell coupled cluster)     Authors: C. Hampel, H.-J. Werner, 1991, M. Deegan, P.J. Knowles, 1992


 Convergence thresholds:  THRVAR = 1.00D-08  THRDEN = 1.00D-12

 CCSD(T)     terms to be evaluated (factor= 1.000)


 Number of core orbitals:           5 (   3   2 )
 Number of closed-shell orbitals:  16 (   8   8 )
 Number of external orbitals:     109 (  55  54 )

 Molecular orbitals read from record     2100.2  Type=RHF/CANONICAL (state 1.1)

 Number of N-1 electron functions:              16
 Number of N-2 electron functions:             136
 Number of singly external CSFs:               872
 Number of doubly external CSFs:            761256
 Total number of CSFs:                      762129

 Length of J-op  integral file:               0.00 MB
 Length of K-op  integral file:               0.62 MB
 Length of 3-ext integral record:             0.00 MB

 Memory could be reduced to 14.22 Mwords without degradation in triples

 Integral transformation finished. Total CPU:   0.64 sec, npass=  1  Memory used:   8.40 MW

 Reference energy:                   -196.34771639

 MP2 singlet pair energy:              -0.48845294
 MP2 triplet pair energy:              -0.25007807
 MP2 correlation energy:               -0.73853101
 MP2 total energy:                   -197.08624740

 SCS-MP2 correlation energy:           -0.74174766   (PS=  1.200000  PT=  0.333333)
 SCS-MP2 total energy:               -197.08946405

 ITER.      SQ.NORM     CORR.ENERGY   TOTAL ENERGY   ENERGY CHANGE        DEN1      VAR(S)    VAR(P)  DIIS     TIME
   1      1.28821653    -0.80655600  -197.15427239    -0.06802499    -0.04667736  0.17D-02  0.47D-02  1  1     1.70
   2      1.31152567    -0.81148955  -197.15920594    -0.00493355    -0.02353442  0.47D-04  0.32D-03  2  2     2.83
   3      1.31553995    -0.81163927  -197.15935565    -0.00014972    -0.00243936  0.53D-05  0.22D-04  3  3     3.96
   4      1.31658423    -0.81170157  -197.15941795    -0.00006230    -0.00046361  0.25D-06  0.12D-05  4  4     5.09
   5      1.31671005    -0.81170597  -197.15942235    -0.00000440    -0.00005117  0.15D-07  0.93D-07  5  5     6.22
   6      1.31672247    -0.81170355  -197.15941994     0.00000242    -0.00000842  0.68D-09  0.61D-08  6  6     7.35
   7      1.31672104    -0.81170383  -197.15942021    -0.00000028     0.00000063  0.16D-09  0.52D-09  6  1     8.48
   8      1.31672074    -0.81170397  -197.15942036    -0.00000015     0.00000028  0.78D-11  0.30D-10  6  2     9.62
   9      1.31672045    -0.81170402  -197.15942041    -0.00000005     0.00000025  0.11D-11  0.25D-11  6  3    10.75
  10      1.31672034    -0.81170403  -197.15942042    -0.00000001     0.00000009  0.90D-13  0.22D-12  6  4    11.88
  11      1.31672028    -0.81170403  -197.15942042    -0.00000000     0.00000004  0.96D-14  0.24D-13  6  5    13.02
  12      1.31672025    -0.81170403  -197.15942042    -0.00000000     0.00000002  0.91D-15  0.12D-14  6  1    14.15
  13      1.31672024    -0.81170403  -197.15942042    -0.00000000     0.00000000  0.82D-16  0.71D-16  6  6    15.28
  14      1.31672024    -0.81170403  -197.15942042    -0.00000000     0.00000000  0.16D-16  0.98D-17  6  2    16.41
  15      1.31672024    -0.81170403  -197.15942042    -0.00000000     0.00000000  0.14D-17  0.11D-17  6  3    17.54
  16      1.31672024    -0.81170403  -197.15942042     0.00000000    -0.00000000  0.80D-19  0.96D-19  6  4    18.68
  17      1.31672024    -0.81170403  -197.15942042     0.00000000    -0.00000000  0.52D-20  0.92D-20  6  5    19.81
  18      1.31672024    -0.81170403  -197.15942042     0.00000000    -0.00000000  0.78D-21  0.14D-20  6  1    20.94
  19      1.31672024    -0.81170403  -197.15942042     0.00000000    -0.00000000  0.94D-22  0.18D-21  6  6    22.07

 Norm of t1 vector:      0.05469785      S-energy:    -0.00000000      T1 diagnostic:  0.00683723
                                                                       D1 diagnostic:  0.01260223


 Total CPU time for triples:     22.09 sec


 RESULTS
 =======

  Reference energy                   -196.347716387940
  CCSD singlet pair energy             -0.577587640222
  CCSD triplet pair energy             -0.234116394050
  CCSD correlation energy              -0.811704034272

  Triples (T) contribution             -0.023942496385
  Total correlation energy             -0.835646530657

  CCSD total energy                  -197.159420422212
  CCSD[T] energy                     -197.183822263740
  CCSD-T energy                      -197.183114254892
 !CCSD(T) total energy               -197.183362918597

 Timing summary (sec):

 STEP                 CPU(USER)    SYS     CPU(TOT)    WALL
 Transformation          0.66      0.09      0.75      0.74
 CCSD iterations        21.42      0.88     22.30     22.35
 Triples                22.09      0.72     22.81     22.83

 Program statistics:

 Available memory in ccsd:               999998876
 Min. memory needed in ccsd:               2001507
 Max. memory used in ccsd:                 2680419
 Max. memory used in cckext:               2701130 (19 integral passes)



 **********************************************************************************************************************************
 DATASETS  * FILE   NREC   LENGTH (MB)   RECORD NAMES
              1      20      201.06       500      610      700      900      950      970     1000      129      960     1100   
                                          VAR    BASINP    GEOM    SYMINP    ZMAT    AOBASIS   BASIS     P2S    ABASIS      S 
                                         1400     1410     1200     1210     1080     1600     1650     1300     1700     1380   
                                           T        V       H0       H01     AOSYM     SMH    MOLCAS    ERIS     OPER     JKOP   

              2       3        0.72       700     1000     2100   
                                         GEOM     BASIS     RHF  

 PROGRAMS   *        TOTAL   CCSD(T)       RHF       INT
 CPU TIMES  *        48.17     44.18      1.33      2.61
 REAL TIME  *        50.69 SEC
 DISK USED  *       518.18 MB      
 GA USED    *         0.00 MB       (max)       0.00 MB       (current)
 **********************************************************************************************************************************

        CCSD(T)         RHF-SCF 
   -197.18336292   -196.34771639
 **********************************************************************************************************************************
 Variable memory released
