
 Primary working directories    : /tmp/870712.240.gen4.q
 Secondary working directories  : /tmp/870712.240.gen4.q
 Wavefunction directory         : /home/vulcan/lo21740/wfu/
 Main file repository           : /tmp/870712.240.gen4.q/

 ARCHNAME  : Linux/x86_64
 FC        : /opt/intel/compilers_and_libraries_2016.1.150/linux/bin/intel64/ifort
 FCVERSION : 16.0.1
 BLASLIB   : -mkl
 id        : ccgc

 Nodes     nprocs
 n023         1
 ga_uses_ma=false, calling ma_init with nominal heap.
 GA-space will be limited to   8.0 MW (determined by -G option)

 Using customized tuning parameters: mindgm=10; mindgv=16; mindgc=4; mindgr=1; noblas=0; mincuda=1000; minvec=7
 default implementation of scratch files=df  

 ***,Optimization of formic acid
 memory,1000,m
 gthresh,energy=1.0d-12,orbital=1.0d-10,oneint=1.0d-16,twoint=1.0d-16,optgrad=1.0d-6,compress=1.0d-13
 geomtyp=xyz
 
 bohr
 geometry = {
  C   -3.5029842451   -0.8334043738   -0.0000000000
  O   -3.0967290754    1.6230405632    0.0000000000
  O   -1.8879265819   -2.4802743521   -0.0000000000
  H   -5.5161489676   -1.2721195216   -0.0000000000
  H   -1.2429019744    1.9532667608    0.0000000000
  C    3.5010590695    0.8286120312   -0.0000000000
  O    3.0981060563   -1.6202578060    0.0000000000
  O    1.8895237500    2.4826492558   -0.0000000000
  H    5.5169504710    1.2732570454   -0.0000000000
  H    1.2410514977   -1.9547696028    0.0000000000
 }
 
 basis=AVTZ
 {rhf;maxit,200}
 {mp2}

 Variables initialized (661), CPU time= 0.00 sec
 Commands  initialized (458), CPU time= 0.00 sec, 486 directives.
 Default parameters read. Elapsed time= 0.05 sec

 Checking input...
 Passed
1


                                         ***  PROGRAM SYSTEM MOLPRO  ***
                         Copyright, University College Cardiff Consultants Limited, 2008

                                    Version 2010.1 linked May 16 2016 07:17:05


 **********************************************************************************************************************************
 LABEL *   Optimization of formic acid                                                   
 Linux-4.4.3/n023(x86_64) 64 bit mpp version                                             DATE: 12-May-23          TIME: 19:57:07  
 **********************************************************************************************************************************

 SHA1:             9e8077add272b0f3cad6f7df79ec5211205f459d
 **********************************************************************************************************************************

 THRESHOLDS:

 ZERO    =  1.00D-12  ONEINT  =  1.00D-16  TWOINT  =  1.00D-16  PREFAC  =  1.00D-14  LOCALI  =  1.00D-09  EORDER  =  1.00D-04
 ENERGY  =  1.00D-12  ETEST   =  0.00D+00  EDENS   =  0.00D+00  THRDEDEF=  1.00D-06  GRADIENT=  1.00D-02  STEP    =  1.00D-03
 ORBITAL =  1.00D-10  CIVEC   =  1.00D-05  COEFF   =  1.00D-04  PRINTCI =  5.00D-02  PUNCHCI =  9.90D+01  OPTGRAD =  1.00D-06
 OPTENERG=  1.00D-06  OPTSTEP =  3.00D-04  THRGRAD =  1.00D-10  COMPRESS=  1.00D-13  VARMIN  =  1.00D-07  VARMAX  =  1.00D-03
 THRDOUB =  0.00D+00  THRDIV  =  1.00D-05  THRRED  =  1.00D-07  THRPSP  =  1.00D+00  THRDC   =  1.00D-10  THRCS   =  1.00D-10
 THRNRM  =  1.00D-08  THREQ   =  0.00D+00  THRDE   =  1.00D+00  THRREF  =  1.00D-05  SPARFAC =  1.00D+00  THRDLP  =  1.00D-07
 THRDIA  =  1.00D-10  THRDLS  =  1.00D-07  THRGPS  =  0.00D+00  THRKEX  =  0.00D+00  THRDIS  =  2.00D-01  THRVAR  =  1.00D-10
 THRLOC  =  1.00D-06  THRGAP  =  1.00D-06  THRLOCT = -1.00D+00  THRGAPT = -1.00D+00  THRORB  =  1.00D-06  THRMLTP =  0.00D+00
 THRCPQCI=  1.00D-10  KEXTA   =  0.00D+00  THRCOARS=  0.00D+00  SYMTOL  =  1.00D-06  GRADTOL =  1.00D-06  THROVL  =  1.00D-08
 THRORTH =  1.00D-08  GRID    =  1.00D-06  GRIDMAX =  1.00D-03  DTMAX   =  0.00D+00

 SETTING GEOMTYP        =    XYZ
 ZUNIT=BOHR
 

 Variable memory set to 1000000000 words,  buffer space   230000 words

 SETTING BASIS          =    AVTZ


 Recomputing integrals since basis changed


 Using spherical harmonics

 Library entry C      S aug-cc-pVTZ          selected for orbital group  1
 Library entry C      P aug-cc-pVTZ          selected for orbital group  1
 Library entry C      D aug-cc-pVTZ          selected for orbital group  1
 Library entry C      F aug-cc-pVTZ          selected for orbital group  1
 Library entry O      S aug-cc-pVTZ          selected for orbital group  2
 Library entry O      P aug-cc-pVTZ          selected for orbital group  2
 Library entry O      D aug-cc-pVTZ          selected for orbital group  2
 Library entry O      F aug-cc-pVTZ          selected for orbital group  2
 Library entry H      S aug-cc-pVTZ          selected for orbital group  3
 Library entry H      P aug-cc-pVTZ          selected for orbital group  3
 Library entry H      D aug-cc-pVTZ          selected for orbital group  3

1PROGRAM * SEWARD (Integral evaluation for generally contracted gaussian basis sets)     Author: Roland Lindh, 1990

 Geometry written to block  1 of record 700


 Point group  Cs  



 ATOMIC COORDINATES

 NR  ATOM    CHARGE       X              Y              Z

   1  C       6.00   -3.502984245   -0.833404374    0.000000000
   2  O       8.00   -3.096729075    1.623040563    0.000000000
   3  O       8.00   -1.887926582   -2.480274352    0.000000000
   4  H       1.00   -5.516148968   -1.272119522    0.000000000
   5  H       1.00   -1.242901974    1.953266761    0.000000000
   6  C       6.00    3.501059070    0.828612031    0.000000000
   7  O       8.00    3.098106056   -1.620257806    0.000000000
   8  O       8.00    1.889523750    2.482649256    0.000000000
   9  H       1.00    5.516950471    1.273257045    0.000000000
  10  H       1.00    1.241051498   -1.954769603    0.000000000

 Bond lengths in Bohr (Angstrom)

 1-2  2.489812240  1-3  2.306640843  1-4  2.060413352  2-5  1.883009363  6-7  2.481800679
     ( 1.317551892)     ( 1.220621764)     ( 1.090323787)     ( 0.996445639)     ( 1.313312357)

  6- 8  2.309304057   6- 9  2.064346708   7-10  1.886941911
       ( 1.222031075)       ( 1.092405229)       ( 0.998526654)

 Bond angles

  1-2-5  109.49104621   2-1-3  126.16799807   2-1-4  111.68463428   3-1-4  122.14736765

  6- 7-10  109.55529443   7- 6- 8  126.40158139   7- 6- 9  111.78265104   8- 6- 9  121.81576757

 NUCLEAR CHARGE:                   48
 NUMBER OF PRIMITIVE AOS:         510
 NUMBER OF SYMMETRY AOS:          448
 NUMBER OF CONTRACTIONS:          368   ( 244A'  + 124A"  )
 NUMBER OF CORE ORBITALS:           6   (   6A'  +   0A"  )
 NUMBER OF VALENCE ORBITALS:       28   (  22A'  +   6A"  )


 NUCLEAR REPULSION ENERGY  235.51324725


 Eigenvalues of metric

         1 0.342E-04 0.371E-04 0.559E-04 0.625E-04 0.145E-03 0.168E-03 0.227E-03 0.232E-03
         2 0.246E-02 0.273E-02 0.344E-02 0.345E-02 0.464E-02 0.570E-02 0.649E-02 0.740E-02


 Contracted 2-electron integrals neglected if value below      1.0D-16
 AO integral compression algorithm  1   Integral accuracy      1.0D-16

     8716.026 MB (compressed) written to integral file ( 85.0%)

     Node minimum: 8716.026 MB, node maximum: 8716.026 MB


 NUMBER OF SORTED TWO-ELECTRON INTEGRALS: 1171698620.     BUFFER LENGTH:  32768
 NUMBER OF SEGMENTS:  37  SEGMENT LENGTH:   31999270      RECORD LENGTH: 524288

 Memory used in sort:      32.56 MW

 SORT1 READ  1282336114. AND WROTE  1129828335. INTEGRALS IN   3251 RECORDS. CPU TIME:    18.05 SEC, REAL TIME:    65.17 SEC
 SORT2 READ  1129828335. AND WROTE  1171698620. INTEGRALS IN  33249 RECORDS. CPU TIME:    10.50 SEC, REAL TIME:    47.51 SEC

 FILE SIZES:   FILE 1:  8326.7 MBYTE,  FILE 4: 13635.7 MBYTE,   TOTAL:  21962.4 MBYTE

 OPERATOR DM      FOR CENTER  0  COORDINATES:    0.000000    0.000000    0.000000


 **********************************************************************************************************************************
 DATASETS  * FILE   NREC   LENGTH (MB)   RECORD NAMES
              1      19     8327.53       500      610      700      900      950      970     1000      129      960     1100   
                                          VAR    BASINP    GEOM    SYMINP    ZMAT    AOBASIS   BASIS     P2S    ABASIS      S 
                                         1400     1410     1200     1210     1080     1600     1650     1300     1700   
                                           T        V       H0       H01     AOSYM     SMH    MOLCAS    ERIS     OPER   

 PROGRAMS   *        TOTAL       INT
 CPU TIMES  *        97.26     97.19
 REAL TIME  *       192.08 SEC
 DISK USED  *        30.68 GB      
 GA USED    *         0.01 MB       (max)       0.00 MB       (current)
 **********************************************************************************************************************************

1PROGRAM * RHF-SCF (CLOSED SHELL)       Authors: W. Meyer, H.-J. Werner


 NUMBER OF ELECTRONS:      24+   24-
 CONVERGENCE THRESHOLDS:    1.00E-10 (Density)    1.00E-13 (Energy)
 MAX. NUMBER OF ITERATIONS:      200
 INTERPOLATION TYPE:            DIIS
 INTERPOLATION STEPS:              2 (START)      1 (STEP)
 LEVEL SHIFTS:                  0.00 (CLOSED)  0.00 (OPEN) 



 Orbital guess generated from atomic densities. Full valence occupancy:   28   6

 Molecular orbital dump at record        2100.2

 Initial alpha occupancy:  20   4
 Initial beta  occupancy:  20   4
 Wave function symmetry:    1

 ITERATION    DDIFF          GRAD             ENERGY        2-EL.EN.            DIPOLE MOMENTS         DIIS
    1      0.000D+00      0.000D+00      -377.56742420    746.989930   -0.00832   -0.02744    0.00000    0
    2      0.000D+00      0.432D-02      -377.65517216    743.898851   -0.00793   -0.01085    0.00000    1
    3      0.705D-02      0.282D-02      -377.70455347    746.248873   -0.00678   -0.01734    0.00000    2
    4      0.275D-02      0.380D-03      -377.70613414    745.894880   -0.00726   -0.01594    0.00000    3
    5      0.573D-03      0.167D-03      -377.70641843    745.934790   -0.00685   -0.01632    0.00000    4
    6      0.222D-03      0.482D-04      -377.70646582    745.980525   -0.00686   -0.01617    0.00000    5
    7      0.832D-04      0.207D-04      -377.70647679    745.961610   -0.00681   -0.01618    0.00000    6
    8      0.452D-04      0.676D-05      -377.70647816    745.967877   -0.00681   -0.01618    0.00000    7
    9      0.175D-04      0.220D-05      -377.70647829    745.966483   -0.00680   -0.01619    0.00000    8
   10      0.543D-05      0.645D-06      -377.70647830    745.966678   -0.00681   -0.01619    0.00000    8
   11      0.176D-05      0.208D-06      -377.70647830    745.966647   -0.00680   -0.01619    0.00000    8
   12      0.554D-06      0.600D-07      -377.70647830    745.966640   -0.00681   -0.01619    0.00000    8
   13      0.108D-06      0.300D-07      -377.70647830    745.966634   -0.00680   -0.01619    0.00000    8
   14      0.400D-07      0.821D-08      -377.70647830    745.966638   -0.00680   -0.01619    0.00000    8
   15      0.172D-07      0.297D-08      -377.70647830    745.966638   -0.00680   -0.01619    0.00000    8
   16      0.526D-08      0.101D-08      -377.70647830    745.966637   -0.00680   -0.01619    0.00000    8
   17      0.154D-08      0.394D-09      -377.70647830    745.966637   -0.00680   -0.01619    0.00000    8
   18      0.638D-09      0.112D-09      -377.70647830    745.966637   -0.00680   -0.01619    0.00000    8
   19      0.221D-09      0.481D-10      -377.70647830    745.966637   -0.00680   -0.01619    0.00000    8
   20      0.105D-09      0.231D-10      -377.70647830    745.966637   -0.00680   -0.01619    0.00000    9
   21      0.438D-10      0.693D-11      -377.70647830    745.966637   -0.00680   -0.01619    0.00000    8
   22      0.280D-10      0.273D-11      -377.70647830    745.966637   -0.00680   -0.01619    0.00000    9
   23      0.213D-10      0.108D-11      -377.70647830    745.966637   -0.00680   -0.01619    0.00000    9
   24      0.157D-10      0.446D-12      -377.70647830    745.966637   -0.00680   -0.01619    0.00000    9
   25      0.137D-10      0.305D-12      -377.70647830    745.966637   -0.00680   -0.01619    0.00000    9
   26      0.116D-10      0.245D-12      -377.70647830    745.966637   -0.00680   -0.01619    0.00000    9
   27      0.664D-11      0.238D-12      -377.70647830    745.966637   -0.00680   -0.01619    0.00000    9
   28      0.575D-11      0.283D-12      -377.70647830    745.966637   -0.00680   -0.01619    0.00000    0

 Final occupancy:  20   4

 !RHF STATE 1.1 Energy               -377.706478303911
 Nuclear energy                       235.51324725
 One-electron energy                 -986.20304415
 Two-electron energy                  372.98331859
 Virial quotient                       -1.00180371
 !RHF STATE 1.1 Dipole moment          -0.00680248    -0.01618926     0.00000000
 Dipole moment /Debye                  -0.01728903    -0.04114629     0.00000000

 Orbital energies:

         1.1          2.1          3.1          4.1          5.1          6.1          7.1          8.1          9.1         10.1
    -20.618190   -20.617370   -20.577808   -20.576638   -11.408874   -11.408349    -1.485677    -1.472997    -1.387715    -1.373819

        11.1         12.1         13.1         14.1         15.1         16.1         17.1         18.1         19.1         20.1
     -0.919629    -0.884142    -0.769427    -0.734049    -0.725318    -0.695975    -0.621946    -0.581418    -0.498548    -0.475868

        21.1         22.1
      0.029623     0.033651

         1.2          2.2          3.2          4.2          5.2          6.2
     -0.645700    -0.635378    -0.507452    -0.495916     0.066544     0.082428


 **********************************************************************************************************************************
 DATASETS  * FILE   NREC   LENGTH (MB)   RECORD NAMES
              1      19     8327.53       500      610      700      900      950      970     1000      129      960     1100   
                                          VAR    BASINP    GEOM    SYMINP    ZMAT    AOBASIS   BASIS     P2S    ABASIS      S 
                                         1400     1410     1200     1210     1080     1600     1650     1300     1700   
                                           T        V       H0       H01     AOSYM     SMH    MOLCAS    ERIS     OPER   

              2       3        1.97       700     1000     2100   
                                         GEOM     BASIS     RHF  

 PROGRAMS   *        TOTAL       RHF       INT
 CPU TIMES  *       305.91    208.65     97.19
 REAL TIME  *       424.30 SEC
 DISK USED  *        30.68 GB      
 GA USED    *         0.01 MB       (max)       0.00 MB       (current)
 **********************************************************************************************************************************


1PROGRAM * MP2 (Closed-shell)     Authors: C. Hampel, H.-J. Werner, 1991, M. Deegan, P.J. Knowles, 1992


 Convergence thresholds:  THRVAR = 1.00D-08  THRDEN = 1.00D-12

 Number of core orbitals:           6 (   6   0 )
 Number of closed-shell orbitals:  18 (  14   4 )
 Number of external orbitals:     344 ( 224 120 )

 Molecular orbitals read from record     2100.2  Type=RHF/CANONICAL (state 1.1)

 Number of N-1 electron functions:              18
 Number of N-2 electron functions:             171
 Number of singly external CSFs:              3616
 Number of doubly external CSFs:           9858712
 Total number of CSFs:                     9862329

 Length of J-op  integral file:               0.00 MB
 Length of K-op  integral file:               5.20 MB

 Integral transformation finished. Total CPU:  17.88 sec, npass=  1  Memory used:  13.03 MW

 Memory needed for MP2:                      0.37 MW

 SCS-MP2 correlation energy:           -1.263788240563   (PS=  1.200000  PT=  0.333333)
 SCS-MP2 total energy:               -378.970266544476


  Reference energy                   -377.706478303912
  MP2 singlet pair energy              -0.794079637298
  MP2 triplet pair energy              -0.499648943260
  MP2 correlation energy               -1.293728580558

 !MP2 total energy                   -379.000206884470


 **********************************************************************************************************************************
 DATASETS  * FILE   NREC   LENGTH (MB)   RECORD NAMES
              1      20     8473.68       500      610      700      900      950      970     1000      129      960     1100   
                                          VAR    BASINP    GEOM    SYMINP    ZMAT    AOBASIS   BASIS     P2S    ABASIS      S 
                                         1400     1410     1200     1210     1080     1600     1650     1300     1700     1380   
                                           T        V       H0       H01     AOSYM     SMH    MOLCAS    ERIS     OPER     JKOP   

              2       3        1.97       700     1000     2100   
                                         GEOM     BASIS     RHF  

 PROGRAMS   *        TOTAL       MP2       RHF       INT
 CPU TIMES  *       324.73     18.82    208.65     97.19
 REAL TIME  *       444.31 SEC
 DISK USED  *        30.68 GB      
 GA USED    *         0.01 MB       (max)       0.00 MB       (current)
 **********************************************************************************************************************************

        MP2             RHF-SCF 
   -379.00020688   -377.70647830
 **********************************************************************************************************************************
 Variable memory released
