
 Primary working directories    : /tmp/944438.252.gen5.q
 Secondary working directories  : /tmp/944438.252.gen5.q
 Wavefunction directory         : /home/vulcan/mel64643/wfu/
 Main file repository           : /tmp/944438.252.gen5.q/

 ARCHNAME  : Linux/x86_64
 FC        : /opt/intel/compilers_and_libraries_2016.1.150/linux/bin/intel64/ifort
 FCVERSION : 16.0.1
 BLASLIB   : -mkl
 id        : ccgc

 Nodes     nprocs
 n070         1
 ga_uses_ma=false, calling ma_init with nominal heap.
 GA-space will be limited to   8.0 MW (determined by -G option)

 Using customized tuning parameters: mindgm=10; mindgv=16; mindgc=4; mindgr=1; noblas=0; mincuda=1000; minvec=7
 default implementation of scratch files=df  

 ***,Optimization of min3
 memory,1000,m
 gthresh,energy=1.0d-12,orbital=1.0d-10,oneint=1.0d-16,twoint=1.0d-16,optgrad=1.0d-6,compress=1.0d-13
 geomtyp=xyz
 
 
 
  bohr
  geometry = {
  C   -0.2879905451    2.4011450662   -2.1311376812
  C    0.7654749388    0.0000000000   -0.8924538053
  C    0.1922154065    0.0000000000    1.8353559245
  N   -0.2965525447    0.0000000000    3.9785832873
  H    2.8348610190    0.0000000000   -1.0639962147
  C   -0.2879905451   -2.4011450662   -2.1311376812
  H   -2.3433464500   -2.4569695884   -1.9623348755
  H    0.4779626236   -4.1006904075   -1.2532317689
  H    0.1990169765   -2.4205752399   -4.1353502266
  H   -2.3433464500    2.4569695884   -1.9623348755
  H    0.1990169765    2.4205752399   -4.1353502266
  H    0.4779626236    4.1006904075   -1.2532317689
 }
 
 basis=cc-pvdz
 {rhf;maxit,200}
 {ccsd(t);maxit,200}

 Variables initialized (661), CPU time= 0.01 sec
 Commands  initialized (458), CPU time= 0.01 sec, 486 directives.
 Default parameters read. Elapsed time= 0.11 sec

 Checking input...
 Passed
1


                                         ***  PROGRAM SYSTEM MOLPRO  ***
                         Copyright, University College Cardiff Consultants Limited, 2008

                                    Version 2010.1 linked May 16 2016 07:17:05


 **********************************************************************************************************************************
 LABEL *   Optimization of min3                                                          
 Linux-4.4.3/n070(x86_64) 64 bit mpp version                                             DATE: 27-Oct-23          TIME: 10:43:22  
 **********************************************************************************************************************************

 SHA1:             9e8077add272b0f3cad6f7df79ec5211205f459d
 **********************************************************************************************************************************

 THRESHOLDS:

 ZERO    =  1.00D-12  ONEINT  =  1.00D-16  TWOINT  =  1.00D-16  PREFAC  =  1.00D-14  LOCALI  =  1.00D-09  EORDER  =  1.00D-04
 ENERGY  =  1.00D-12  ETEST   =  0.00D+00  EDENS   =  0.00D+00  THRDEDEF=  1.00D-06  GRADIENT=  1.00D-02  STEP    =  1.00D-03
 ORBITAL =  1.00D-10  CIVEC   =  1.00D-05  COEFF   =  1.00D-04  PRINTCI =  5.00D-02  PUNCHCI =  9.90D+01  OPTGRAD =  1.00D-06
 OPTENERG=  1.00D-06  OPTSTEP =  3.00D-04  THRGRAD =  1.00D-10  COMPRESS=  1.00D-13  VARMIN  =  1.00D-07  VARMAX  =  1.00D-03
 THRDOUB =  0.00D+00  THRDIV  =  1.00D-05  THRRED  =  1.00D-07  THRPSP  =  1.00D+00  THRDC   =  1.00D-10  THRCS   =  1.00D-10
 THRNRM  =  1.00D-08  THREQ   =  0.00D+00  THRDE   =  1.00D+00  THRREF  =  1.00D-05  SPARFAC =  1.00D+00  THRDLP  =  1.00D-07
 THRDIA  =  1.00D-10  THRDLS  =  1.00D-07  THRGPS  =  0.00D+00  THRKEX  =  0.00D+00  THRDIS  =  2.00D-01  THRVAR  =  1.00D-10
 THRLOC  =  1.00D-06  THRGAP  =  1.00D-06  THRLOCT = -1.00D+00  THRGAPT = -1.00D+00  THRORB  =  1.00D-06  THRMLTP =  0.00D+00
 THRCPQCI=  1.00D-10  KEXTA   =  0.00D+00  THRCOARS=  0.00D+00  SYMTOL  =  1.00D-06  GRADTOL =  1.00D-06  THROVL  =  1.00D-08
 THRORTH =  1.00D-08  GRID    =  1.00D-06  GRIDMAX =  1.00D-03  DTMAX   =  0.00D+00

 SETTING GEOMTYP        =    XYZ
 ZUNIT=BOHR
 

 Variable memory set to 1000000000 words,  buffer space   230000 words

 SETTING BASIS          =    CC-PVDZ


 Recomputing integrals since basis changed


 Using spherical harmonics

 Library entry C      S cc-pVDZ              selected for orbital group  1
 Library entry C      P cc-pVDZ              selected for orbital group  1
 Library entry C      D cc-pVDZ              selected for orbital group  1
 Library entry N      S cc-pVDZ              selected for orbital group  2
 Library entry N      P cc-pVDZ              selected for orbital group  2
 Library entry N      D cc-pVDZ              selected for orbital group  2
 Library entry H      S cc-pVDZ              selected for orbital group  3
 Library entry H      P cc-pVDZ              selected for orbital group  3

1PROGRAM * SEWARD (Integral evaluation for generally contracted gaussian basis sets)     Author: Roland Lindh, 1990

 Geometry written to block  1 of record 700


 Point group  Cs  



 ATOMIC COORDINATES

 NR  ATOM    CHARGE       X              Y              Z

   1  C       6.00   -0.287990545    2.401145066   -2.131137681
   2  C       6.00   -0.287990545   -2.401145066   -2.131137681
   3  C       6.00    0.765474939    0.000000000   -0.892453805
   4  C       6.00    0.192215406    0.000000000    1.835355924
   5  N       7.00   -0.296552545    0.000000000    3.978583287
   6  H       1.00    2.834861019    0.000000000   -1.063996215
   7  H       1.00   -2.343346450   -2.456969588   -1.962334876
   8  H       1.00   -2.343346450    2.456969588   -1.962334876
   9  H       1.00    0.477962624   -4.100690408   -1.253231769
  10  H       1.00    0.477962624    4.100690408   -1.253231769
  11  H       1.00    0.199016976   -2.420575240   -4.135350227
  12  H       1.00    0.199016976    2.420575240   -4.135350227

 Bond lengths in Bohr (Angstrom)

  1- 3  2.899935327   1- 8  2.063031425   1-10  2.060547843   1-12  2.062624974   2- 3  2.899935327
       ( 1.534579682)       ( 1.091709212)       ( 1.090394957)       ( 1.091494127)       ( 1.534579682)

  2- 7  2.063031425   2- 9  2.060547843   2-11  2.062624974   3- 4  2.787395274   3- 6  2.076483939
       ( 1.091709212)       ( 1.090394957)       ( 1.091494127)       ( 1.475026051)       ( 1.098827975)

 4-5  2.198253315
     ( 1.163265554)

 Bond angles

  1-3-2  111.78757136   1-3-4  110.07805271   1-3-6  109.07122528   2-3-4  110.07805271

  2- 3- 6  109.07122528   3- 1- 8  110.44914247   3- 1-10  111.46383203   3- 1-12  109.69864271

  3- 2- 7  110.44914247   3- 2- 9  111.46383203   3- 2-11  109.69864271   3- 4- 5  179.02148593

  4- 3- 6  106.60693501   7- 2- 9  108.24979539   7- 2-11  108.32958923   8- 1-10  108.24979539

  8- 1-12  108.32958923   9- 2-11  108.56930376  10- 1-12  108.56930376

 NUCLEAR CHARGE:                   38
 NUMBER OF PRIMITIVE AOS:         184
 NUMBER OF SYMMETRY AOS:          179
 NUMBER OF CONTRACTIONS:          105   (  63A'  +  42A"  )
 NUMBER OF CORE ORBITALS:           5   (   4A'  +   1A"  )
 NUMBER OF VALENCE ORBITALS:       27   (  17A'  +  10A"  )


 NUCLEAR REPULSION ENERGY  158.89862841


 Eigenvalues of metric

         1 0.197E-02 0.464E-02 0.602E-02 0.167E-01 0.195E-01 0.264E-01 0.362E-01 0.365E-01
         2 0.574E-02 0.209E-01 0.297E-01 0.320E-01 0.355E-01 0.364E-01 0.498E-01 0.601E-01


 Contracted 2-electron integrals neglected if value below      1.0D-16
 AO integral compression algorithm  1   Integral accuracy      1.0D-16

     69.992 MB (compressed) written to integral file ( 96.4%)

     Node minimum: 69.992 MB, node maximum: 69.992 MB


 NUMBER OF SORTED TWO-ELECTRON INTEGRALS:    7902636.     BUFFER LENGTH:  32768
 NUMBER OF SEGMENTS:   1  SEGMENT LENGTH:    7902636      RECORD LENGTH: 524288

 Memory used in sort:       8.46 MW

 SORT1 READ     9079307. AND WROTE     7856026. INTEGRALS IN     23 RECORDS. CPU TIME:     0.10 SEC, REAL TIME:     0.16 SEC
 SORT2 READ     7856026. AND WROTE     7902636. INTEGRALS IN    267 RECORDS. CPU TIME:     0.12 SEC, REAL TIME:     0.16 SEC

 FILE SIZES:   FILE 1:    64.6 MBYTE,  FILE 4:    96.5 MBYTE,   TOTAL:    161.1 MBYTE

 OPERATOR DM      FOR CENTER  0  COORDINATES:    0.000000    0.000000    0.000000


 **********************************************************************************************************************************
 DATASETS  * FILE   NREC   LENGTH (MB)   RECORD NAMES
              1      19       64.68       500      610      700      900      950      970     1000      129      960     1100   
                                          VAR    BASINP    GEOM    SYMINP    ZMAT    AOBASIS   BASIS     P2S    ABASIS      S 
                                         1400     1410     1200     1210     1080     1600     1650     1300     1700   
                                           T        V       H0       H01     AOSYM     SMH    MOLCAS    ERIS     OPER   

 PROGRAMS   *        TOTAL       INT
 CPU TIMES  *         1.95      1.82
 REAL TIME  *         2.61 SEC
 DISK USED  *       231.96 MB      
 GA USED    *         0.00 MB       (max)       0.00 MB       (current)
 **********************************************************************************************************************************

1PROGRAM * RHF-SCF (CLOSED SHELL)       Authors: W. Meyer, H.-J. Werner


 NUMBER OF ELECTRONS:      19+   19-
 CONVERGENCE THRESHOLDS:    1.00E-10 (Density)    1.00E-13 (Energy)
 MAX. NUMBER OF ITERATIONS:      200
 INTERPOLATION TYPE:            DIIS
 INTERPOLATION STEPS:              2 (START)      1 (STEP)
 LEVEL SHIFTS:                  0.00 (CLOSED)  0.00 (OPEN) 



 Orbital guess generated from atomic densities. Full valence occupancy:   21  11

 Molecular orbital dump at record        2100.2

 Initial alpha occupancy:  13   6
 Initial beta  occupancy:  13   6
 Wave function symmetry:    1

 ITERATION    DDIFF          GRAD             ENERGY        2-EL.EN.            DIPOLE MOMENTS         DIIS
    1      0.000D+00      0.000D+00      -209.94368499    457.025358    0.48780    0.00000   -2.25425    0
    2      0.000D+00      0.815D-02      -209.98966201    456.580475    0.14919    0.00000   -1.29386    1
    3      0.172D-01      0.572D-02      -210.01005066    456.263364    0.30551    0.00000   -1.70281    2
    4      0.765D-02      0.147D-02      -210.01229812    456.591192    0.29216    0.00000   -1.61453    3
    5      0.271D-02      0.325D-03      -210.01241658    456.431267    0.28567    0.00000   -1.62570    4
    6      0.589D-03      0.799D-04      -210.01242593    456.450315    0.28588    0.00000   -1.62377    5
    7      0.234D-03      0.221D-04      -210.01242648    456.448264    0.28624    0.00000   -1.62508    6
    8      0.423D-04      0.694D-05      -210.01242654    456.447954    0.28611    0.00000   -1.62519    7
    9      0.152D-04      0.149D-05      -210.01242654    456.447883    0.28613    0.00000   -1.62519    7
   10      0.366D-05      0.536D-06      -210.01242654    456.447981    0.28614    0.00000   -1.62521    7
   11      0.135D-05      0.284D-06      -210.01242654    456.447948    0.28613    0.00000   -1.62521    7
   12      0.970D-06      0.129D-06      -210.01242654    456.447965    0.28613    0.00000   -1.62521    7
   13      0.609D-06      0.329D-07      -210.01242654    456.447958    0.28613    0.00000   -1.62521    8
   14      0.156D-06      0.630D-08      -210.01242654    456.447957    0.28613    0.00000   -1.62521    8
   15      0.198D-07      0.245D-08      -210.01242654    456.447958    0.28613    0.00000   -1.62521    8
   16      0.476D-08      0.725D-09      -210.01242654    456.447958    0.28613    0.00000   -1.62521    8
   17      0.155D-08      0.139D-09      -210.01242654    456.447958    0.28613    0.00000   -1.62521    8
   18      0.313D-09      0.313D-10      -210.01242654    456.447958    0.28613    0.00000   -1.62521    7
   19      0.753D-10      0.937D-11      -210.01242654    456.447958    0.28613    0.00000   -1.62521    7
   20      0.219D-10      0.290D-11      -210.01242654    456.447958    0.28613    0.00000   -1.62521    7
   21      0.766D-11      0.121D-11      -210.01242654    456.447958    0.28613    0.00000   -1.62521    7
   22      0.310D-11      0.550D-12      -210.01242654    456.447958    0.28613    0.00000   -1.62521    0

 Final occupancy:  13   6

 !RHF STATE 1.1 Energy               -210.012426543323
 Nuclear energy                       158.89862841
 One-electron energy                 -597.13503395
 Two-electron energy                  228.22397900
 Virial quotient                       -1.00167929
 !RHF STATE 1.1 Dipole moment           0.28613112     0.00000000    -1.62521034
 Dipole moment /Debye                   0.72722514     0.00000000    -4.13060210

 Orbital energies:

         1.1          2.1          3.1          4.1          5.1          6.1          7.1          8.1          9.1         10.1
    -15.572678   -11.290965   -11.274883   -11.250146    -1.212680    -1.107444    -0.876309    -0.703337    -0.642614    -0.572374

        11.1         12.1         13.1         14.1         15.1
     -0.530494    -0.523066    -0.447268     0.155128     0.207336

         1.2          2.2          3.2          4.2          5.2          6.2          7.2          8.2
    -11.250164    -0.960754    -0.597022    -0.563451    -0.520385    -0.447505     0.190193     0.247803


 **********************************************************************************************************************************
 DATASETS  * FILE   NREC   LENGTH (MB)   RECORD NAMES
              1      19       64.68       500      610      700      900      950      970     1000      129      960     1100   
                                          VAR    BASINP    GEOM    SYMINP    ZMAT    AOBASIS   BASIS     P2S    ABASIS      S 
                                         1400     1410     1200     1210     1080     1600     1650     1300     1700   
                                           T        V       H0       H01     AOSYM     SMH    MOLCAS    ERIS     OPER   

              2       3        0.57       700     1000     2100   
                                         GEOM     BASIS     RHF  

 PROGRAMS   *        TOTAL       RHF       INT
 CPU TIMES  *         2.82      0.87      1.82
 REAL TIME  *         3.72 SEC
 DISK USED  *       231.96 MB      
 GA USED    *         0.00 MB       (max)       0.00 MB       (current)
 **********************************************************************************************************************************


1PROGRAM * CCSD (Closed-shell coupled cluster)     Authors: C. Hampel, H.-J. Werner, 1991, M. Deegan, P.J. Knowles, 1992


 Convergence thresholds:  THRVAR = 1.00D-08  THRDEN = 1.00D-12

 CCSD(T)     terms to be evaluated (factor= 1.000)


 Number of core orbitals:           5 (   4   1 )
 Number of closed-shell orbitals:  14 (   9   5 )
 Number of external orbitals:      86 (  50  36 )

 Molecular orbitals read from record     2100.2  Type=RHF/CANONICAL (state 1.1)

 Number of N-1 electron functions:              14
 Number of N-2 electron functions:             105
 Number of singly external CSFs:               630
 Number of doubly external CSFs:            363790
 Total number of CSFs:                      364421

 Length of J-op  integral file:               0.00 MB
 Length of K-op  integral file:               0.43 MB
 Length of 3-ext integral record:             0.00 MB

 Memory could be reduced to 6.52 Mwords without degradation in triples

 Integral transformation finished. Total CPU:   0.29 sec, npass=  1  Memory used:   3.66 MW

 Reference energy:                   -210.01242654

 MP2 singlet pair energy:              -0.45170409
 MP2 triplet pair energy:              -0.25976494
 MP2 correlation energy:               -0.71146903
 MP2 total energy:                   -210.72389557

 SCS-MP2 correlation energy:           -0.70367643   (PS=  1.200000  PT=  0.333333)
 SCS-MP2 total energy:               -210.71610297

 ITER.      SQ.NORM     CORR.ENERGY   TOTAL ENERGY   ENERGY CHANGE        DEN1      VAR(S)    VAR(P)  DIIS     TIME
   1      1.27026806    -0.75355312  -210.76597966    -0.04208409    -0.01887483  0.35D-02  0.56D-02  1  1     0.82
   2      1.29294962    -0.75721349  -210.76964003    -0.00366037    -0.02205761  0.58D-04  0.76D-03  2  2     1.35
   3      1.30034053    -0.75759120  -210.77001774    -0.00037771    -0.00408008  0.27D-04  0.55D-04  3  3     1.88
   4      1.30290719    -0.75768805  -210.77011459    -0.00009685    -0.00100856  0.13D-05  0.65D-05  4  4     2.48
   5      1.30347501    -0.75769665  -210.77012319    -0.00000860    -0.00016839  0.16D-06  0.78D-06  5  5     2.99
   6      1.30359781    -0.75769108  -210.77011762     0.00000558    -0.00003129  0.97D-08  0.53D-07  6  6     3.50
   7      1.30361597    -0.75769347  -210.77012002    -0.00000240    -0.00000405  0.15D-08  0.48D-08  6  2     4.00
   8      1.30361742    -0.75769340  -210.77011994     0.00000008    -0.00000004  0.14D-09  0.42D-09  6  1     4.51
   9      1.30361777    -0.75769338  -210.77011992     0.00000002     0.00000023  0.16D-10  0.36D-10  6  3     5.01
  10      1.30361804    -0.75769339  -210.77011994    -0.00000001    -0.00000006  0.17D-11  0.33D-11  6  4     5.52
  11      1.30361766    -0.75769342  -210.77011996    -0.00000002     0.00000023  0.35D-12  0.34D-12  6  6     6.02
  12      1.30361759    -0.75769342  -210.77011997    -0.00000001     0.00000004  0.44D-13  0.27D-13  6  5     6.52
  13      1.30361755    -0.75769343  -210.77011997    -0.00000000     0.00000002  0.51D-14  0.45D-14  6  2     7.02
  14      1.30361755    -0.75769343  -210.77011997     0.00000000     0.00000000  0.15D-14  0.65D-15  6  1     7.53
  15      1.30361755    -0.75769343  -210.77011997     0.00000000    -0.00000000  0.10D-15  0.10D-15  6  4     8.03
  16      1.30361755    -0.75769343  -210.77011997     0.00000000    -0.00000000  0.15D-16  0.71D-17  6  3     8.54
  17      1.30361755    -0.75769343  -210.77011997     0.00000000    -0.00000000  0.33D-17  0.15D-17  6  6     9.04
  18      1.30361755    -0.75769343  -210.77011997    -0.00000000    -0.00000000  0.54D-18  0.25D-18  6  5     9.54
  19      1.30361755    -0.75769343  -210.77011997     0.00000000     0.00000000  0.60D-19  0.42D-19  6  2    10.04
  20      1.30361755    -0.75769343  -210.77011997     0.00000000    -0.00000000  0.63D-20  0.40D-20  6  4    10.54

 Norm of t1 vector:      0.07770374      S-energy:    -0.00000000      T1 diagnostic:  0.01038360
                                                                       D1 diagnostic:  0.02935875


 Total CPU time for triples:      7.34 sec


 RESULTS
 =======

  Reference energy                   -210.012426543323
  CCSD singlet pair energy             -0.527428321292
  CCSD triplet pair energy             -0.230265105560
  CCSD correlation energy              -0.757693426853

  Triples (T) contribution             -0.026800290389
  Total correlation energy             -0.784493717242

  CCSD total energy                  -210.770119970176
  CCSD[T] energy                     -210.797930450737
  CCSD-T energy                      -210.796449992802
 !CCSD(T) total energy               -210.796920260565

 Timing summary (sec):

 STEP                 CPU(USER)    SYS     CPU(TOT)    WALL
 Transformation          0.30      0.05      0.35      0.35
 CCSD iterations        10.24      0.57     10.81     10.86
 Triples                 7.34      0.17      7.51      7.51

 Program statistics:

 Available memory in ccsd:               999999116
 Min. memory needed in ccsd:               1015801
 Max. memory used in ccsd:                 1336471
 Max. memory used in cckext:               1413641 (20 integral passes)



 **********************************************************************************************************************************
 DATASETS  * FILE   NREC   LENGTH (MB)   RECORD NAMES
              1      20       90.15       500      610      700      900      950      970     1000      129      960     1100   
                                          VAR    BASINP    GEOM    SYMINP    ZMAT    AOBASIS   BASIS     P2S    ABASIS      S 
                                         1400     1410     1200     1210     1080     1600     1650     1300     1700     1380   
                                           T        V       H0       H01     AOSYM     SMH    MOLCAS    ERIS     OPER     JKOP   

              2       3        0.57       700     1000     2100   
                                         GEOM     BASIS     RHF  

 PROGRAMS   *        TOTAL   CCSD(T)       RHF       INT
 CPU TIMES  *        20.71     17.88      0.87      1.82
 REAL TIME  *        22.47 SEC
 DISK USED  *       231.96 MB      
 GA USED    *         0.00 MB       (max)       0.00 MB       (current)
 **********************************************************************************************************************************

        CCSD(T)         RHF-SCF 
   -210.79692026   -210.01242654
 **********************************************************************************************************************************
 Variable memory released
