
 Primary working directories    : /tmp/985636.1726.gen4.q
 Secondary working directories  : /tmp/985636.1726.gen4.q
 Wavefunction directory         : /home/vulcan/jj04645/wfu/
 Main file repository           : /tmp/985636.1726.gen4.q/

 ARCHNAME  : Linux/x86_64
 FC        : /opt/intel/compilers_and_libraries_2016.1.150/linux/bin/intel64/ifort
 FCVERSION : 16.0.1
 BLASLIB   : -mkl
 id        : ccgc

 Nodes     nprocs
 n027         1
 ga_uses_ma=false, calling ma_init with nominal heap.
 GA-space will be limited to   8.0 MW (determined by -G option)

 Using customized tuning parameters: mindgm=10; mindgv=16; mindgc=4; mindgr=1; noblas=0; mincuda=1000; minvec=7
 default implementation of scratch files=df  

 ***,Optimization of tetrahydrothiopyran
 memory,1000,m
 gthresh,energy=1.0d-12,orbital=1.0d-10,oneint=1.0d-16,twoint=1.0d-16,optgrad=1.0d-6,compress=1.0d-13
 geomtyp=xyz
 
 bohr
 geometry = {
  S    0.3524966968    2.7005468777    0.0000000000
  C   -0.3270218565   -3.3648915742   -0.0000000000
  C   -0.6617976070    0.6692937395   -2.5812259754
  C   -0.6617976070    0.6692937395    2.5812259754
  C    0.4742482917   -1.9807664147   -2.4139027231
  C    0.4742482917   -1.9807664147    2.4139027231
  H   -2.7279963383    0.5700950257   -2.5850519793
  H   -2.7279963383    0.5700950257    2.5850519793
  H   -0.0731007037    1.6247320709   -4.3116043839
  H   -0.0731007037    1.6247320709    4.3116043839
  H    2.5356674395   -1.8359015059   -2.4982175366
  H    2.5356674395   -1.8359015059    2.4982175366
  H   -0.1391649589   -3.0794275078   -4.0567819751
  H   -0.1391649589   -3.0794275078    4.0567819751
  H    0.4694468442   -5.2712438311   -0.0000000000
  H   -2.3893689479   -3.5802837047   -0.0000000000
 }
 
 basis=VDZ
 {rhf;maxit,200}
 {ccsd(t);maxit,200}

 Variables initialized (661), CPU time= 0.00 sec
 Commands  initialized (458), CPU time= 0.01 sec, 486 directives.
 Default parameters read. Elapsed time= 0.06 sec

 Checking input...
 Passed
1


                                         ***  PROGRAM SYSTEM MOLPRO  ***
                         Copyright, University College Cardiff Consultants Limited, 2008

                                    Version 2010.1 linked May 16 2016 07:17:05


 **********************************************************************************************************************************
 LABEL *   Optimization of tetrahydrothiopyran                                           
 Linux-4.4.3/n027(x86_64) 64 bit mpp version                                             DATE: 26-Jan-24          TIME: 19:26:49  
 **********************************************************************************************************************************

 SHA1:             9e8077add272b0f3cad6f7df79ec5211205f459d
 **********************************************************************************************************************************

 THRESHOLDS:

 ZERO    =  1.00D-12  ONEINT  =  1.00D-16  TWOINT  =  1.00D-16  PREFAC  =  1.00D-14  LOCALI  =  1.00D-09  EORDER  =  1.00D-04
 ENERGY  =  1.00D-12  ETEST   =  0.00D+00  EDENS   =  0.00D+00  THRDEDEF=  1.00D-06  GRADIENT=  1.00D-02  STEP    =  1.00D-03
 ORBITAL =  1.00D-10  CIVEC   =  1.00D-05  COEFF   =  1.00D-04  PRINTCI =  5.00D-02  PUNCHCI =  9.90D+01  OPTGRAD =  1.00D-06
 OPTENERG=  1.00D-06  OPTSTEP =  3.00D-04  THRGRAD =  1.00D-10  COMPRESS=  1.00D-13  VARMIN  =  1.00D-07  VARMAX  =  1.00D-03
 THRDOUB =  0.00D+00  THRDIV  =  1.00D-05  THRRED  =  1.00D-07  THRPSP  =  1.00D+00  THRDC   =  1.00D-10  THRCS   =  1.00D-10
 THRNRM  =  1.00D-08  THREQ   =  0.00D+00  THRDE   =  1.00D+00  THRREF  =  1.00D-05  SPARFAC =  1.00D+00  THRDLP  =  1.00D-07
 THRDIA  =  1.00D-10  THRDLS  =  1.00D-07  THRGPS  =  0.00D+00  THRKEX  =  0.00D+00  THRDIS  =  2.00D-01  THRVAR  =  1.00D-10
 THRLOC  =  1.00D-06  THRGAP  =  1.00D-06  THRLOCT = -1.00D+00  THRGAPT = -1.00D+00  THRORB  =  1.00D-06  THRMLTP =  0.00D+00
 THRCPQCI=  1.00D-10  KEXTA   =  0.00D+00  THRCOARS=  0.00D+00  SYMTOL  =  1.00D-06  GRADTOL =  1.00D-06  THROVL  =  1.00D-08
 THRORTH =  1.00D-08  GRID    =  1.00D-06  GRIDMAX =  1.00D-03  DTMAX   =  0.00D+00

 SETTING GEOMTYP        =    XYZ
 ZUNIT=BOHR
 

 Variable memory set to 1000000000 words,  buffer space   230000 words

 SETTING BASIS          =    VDZ


 Recomputing integrals since basis changed


 Using spherical harmonics

 Library entry S      S cc-pVDZ              selected for orbital group  1
 Library entry S      P cc-pVDZ              selected for orbital group  1
 Library entry S      D cc-pVDZ              selected for orbital group  1
 Library entry C      S cc-pVDZ              selected for orbital group  2
 Library entry C      P cc-pVDZ              selected for orbital group  2
 Library entry C      D cc-pVDZ              selected for orbital group  2
 Library entry H      S cc-pVDZ              selected for orbital group  3
 Library entry H      P cc-pVDZ              selected for orbital group  3

1PROGRAM * SEWARD (Integral evaluation for generally contracted gaussian basis sets)     Author: Roland Lindh, 1990

 Geometry written to block  1 of record 700


 Point group  Cs  



 ATOMIC COORDINATES

 NR  ATOM    CHARGE       X              Y              Z

   1  S      16.00    0.352496697    2.700546878    0.000000000
   2  C       6.00   -0.327021856   -3.364891574    0.000000000
   3  C       6.00   -0.661797607    0.669293740   -2.581225975
   4  C       6.00   -0.661797607    0.669293740    2.581225975
   5  C       6.00    0.474248292   -1.980766415   -2.413902723
   6  C       6.00    0.474248292   -1.980766415    2.413902723
   7  H       1.00   -2.727996338    0.570095026   -2.585051979
   8  H       1.00   -2.727996338    0.570095026    2.585051979
   9  H       1.00   -0.073100704    1.624732071   -4.311604384
  10  H       1.00   -0.073100704    1.624732071    4.311604384
  11  H       1.00    2.535667440   -1.835901506   -2.498217537
  12  H       1.00    2.535667440   -1.835901506    2.498217537
  13  H       1.00   -0.139164959   -3.079427508   -4.056781975
  14  H       1.00   -0.139164959   -3.079427508    4.056781975
  15  H       1.00    0.469446844   -5.271243831    0.000000000
  16  H       1.00   -2.389368948   -3.580283705    0.000000000

 Bond lengths in Bohr (Angstrom)

  1- 3  3.437660510   1- 4  3.437660510   2- 5  2.895645466   2- 6  2.895645466   2-15  2.066044849
       ( 1.819131594)       ( 1.819131594)       ( 1.532309586)       ( 1.532309586)       ( 1.093303847)

  2-16  2.073564394   3- 5  2.888150996   3- 7  2.068582176   3- 9  2.062434456   4- 6  2.888150996
       ( 1.097283019)       ( 1.528343683)       ( 1.094646543)       ( 1.091393309)       ( 1.528343683)

  4- 8  2.068582176   4-10  2.062434456   5-11  2.068222361   5-13  2.069392242   6-12  2.068222361
       ( 1.094646543)       ( 1.091393309)       ( 1.094456136)       ( 1.095075211)       ( 1.094456136)

  6-14  2.069392242
       ( 1.095075211)

 Bond angles

  1-3-5  112.49558508   1-3-7  108.93154225   1-3-9  105.78484510   1-4-6  112.49558508

  1- 4- 8  108.93154225   1- 4-10  105.78484510   2- 5- 3  112.21281404   2- 5-11  110.07626546

  2- 5-13  109.02708858   2- 6- 4  112.21281404   2- 6-12  110.07626546   2- 6-14  109.02708858

  3- 1- 4   97.33107916   3- 5-11  108.99116869   3- 5-13  108.93848530   4- 6-12  108.99116869

  4- 6-14  108.93848530   5- 2- 6  112.94732064   5- 2-15  109.53488123   5- 2-16  108.95777487

  5- 3- 7  110.42612608   5- 3- 9  111.18611365   6- 2-15  109.53488123   6- 2-16  108.95777487

  6- 4- 8  110.42612608   6- 4-10  111.18611365   7- 3- 9  107.80465614   8- 4-10  107.80465614

 11- 5-13  107.47375919  12- 6-14  107.47375919  15- 2-16  106.71266533

 NUCLEAR CHARGE:                   56
 NUMBER OF PRIMITIVE AOS:         247
 NUMBER OF SYMMETRY AOS:          241
 NUMBER OF CONTRACTIONS:          138   (  79A'  +  59A"  )
 NUMBER OF CORE ORBITALS:          10   (   7A'  +   3A"  )
 NUMBER OF VALENCE ORBITALS:       34   (  20A'  +  14A"  )


 NUCLEAR REPULSION ENERGY  312.10980526


 Eigenvalues of metric

         1 0.304E-02 0.427E-02 0.634E-02 0.156E-01 0.197E-01 0.238E-01 0.283E-01 0.343E-01
         2 0.286E-02 0.703E-02 0.151E-01 0.197E-01 0.220E-01 0.343E-01 0.351E-01 0.358E-01


 Contracted 2-electron integrals neglected if value below      1.0D-16
 AO integral compression algorithm  1   Integral accuracy      1.0D-16

     207.094 MB (compressed) written to integral file ( 97.6%)

     Node minimum: 207.094 MB, node maximum: 207.094 MB


 NUMBER OF SORTED TWO-ELECTRON INTEGRALS:   23341315.     BUFFER LENGTH:  32768
 NUMBER OF SEGMENTS:   2  SEGMENT LENGTH:   15994315      RECORD LENGTH: 524288

 Memory used in sort:      16.55 MW

 SORT1 READ    26508478. AND WROTE    23262017. INTEGRALS IN     68 RECORDS. CPU TIME:     0.34 SEC, REAL TIME:     0.50 SEC
 SORT2 READ    23262017. AND WROTE    23341315. INTEGRALS IN    790 RECORDS. CPU TIME:     0.25 SEC, REAL TIME:     0.37 SEC

 FILE SIZES:   FILE 1:   187.9 MBYTE,  FILE 4:   285.2 MBYTE,   TOTAL:    473.2 MBYTE

 OPERATOR DM      FOR CENTER  0  COORDINATES:    0.000000    0.000000    0.000000


 **********************************************************************************************************************************
 DATASETS  * FILE   NREC   LENGTH (MB)   RECORD NAMES
              1      19      188.04       500      610      700      900      950      970     1000      129      960     1100   
                                          VAR    BASINP    GEOM    SYMINP    ZMAT    AOBASIS   BASIS     P2S    ABASIS      S 
                                         1400     1410     1200     1210     1080     1600     1650     1300     1700   
                                           T        V       H0       H01     AOSYM     SMH    MOLCAS    ERIS     OPER   

 PROGRAMS   *        TOTAL       INT
 CPU TIMES  *         4.18      4.12
 REAL TIME  *         4.74 SEC
 DISK USED  *       681.26 MB      
 GA USED    *         0.00 MB       (max)       0.00 MB       (current)
 **********************************************************************************************************************************

1PROGRAM * RHF-SCF (CLOSED SHELL)       Authors: W. Meyer, H.-J. Werner


 NUMBER OF ELECTRONS:      28+   28-
 CONVERGENCE THRESHOLDS:    1.00E-10 (Density)    1.00E-13 (Energy)
 MAX. NUMBER OF ITERATIONS:      200
 INTERPOLATION TYPE:            DIIS
 INTERPOLATION STEPS:              2 (START)      1 (STEP)
 LEVEL SHIFTS:                  0.00 (CLOSED)  0.00 (OPEN) 



 Orbital guess generated from atomic densities. Full valence occupancy:   27  17

 Molecular orbital dump at record        2100.2

 Initial alpha occupancy:  18  10
 Initial beta  occupancy:  18  10
 Wave function symmetry:    1

 ITERATION    DDIFF          GRAD             ENERGY        2-EL.EN.            DIPOLE MOMENTS         DIIS
    1      0.000D+00      0.000D+00      -592.64387155   1056.793189   -0.41112   -0.80752    0.00000    0
    2      0.000D+00      0.552D-02      -592.70491586   1054.202400   -0.20815   -0.74038    0.00000    1
    3      0.109D-01      0.185D-02      -592.71085704   1055.640282   -0.28153   -0.67816    0.00000    2
    4      0.375D-02      0.753D-03      -592.71186808   1055.020830   -0.25390   -0.71103    0.00000    3
    5      0.130D-02      0.108D-03      -592.71189385   1055.084037   -0.24998   -0.70254    0.00000    4
    6      0.253D-03      0.373D-04      -592.71189638   1055.053116   -0.25171   -0.70283    0.00000    5
    7      0.704D-04      0.864D-05      -592.71189659   1055.056254   -0.25105   -0.70272    0.00000    6
    8      0.230D-04      0.242D-05      -592.71189661   1055.055399   -0.25103   -0.70258    0.00000    7
    9      0.752D-05      0.630D-06      -592.71189661   1055.055280   -0.25102   -0.70254    0.00000    7
   10      0.177D-05      0.225D-06      -592.71189661   1055.055318   -0.25101   -0.70254    0.00000    7
   11      0.668D-06      0.479D-07      -592.71189661   1055.055304   -0.25101   -0.70253    0.00000    7
   12      0.159D-06      0.960D-08      -592.71189661   1055.055309   -0.25101   -0.70253    0.00000    7
   13      0.254D-07      0.401D-08      -592.71189661   1055.055306   -0.25101   -0.70253    0.00000    7
   14      0.883D-08      0.118D-08      -592.71189661   1055.055307   -0.25101   -0.70253    0.00000    7
   15      0.315D-08      0.382D-09      -592.71189661   1055.055307   -0.25101   -0.70253    0.00000    7
   16      0.915D-09      0.117D-09      -592.71189661   1055.055307   -0.25101   -0.70253    0.00000    8
   17      0.282D-09      0.251D-10      -592.71189661   1055.055307   -0.25101   -0.70253    0.00000    7
   18      0.666D-10      0.648D-11      -592.71189661   1055.055307   -0.25101   -0.70253    0.00000    0

 Final occupancy:  18  10

 !RHF STATE 1.1 Energy               -592.711896607445
 Nuclear energy                       312.10980526
 One-electron energy                -1432.34935540
 Two-electron energy                  527.52765353
 Virial quotient                       -1.00019588
 !RHF STATE 1.1 Dipole moment          -0.25100876    -0.70253401     0.00000000
 Dipole moment /Debye                  -0.63795885    -1.78554638     0.00000000

 Orbital energies:

         1.1          2.1          3.1          4.1          5.1          6.1          7.1          8.1          9.1         10.1
    -91.929757   -11.254957   -11.230984   -11.229166    -8.933646    -6.614108    -6.611907    -1.119504    -1.006505    -0.835836

        11.1         12.1         13.1         14.1         15.1         16.1         17.1         18.1         19.1         20.1
     -0.755474    -0.646629    -0.609519    -0.578451    -0.495519    -0.473520    -0.411721    -0.328691     0.176822     0.201152

         1.2          2.2          3.2          4.2          5.2          6.2          7.2          8.2          9.2         10.2
    -11.254971   -11.230896    -6.615541    -1.019972    -0.842462    -0.614811    -0.546805    -0.523324    -0.498266    -0.434083

        11.2         12.2
      0.190293     0.222999


 **********************************************************************************************************************************
 DATASETS  * FILE   NREC   LENGTH (MB)   RECORD NAMES
              1      19      188.04       500      610      700      900      950      970     1000      129      960     1100   
                                          VAR    BASINP    GEOM    SYMINP    ZMAT    AOBASIS   BASIS     P2S    ABASIS      S 
                                         1400     1410     1200     1210     1080     1600     1650     1300     1700   
                                           T        V       H0       H01     AOSYM     SMH    MOLCAS    ERIS     OPER   

              2       3        0.73       700     1000     2100   
                                         GEOM     BASIS     RHF  

 PROGRAMS   *        TOTAL       RHF       INT
 CPU TIMES  *         6.41      2.23      4.12
 REAL TIME  *         7.36 SEC
 DISK USED  *       681.26 MB      
 GA USED    *         0.00 MB       (max)       0.00 MB       (current)
 **********************************************************************************************************************************


1PROGRAM * CCSD (Closed-shell coupled cluster)     Authors: C. Hampel, H.-J. Werner, 1991, M. Deegan, P.J. Knowles, 1992


 Convergence thresholds:  THRVAR = 1.00D-08  THRDEN = 1.00D-12

 CCSD(T)     terms to be evaluated (factor= 1.000)


 Number of core orbitals:          10 (   7   3 )
 Number of closed-shell orbitals:  18 (  11   7 )
 Number of external orbitals:     110 (  61  49 )

 Molecular orbitals read from record     2100.2  Type=RHF/CANONICAL (state 1.1)

 Number of N-1 electron functions:              18
 Number of N-2 electron functions:             171
 Number of singly external CSFs:              1014
 Number of doubly external CSFs:            981666
 Total number of CSFs:                      982681

 Length of J-op  integral file:               0.00 MB
 Length of K-op  integral file:               0.70 MB
 Length of 3-ext integral record:             0.00 MB

 Memory could be reduced to 16.31 Mwords without degradation in triples

 Integral transformation finished. Total CPU:   1.04 sec, npass=  1  Memory used:  10.63 MW

 Reference energy:                   -592.71189661

 MP2 singlet pair energy:              -0.53945531
 MP2 triplet pair energy:              -0.30434542
 MP2 correlation energy:               -0.84380073
 MP2 total energy:                   -593.55569734

 SCS-MP2 correlation energy:           -0.83671685   (PS=  1.200000  PT=  0.333333)
 SCS-MP2 total energy:               -593.54861346

 ITER.      SQ.NORM     CORR.ENERGY   TOTAL ENERGY   ENERGY CHANGE        DEN1      VAR(S)    VAR(P)  DIIS     TIME
   1      1.33969727    -0.91078401  -593.62268062    -0.06698328    -0.04302409  0.26D-02  0.55D-02  1  1     3.57
   2      1.36669470    -0.91613217  -593.62802878    -0.00534816    -0.02577825  0.69D-04  0.46D-03  2  2     6.16
   3      1.37202865    -0.91626017  -593.62815677    -0.00012799    -0.00303784  0.16D-04  0.28D-04  3  3     8.77
   4      1.37352203    -0.91631822  -593.62821483    -0.00005805    -0.00059399  0.76D-06  0.20D-05  4  4    11.38
   5      1.37376287    -0.91632483  -593.62822144    -0.00000661    -0.00007089  0.17D-06  0.16D-06  5  5    13.98
   6      1.37380859    -0.91632038  -593.62821699     0.00000445    -0.00001394  0.30D-07  0.14D-07  6  6    16.59
   7      1.37381620    -0.91632027  -593.62821688     0.00000011     0.00000064  0.53D-08  0.23D-08  6  2    19.21
   8      1.37382230    -0.91631996  -593.62821656     0.00000031    -0.00000125  0.73D-09  0.27D-09  6  1    21.83
   9      1.37382313    -0.91631989  -593.62821650     0.00000006     0.00000051  0.66D-10  0.44D-10  6  4    24.44
  10      1.37382401    -0.91631986  -593.62821646     0.00000003    -0.00000011  0.47D-11  0.35D-11  6  3    27.05
  11      1.37382402    -0.91631986  -593.62821647    -0.00000000     0.00000004  0.11D-11  0.54D-12  6  5    29.66
  12      1.37382399    -0.91631986  -593.62821647    -0.00000000     0.00000002  0.17D-12  0.77D-13  6  6    32.27
  13      1.37382394    -0.91631986  -593.62821647    -0.00000000     0.00000002  0.24D-13  0.10D-13  6  1    34.88
  14      1.37382393    -0.91631986  -593.62821647    -0.00000000     0.00000000  0.31D-14  0.12D-14  6  2    37.49
  15      1.37382393    -0.91631986  -593.62821647     0.00000000    -0.00000000  0.67D-15  0.30D-15  6  4    40.10
  16      1.37382393    -0.91631986  -593.62821647     0.00000000    -0.00000000  0.32D-16  0.23D-16  6  5    42.71
  17      1.37382393    -0.91631986  -593.62821647     0.00000000    -0.00000000  0.56D-17  0.24D-17  6  3    45.32
  18      1.37382393    -0.91631986  -593.62821647     0.00000000    -0.00000000  0.18D-17  0.48D-18  6  6    47.94
  19      1.37382393    -0.91631986  -593.62821647     0.00000000    -0.00000000  0.37D-18  0.11D-18  6  1    50.55
  20      1.37382393    -0.91631986  -593.62821647     0.00000000     0.00000000  0.45D-19  0.17D-19  6  2    53.17
  21      1.37382393    -0.91631986  -593.62821647    -0.00000000     0.00000000  0.80D-20  0.34D-20  6  4    55.78

 Norm of t1 vector:      0.07015373      S-energy:    -0.00000000      T1 diagnostic:  0.00826770
                                                                       D1 diagnostic:  0.02109084


 Total CPU time for triples:     49.13 sec


 RESULTS
 =======

  Reference energy                   -592.711896607444
  CCSD singlet pair energy             -0.634215507626
  CCSD triplet pair energy             -0.282104356666
  CCSD correlation energy              -0.916319864294

  Triples (T) contribution             -0.029864860213
  Total correlation energy             -0.946184724506

  CCSD total energy                  -593.628216471738
  CCSD[T] energy                     -593.658700734650
  CCSD-T energy                      -593.657770158929
 !CCSD(T) total energy               -593.658081331950

 Timing summary (sec):

 STEP                 CPU(USER)    SYS     CPU(TOT)    WALL
 Transformation          1.09      0.13      1.22      1.23
 CCSD iterations        54.69      1.48     56.17     56.27
 Triples                49.13      1.22     50.35     50.35

 Program statistics:

 Available memory in ccsd:               999998604
 Min. memory needed in ccsd:               2548392
 Max. memory used in ccsd:                 3412984
 Max. memory used in cckext:               3730705 (21 integral passes)



 **********************************************************************************************************************************
 DATASETS  * FILE   NREC   LENGTH (MB)   RECORD NAMES
              1      20      256.21       500      610      700      900      950      970     1000      129      960     1100   
                                          VAR    BASINP    GEOM    SYMINP    ZMAT    AOBASIS   BASIS     P2S    ABASIS      S 
                                         1400     1410     1200     1210     1080     1600     1650     1300     1700     1380   
                                           T        V       H0       H01     AOSYM     SMH    MOLCAS    ERIS     OPER     JKOP   

              2       3        0.73       700     1000     2100   
                                         GEOM     BASIS     RHF  

 PROGRAMS   *        TOTAL   CCSD(T)       RHF       INT
 CPU TIMES  *       111.33    104.92      2.23      4.12
 REAL TIME  *       115.26 SEC
 DISK USED  *       681.26 MB      
 GA USED    *         0.00 MB       (max)       0.00 MB       (current)
 **********************************************************************************************************************************

        CCSD(T)         RHF-SCF 
   -593.65808133   -592.71189661
 **********************************************************************************************************************************
 Variable memory released
