
 Primary working directories    : /tmp/1047041.612.gen4.q
 Secondary working directories  : /tmp/1047041.612.gen4.q
 Wavefunction directory         : /home/vulcan/mel64643/wfu/
 Main file repository           : /tmp/1047041.612.gen4.q/

 ARCHNAME  : Linux/x86_64
 FC        : /opt/intel/compilers_and_libraries_2016.1.150/linux/bin/intel64/ifort
 FCVERSION : 16.0.1
 BLASLIB   : -mkl
 id        : ccgc

 Nodes     nprocs
 n062         1
 ga_uses_ma=false, calling ma_init with nominal heap.
 GA-space will be limited to   8.0 MW (determined by -G option)

 Using customized tuning parameters: mindgm=10; mindgv=16; mindgc=4; mindgr=1; noblas=0; mincuda=1000; minvec=7
 default implementation of scratch files=df  

 ***,Optimization of ben_hcn
 memory,1000,m
 gthresh,energy=1.0d-12,orbital=1.0d-10,oneint=1.0d-16,twoint=1.0d-16,optgrad=1.0d-6,compress=1.0d-13
 geomtyp=xyz
 
 
 
 bohr
 geometry = {
  C   -1.8815780416    1.3687650689    2.2849712858
  C   -1.8576373439    2.6895411823   -0.0048985325
  C   -1.8780523713    1.3670045140   -2.2937710265
  C   -1.9157629239   -1.2761922949   -2.2926755110
  C   -1.9462975924   -2.5966749407   -0.0029509185
  C   -1.9324832103   -1.2742296769    2.2858151231
  H   -1.8547457449    2.3959410101    4.0631868748
  H   -1.8175879184    4.7400207158   -0.0056675752
  H   -1.8586640513    2.3886789417   -4.0652534422
  H   -1.9148982559   -2.2980483141   -4.0607999637
  H   -1.9739430713   -4.6415352156   -0.0021590814
  H   -1.9548979075   -2.2987720837    4.0622523840
  N    6.6241515380   -0.1992042049    0.0070948509
  C    4.4344400913   -0.0762387221    0.0097044219
  H    2.4147580503    0.0374675682    0.0122516245
 }
 
 basis=aug-cc-pvdz, H=cc-pvdz
 {rhf;maxit,200}
 {ccsd(t)}

 Variables initialized (661), CPU time= 0.01 sec
 Commands  initialized (458), CPU time= 0.00 sec, 486 directives.
 Default parameters read. Elapsed time= 0.05 sec

 Checking input...
 Passed
1


                                         ***  PROGRAM SYSTEM MOLPRO  ***
                         Copyright, University College Cardiff Consultants Limited, 2008

                                    Version 2010.1 linked May 16 2016 07:17:05


 **********************************************************************************************************************************
 LABEL *   Optimization of ben_hcn                                                       
 Linux-4.4.3/n062(x86_64) 64 bit mpp version                                             DATE: 07-Mar-24          TIME: 22:04:52  
 **********************************************************************************************************************************

 SHA1:             9e8077add272b0f3cad6f7df79ec5211205f459d
 **********************************************************************************************************************************

 THRESHOLDS:

 ZERO    =  1.00D-12  ONEINT  =  1.00D-16  TWOINT  =  1.00D-16  PREFAC  =  1.00D-14  LOCALI  =  1.00D-09  EORDER  =  1.00D-04
 ENERGY  =  1.00D-12  ETEST   =  0.00D+00  EDENS   =  0.00D+00  THRDEDEF=  1.00D-06  GRADIENT=  1.00D-02  STEP    =  1.00D-03
 ORBITAL =  1.00D-10  CIVEC   =  1.00D-05  COEFF   =  1.00D-04  PRINTCI =  5.00D-02  PUNCHCI =  9.90D+01  OPTGRAD =  1.00D-06
 OPTENERG=  1.00D-06  OPTSTEP =  3.00D-04  THRGRAD =  1.00D-10  COMPRESS=  1.00D-13  VARMIN  =  1.00D-07  VARMAX  =  1.00D-03
 THRDOUB =  0.00D+00  THRDIV  =  1.00D-05  THRRED  =  1.00D-07  THRPSP  =  1.00D+00  THRDC   =  1.00D-10  THRCS   =  1.00D-10
 THRNRM  =  1.00D-08  THREQ   =  0.00D+00  THRDE   =  1.00D+00  THRREF  =  1.00D-05  SPARFAC =  1.00D+00  THRDLP  =  1.00D-07
 THRDIA  =  1.00D-10  THRDLS  =  1.00D-07  THRGPS  =  0.00D+00  THRKEX  =  0.00D+00  THRDIS  =  2.00D-01  THRVAR  =  1.00D-10
 THRLOC  =  1.00D-06  THRGAP  =  1.00D-06  THRLOCT = -1.00D+00  THRGAPT = -1.00D+00  THRORB  =  1.00D-06  THRMLTP =  0.00D+00
 THRCPQCI=  1.00D-10  KEXTA   =  0.00D+00  THRCOARS=  0.00D+00  SYMTOL  =  1.00D-06  GRADTOL =  1.00D-06  THROVL  =  1.00D-08
 THRORTH =  1.00D-08  GRID    =  1.00D-06  GRIDMAX =  1.00D-03  DTMAX   =  0.00D+00

 SETTING GEOMTYP        =    XYZ
 ZUNIT=BOHR
 

 Variable memory set to 1000000000 words,  buffer space   230000 words

 SETTING BASIS          =    AUG-CC-PVDZ,H=CC-PVDZ


 Recomputing integrals since basis changed


 Using spherical harmonics

 Library entry C      S aug-cc-pVDZ          selected for orbital group  1
 Library entry C      P aug-cc-pVDZ          selected for orbital group  1
 Library entry C      D aug-cc-pVDZ          selected for orbital group  1
 Library entry H      S cc-pVDZ              selected for orbital group  2
 Library entry H      P cc-pVDZ              selected for orbital group  2
 Library entry N      S aug-cc-pVDZ          selected for orbital group  3
 Library entry N      P aug-cc-pVDZ          selected for orbital group  3
 Library entry N      D aug-cc-pVDZ          selected for orbital group  3

1PROGRAM * SEWARD (Integral evaluation for generally contracted gaussian basis sets)     Author: Roland Lindh, 1990

 Geometry written to block  1 of record 700


 Point group  C1  



 ATOMIC COORDINATES

 NR  ATOM    CHARGE       X              Y              Z

   1  C       6.00   -1.881578042    1.368765069    2.284971286
   2  C       6.00   -1.857637344    2.689541182   -0.004898533
   3  C       6.00   -1.878052371    1.367004514   -2.293771026
   4  C       6.00   -1.915762924   -1.276192295   -2.292675511
   5  C       6.00   -1.946297592   -2.596674941   -0.002950919
   6  C       6.00   -1.932483210   -1.274229677    2.285815123
   7  H       1.00   -1.854745745    2.395941010    4.063186875
   8  H       1.00   -1.817587918    4.740020716   -0.005667575
   9  H       1.00   -1.858664051    2.388678942   -4.065253442
  10  H       1.00   -1.914898256   -2.298048314   -4.060799964
  11  H       1.00   -1.973943071   -4.641535216   -0.002159081
  12  H       1.00   -1.954897907   -2.298772084    4.062252384
  13  N       7.00    6.624151538   -0.199204205    0.007094851
  14  C       6.00    4.434440091   -0.076238722    0.009704422
  15  H       1.00    2.414758050    0.037467568    0.012251625

 Bond lengths in Bohr (Angstrom)

 1-2  2.643582131  1-6  2.643485062  1-7  2.053743184  2-3  2.643569047  2-8  2.050870758
     ( 1.398923414)     ( 1.398872047)     ( 1.086794086)     ( 1.398916490)     ( 1.085274064)

  3- 4  2.643466031   3- 9  2.045078114   4- 5  2.643377668   4-10  2.042169080   5- 6  2.643388414
       ( 1.398861976)       ( 1.082208729)       ( 1.398815216)       ( 1.080669334)       ( 1.398820903)

  5-11  2.045047296   6-12  2.050833709  13-14  2.193162908  14-15  2.022881894
       ( 1.082192420)       ( 1.085254459)       ( 1.160571826)       ( 1.070462995)

 Bond angles

  1- 2- 3  119.99725940   1- 2- 8  120.00148343   1- 6- 5  120.00103076   1- 6-12  119.99787793

  2-1-6  119.99829945   2-1-7  119.99940271   2-3-4  119.99900196   2-3-9  119.99935225

  3- 2- 8  120.00100690   3- 4- 5  120.00109724   3- 4-10  119.99748349   4- 3- 9  120.00136032

  4- 5- 6  120.00207456   4- 5-11  119.99930932   5- 4-10  120.00109365   5- 6-12  120.00077308

  6- 1- 7  120.00202633   6- 5-11  119.99826456  13-14-15  179.99091354

 NUCLEAR CHARGE:                   56
 NUMBER OF PRIMITIVE AOS:         345
 NUMBER OF SYMMETRY AOS:          329
 NUMBER OF CONTRACTIONS:          219   ( 219A   )
 NUMBER OF CORE ORBITALS:           8   (   8A   )
 NUMBER OF VALENCE ORBITALS:       39   (  39A   )


 NUCLEAR REPULSION ENERGY  303.39354832


 Eigenvalues of metric

         1 0.865E-05 0.186E-04 0.229E-04 0.534E-04 0.630E-04 0.631E-04 0.927E-04 0.931E-04


 Contracted 2-electron integrals neglected if value below      1.0D-16
 AO integral compression algorithm  1   Integral accuracy      1.0D-16

     2340.159 MB (compressed) written to integral file ( 91.2%)

     Node minimum: 2340.159 MB, node maximum: 2340.159 MB


 NUMBER OF SORTED TWO-ELECTRON INTEGRALS:  290176095.     BUFFER LENGTH:  32768
 NUMBER OF SEGMENTS:  19  SEGMENT LENGTH:   15999762      RECORD LENGTH: 524288

 Memory used in sort:      16.56 MW

 SORT1 READ   320642736. AND WROTE   287601077. INTEGRALS IN    832 RECORDS. CPU TIME:     3.29 SEC, REAL TIME:     5.86 SEC
 SORT2 READ   287601077. AND WROTE   290176095. INTEGRALS IN   8927 RECORDS. CPU TIME:     1.90 SEC, REAL TIME:     3.12 SEC

 FILE SIZES:   FILE 1:  2151.2 MBYTE,  FILE 4:  3489.7 MBYTE,   TOTAL:   5640.9 MBYTE

 OPERATOR DM      FOR CENTER  0  COORDINATES:    0.000000    0.000000    0.000000


 **********************************************************************************************************************************
 DATASETS  * FILE   NREC   LENGTH (MB)   RECORD NAMES
              1      19     2151.78       500      610      700      900      950      970     1000      129      960     1100   
                                          VAR    BASINP    GEOM    SYMINP    ZMAT    AOBASIS   BASIS     P2S    ABASIS      S 
                                         1400     1410     1200     1210     1080     1600     1650     1300     1700   
                                           T        V       H0       H01     AOSYM     SMH    MOLCAS    ERIS     OPER   

 PROGRAMS   *        TOTAL       INT
 CPU TIMES  *        18.33     18.28
 REAL TIME  *        23.87 SEC
 DISK USED  *         7.98 GB      
 GA USED    *         0.01 MB       (max)       0.00 MB       (current)
 **********************************************************************************************************************************

1PROGRAM * RHF-SCF (CLOSED SHELL)       Authors: W. Meyer, H.-J. Werner


 NUMBER OF ELECTRONS:      28+   28-    SPACE SYMMETRY=1    SPIN SYMMETRY: Singlet 
 CONVERGENCE THRESHOLDS:    1.00E-10 (Density)    1.00E-13 (Energy)
 MAX. NUMBER OF ITERATIONS:      200
 INTERPOLATION TYPE:            DIIS
 INTERPOLATION STEPS:              2 (START)      1 (STEP)
 LEVEL SHIFTS:                  0.00 (CLOSED)  0.00 (OPEN) 



 Orbital guess generated from atomic densities. Full valence occupancy:   47

 Molecular orbital dump at record        2100.2

 ITERATION    DDIFF          GRAD             ENERGY        2-EL.EN.            DIPOLE MOMENTS         DIIS
    1      0.000D+00      0.000D+00      -323.54136032    822.123931   -1.89876    0.10661    0.00908    0
    2      0.000D+00      0.292D-02      -323.59780085    819.103524   -1.36879    0.04799   -0.00390    1
    3      0.781D-02      0.179D-02      -323.61439732    820.248674   -1.72961    0.07866    0.00004    2
    4      0.260D-02      0.576D-03      -323.61673372    820.450369   -1.63888    0.07120   -0.00067    3
    5      0.963D-03      0.133D-03      -323.61686306    820.190386   -1.66282    0.07165   -0.00116    4
    6      0.223D-03      0.229D-04      -323.61686919    820.217244   -1.66417    0.07165   -0.00109    5
    7      0.845D-04      0.434D-05      -323.61686939    820.212369   -1.66452    0.07154   -0.00117    6
    8      0.108D-04      0.124D-05      -323.61686941    820.213349   -1.66483    0.07163   -0.00111    7
    9      0.345D-05      0.281D-06      -323.61686941    820.213396   -1.66480    0.07156   -0.00116    6
   10      0.823D-06      0.102D-06      -323.61686941    820.213363   -1.66480    0.07160   -0.00113    6
   11      0.206D-06      0.409D-07      -323.61686941    820.213385   -1.66481    0.07159   -0.00114    7
   12      0.106D-06      0.868D-08      -323.61686941    820.213376   -1.66480    0.07159   -0.00114    7
   13      0.270D-07      0.351D-08      -323.61686941    820.213381   -1.66480    0.07159   -0.00114    7
   14      0.805D-08      0.104D-08      -323.61686941    820.213379   -1.66480    0.07159   -0.00114    8
   15      0.230D-08      0.220D-09      -323.61686941    820.213379   -1.66480    0.07159   -0.00114    8
   16      0.784D-09      0.108D-09      -323.61686941    820.213379   -1.66480    0.07159   -0.00114    7
   17      0.415D-09      0.523D-10      -323.61686941    820.213379   -1.66480    0.07159   -0.00114    7
   18      0.238D-09      0.254D-10      -323.61686941    820.213379   -1.66480    0.07159   -0.00114    8
   19      0.229D-09      0.830D-11      -323.61686941    820.213379   -1.66480    0.07159   -0.00114    8
   20      0.239D-09      0.330D-11      -323.61686941    820.213379   -1.66480    0.07159   -0.00114    9
   21      0.888D-10      0.874D-12      -323.61686941    820.213379   -1.66480    0.07159   -0.00114    9
   22      0.109D-09      0.697D-12      -323.61686941    820.213379   -1.66480    0.07159   -0.00114    9
   23      0.697D-10      0.514D-12      -323.61686941    820.213379   -1.66480    0.07159   -0.00114    9
   24      0.475D-10      0.551D-12      -323.61686941    820.213379   -1.66480    0.07159   -0.00114    9
   25      0.320D-10      0.438D-12      -323.61686941    820.213379   -1.66480    0.07159   -0.00114    9
   26      0.237D-10      0.431D-12      -323.61686941    820.213379   -1.66480    0.07159   -0.00114    9
   27      0.233D-10      0.436D-12      -323.61686941    820.213379   -1.66480    0.07159   -0.00114    9
   28      0.176D-10      0.416D-12      -323.61686941    820.213379   -1.66480    0.07159   -0.00114    9
   29      0.134D-10      0.421D-12      -323.61686941    820.213379   -1.66480    0.07159   -0.00114    9
   30      0.114D-10      0.417D-12      -323.61686941    820.213379   -1.66480    0.07159   -0.00114    9
   31      0.105D-10      0.482D-12      -323.61686941    820.213379   -1.66480    0.07159   -0.00114    9
   32      0.773D-11      0.390D-12      -323.61686941    820.213379   -1.66480    0.07159   -0.00114    9
   33      0.143D-10      0.464D-12      -323.61686941    820.213379   -1.66480    0.07159   -0.00114    9
   34      0.836D-11      0.490D-12      -323.61686941    820.213379   -1.66480    0.07159   -0.00114    9
   35      0.180D-10      0.472D-12      -323.61686941    820.213379   -1.66480    0.07159   -0.00114    9
   36      0.218D-10      0.452D-12      -323.61686941    820.213379   -1.66480    0.07159   -0.00114    9
   37      0.127D-10      0.494D-12      -323.61686941    820.213379   -1.66480    0.07159   -0.00114    9
   38      0.251D-10      0.420D-12      -323.61686941    820.213379   -1.66480    0.07159   -0.00114    9
   39      0.230D-10      0.462D-12      -323.61686941    820.213379   -1.66480    0.07159   -0.00114    9
   40      0.277D-10      0.372D-12      -323.61686941    820.213379   -1.66480    0.07159   -0.00114    9
   41      0.143D-10      0.430D-12      -323.61686941    820.213379   -1.66480    0.07159   -0.00114    9
   42      0.236D-10      0.475D-12      -323.61686941    820.213379   -1.66480    0.07159   -0.00114    9
   43      0.133D-10      0.455D-12      -323.61686941    820.213379   -1.66480    0.07159   -0.00114    9
   44      0.535D-11      0.451D-12      -323.61686941    820.213379   -1.66480    0.07159   -0.00114    0

 Final occupancy:  28

 !RHF STATE 1.1 Energy               -323.616869408623
 Nuclear energy                       303.39354832
 One-electron energy                -1037.11710733
 Two-electron energy                  410.10668960
 Virial quotient                       -1.00170983
 !RHF STATE 1.1 Dipole moment          -1.66480330     0.07158787    -0.00113641
 Dipole moment /Debye                  -4.23123077     0.18194630    -0.00288827

 Orbital energies:

         1.1          2.1          3.1          4.1          5.1          6.1          7.1          8.1          9.1         10.1
    -15.591649   -11.283865   -11.266365   -11.265734   -11.265611   -11.264595   -11.264481   -11.263815    -1.218336    -1.173918

        11.1         12.1         13.1         14.1         15.1         16.1         17.1         18.1         19.1         20.1
     -1.037790    -1.037785    -0.845722    -0.845718    -0.789909    -0.729362    -0.664879    -0.639191    -0.608563    -0.608558

        21.1         22.1         23.1         24.1         25.1         26.1         27.1         28.1         29.1         30.1
     -0.565229    -0.520406    -0.514854    -0.514820    -0.475692    -0.475686    -0.359682    -0.359649     0.055869     0.060081


 **********************************************************************************************************************************
 DATASETS  * FILE   NREC   LENGTH (MB)   RECORD NAMES
              1      19     2151.78       500      610      700      900      950      970     1000      129      960     1100   
                                          VAR    BASINP    GEOM    SYMINP    ZMAT    AOBASIS   BASIS     P2S    ABASIS      S 
                                         1400     1410     1200     1210     1080     1600     1650     1300     1700   
                                           T        V       H0       H01     AOSYM     SMH    MOLCAS    ERIS     OPER   

              2       3        1.49       700     1000     2100   
                                         GEOM     BASIS     RHF  

 PROGRAMS   *        TOTAL       RHF       INT
 CPU TIMES  *       117.34     99.02     18.28
 REAL TIME  *       133.02 SEC
 DISK USED  *         7.98 GB      
 GA USED    *         0.01 MB       (max)       0.00 MB       (current)
 **********************************************************************************************************************************


1PROGRAM * CCSD (Closed-shell coupled cluster)     Authors: C. Hampel, H.-J. Werner, 1991, M. Deegan, P.J. Knowles, 1992


 Convergence thresholds:  THRVAR = 1.00D-08  THRDEN = 1.00D-12

 CCSD(T)     terms to be evaluated (factor= 1.000)


 Number of core orbitals:           8 (   8 )
 Number of closed-shell orbitals:  20 (  20 )
 Number of external orbitals:     191 ( 191 )

 Molecular orbitals read from record     2100.2  Type=RHF/CANONICAL (state 1.1)

 Number of N-1 electron functions:              20
 Number of N-2 electron functions:             210
 Number of singly external CSFs:              3820
 Number of doubly external CSFs:           7298110
 Total number of CSFs:                     7301931

 Length of J-op  integral file:               0.00 MB
 Length of K-op  integral file:               3.32 MB
 Length of 3-ext integral record:             0.00 MB

 Memory could be reduced to 174.82 Mwords without degradation in triples

 Integral transformation finished. Total CPU:  19.06 sec, npass=  1  Memory used: 128.13 MW

 Reference energy:                   -323.61686941

 MP2 singlet pair energy:              -0.67334343
 MP2 triplet pair energy:              -0.43519829
 MP2 correlation energy:               -1.10854171
 MP2 total energy:                   -324.72541112

 SCS-MP2 correlation energy:           -1.07880216   (PS=  1.200000  PT=  0.333333)
 SCS-MP2 total energy:               -324.69567157

 ITER.      SQ.NORM     CORR.ENERGY   TOTAL ENERGY   ENERGY CHANGE        DEN1      VAR(S)    VAR(P)  DIIS     TIME
   1      1.42873368    -1.14462381  -324.76149322    -0.03608210    -0.00288966  0.51D-02  0.99D-02  1  1    71.12
   2      1.46305642    -1.15049732  -324.76736673    -0.00587351    -0.03103169  0.83D-04  0.13D-02  2  2   123.71
   3      1.47634806    -1.15094501  -324.76781442    -0.00044769    -0.00655939  0.40D-04  0.12D-03  3  3   176.28
   4      1.48204025    -1.15119471  -324.76806412    -0.00024970    -0.00178583  0.22D-05  0.15D-04  4  4   228.89
   5      1.48356969    -1.15123041  -324.76809981    -0.00003569    -0.00036591  0.25D-06  0.14D-05  5  5   281.53
   6      1.48387592    -1.15122189  -324.76809130     0.00000852    -0.00005026  0.24D-07  0.91D-07  6  6   334.21
   7      1.48391071    -1.15122530  -324.76809471    -0.00000341    -0.00000225  0.34D-08  0.80D-08  6  2   386.85
   8      1.48391539    -1.15122565  -324.76809506    -0.00000036    -0.00000042  0.41D-09  0.83D-09  6  1   439.52
   9      1.48391561    -1.15122582  -324.76809523    -0.00000017     0.00000079  0.63D-10  0.78D-10  6  3   492.18
  10      1.48391599    -1.15122588  -324.76809529    -0.00000006     0.00000002  0.10D-10  0.99D-11  6  4   544.79
  11      1.48391572    -1.15122592  -324.76809533    -0.00000004     0.00000022  0.17D-11  0.14D-11  6  5   597.41
  12      1.48391555    -1.15122593  -324.76809534    -0.00000001     0.00000008  0.25D-12  0.27D-12  6  6   650.04
  13      1.48391542    -1.15122593  -324.76809534    -0.00000000     0.00000005  0.14D-13  0.52D-13  6  2   702.69
  14      1.48391535    -1.15122593  -324.76809534    -0.00000000     0.00000002  0.22D-14  0.94D-14  6  1   755.33
  15      1.48391533    -1.15122593  -324.76809534     0.00000000     0.00000001  0.47D-15  0.13D-14  6  3   807.98
  16      1.48391532    -1.15122593  -324.76809534    -0.00000000     0.00000000  0.10D-15  0.19D-15  6  4   860.60
  17      1.48391531    -1.15122593  -324.76809534    -0.00000000     0.00000000  0.19D-16  0.28D-16  6  5   913.23
  18      1.48391531    -1.15122593  -324.76809534    -0.00000000     0.00000000  0.37D-17  0.36D-17  6  6   965.84
  19      1.48391531    -1.15122593  -324.76809534    -0.00000000     0.00000000  0.84D-18  0.61D-18  6  2  1018.50
  20      1.48391531    -1.15122593  -324.76809534    -0.00000000     0.00000000  0.18D-18  0.13D-18  6  1  1071.15
  21      1.48391531    -1.15122593  -324.76809534    -0.00000000     0.00000000  0.66D-19  0.39D-19  6  3  1123.77
  22      1.48391531    -1.15122593  -324.76809534     0.00000000     0.00000000  0.30D-19  0.17D-19  6  4  1176.43

 Norm of t1 vector:      0.09773695      S-energy:     0.00000000      T1 diagnostic:  0.01092732
                                                                       D1 diagnostic:  0.02771770

 Doubles amplitudes (print threshold =  0.500E-01):

         I         J         SYM. A    SYM. B    A         B      T(IJ, AB)

        19        19         1         1         8         8     -0.06082223
        20        20         1         1         7         7     -0.06089325


 Total CPU time for triples:   1081.76 sec


 RESULTS
 =======

  Reference energy                   -323.616869408624
  CCSD singlet pair energy             -0.770020544843
  CCSD triplet pair energy             -0.381205388556
  CCSD correlation energy              -1.151225933399

  Triples (T) contribution             -0.054015694885
  Total correlation energy             -1.205241628284

  CCSD total energy                  -324.768095342023
  CCSD[T] energy                     -324.823443357409
  CCSD-T energy                      -324.821505557440
 !CCSD(T) total energy               -324.822111036908

 Timing summary (sec):

 STEP                 CPU(USER)    SYS     CPU(TOT)    WALL
 Transformation         19.61      1.07     20.68     20.69
 CCSD iterations      1156.85     14.63   1171.48   1171.67
 Triples              1081.76     15.41   1097.17   1097.32

 Program statistics:

 Available memory in ccsd:               999998300
 Min. memory needed in ccsd:              17709720
 Max. memory used in ccsd:                24415330
 Max. memory used in cckext:              20754978 (22 integral passes)



 **********************************************************************************************************************************
 DATASETS  * FILE   NREC   LENGTH (MB)   RECORD NAMES
              1      20     2833.95       500      610      700      900      950      970     1000      129      960     1100   
                                          VAR    BASINP    GEOM    SYMINP    ZMAT    AOBASIS   BASIS     P2S    ABASIS      S 
                                         1400     1410     1200     1210     1080     1600     1650     1300     1700     1380   
                                           T        V       H0       H01     AOSYM     SMH    MOLCAS    ERIS     OPER     JKOP   

              2       3        1.49       700     1000     2100   
                                         GEOM     BASIS     RHF  

 PROGRAMS   *        TOTAL   CCSD(T)       RHF       INT
 CPU TIMES  *      2375.58   2258.23     99.02     18.28
 REAL TIME  *      2422.84 SEC
 DISK USED  *         7.98 GB      
 GA USED    *         0.01 MB       (max)       0.00 MB       (current)
 **********************************************************************************************************************************

        CCSD(T)         RHF-SCF 
   -324.82211104   -323.61686941
 **********************************************************************************************************************************
 Variable memory released
