
 Primary working directories    : /tmp/856074.317.gen4.q
 Secondary working directories  : /tmp/856074.317.gen4.q
 Wavefunction directory         : /home/vulcan/lo21740/wfu/
 Main file repository           : /tmp/856074.317.gen4.q/

 ARCHNAME  : Linux/x86_64
 FC        : /opt/intel/compilers_and_libraries_2016.1.150/linux/bin/intel64/ifort
 FCVERSION : 16.0.1
 BLASLIB   : -mkl
 id        : ccgc

 Nodes     nprocs
 n054         1
 ga_uses_ma=false, calling ma_init with nominal heap.
 GA-space will be limited to   8.0 MW (determined by -G option)

 Using customized tuning parameters: mindgm=10; mindgv=16; mindgc=4; mindgr=1; noblas=0; mincuda=1000; minvec=7
 default implementation of scratch files=df  

 ***,Optimization of h2o_2
 memory,1000,m
 gthresh,energy=1.0d-12,orbital=1.0d-10,oneint=1.0d-16,twoint=1.0d-16,optgrad=1.0d-6,compress=1.0d-13
 geomtyp=xyz
 
 bohr
 geometry = {
  C    0.0015461692   -3.4217496375    0.0000000000
  H   -0.9712505666   -2.7300815700   -1.6818204025
  H   -0.9712505666   -2.7300815700    1.6818204025
  H    1.9386395343   -2.7359396227    0.0000000000
  H    0.0041110032   -5.4815623181    0.0000000000
  C   -0.0008723795    3.4217473655   -0.0000000000
  H   -0.0039002365    5.4815592007   -0.0000000000
  H    0.9703477815    2.7326534593   -1.6828776722
  H    0.9703477815    2.7326534593    1.6828776722
  H   -1.9377185207    2.7308012336   -0.0000000000
 }
 
 basis=VDZ
 {rhf;maxit,200}
 {ccsd(t);maxit,200}

 Variables initialized (661), CPU time= 0.01 sec
 Commands  initialized (458), CPU time= 0.00 sec, 486 directives.
 Default parameters read. Elapsed time= 0.04 sec

 Checking input...
 Passed
1


                                         ***  PROGRAM SYSTEM MOLPRO  ***
                         Copyright, University College Cardiff Consultants Limited, 2008

                                    Version 2010.1 linked May 16 2016 07:17:05


 **********************************************************************************************************************************
 LABEL *   Optimization of h2o_2                                                         
 Linux-4.4.3/n054(x86_64) 64 bit mpp version                                             DATE: 12-Apr-23          TIME: 13:48:35  
 **********************************************************************************************************************************

 SHA1:             9e8077add272b0f3cad6f7df79ec5211205f459d
 **********************************************************************************************************************************

 THRESHOLDS:

 ZERO    =  1.00D-12  ONEINT  =  1.00D-16  TWOINT  =  1.00D-16  PREFAC  =  1.00D-14  LOCALI  =  1.00D-09  EORDER  =  1.00D-04
 ENERGY  =  1.00D-12  ETEST   =  0.00D+00  EDENS   =  0.00D+00  THRDEDEF=  1.00D-06  GRADIENT=  1.00D-02  STEP    =  1.00D-03
 ORBITAL =  1.00D-10  CIVEC   =  1.00D-05  COEFF   =  1.00D-04  PRINTCI =  5.00D-02  PUNCHCI =  9.90D+01  OPTGRAD =  1.00D-06
 OPTENERG=  1.00D-06  OPTSTEP =  3.00D-04  THRGRAD =  1.00D-10  COMPRESS=  1.00D-13  VARMIN  =  1.00D-07  VARMAX  =  1.00D-03
 THRDOUB =  0.00D+00  THRDIV  =  1.00D-05  THRRED  =  1.00D-07  THRPSP  =  1.00D+00  THRDC   =  1.00D-10  THRCS   =  1.00D-10
 THRNRM  =  1.00D-08  THREQ   =  0.00D+00  THRDE   =  1.00D+00  THRREF  =  1.00D-05  SPARFAC =  1.00D+00  THRDLP  =  1.00D-07
 THRDIA  =  1.00D-10  THRDLS  =  1.00D-07  THRGPS  =  0.00D+00  THRKEX  =  0.00D+00  THRDIS  =  2.00D-01  THRVAR  =  1.00D-10
 THRLOC  =  1.00D-06  THRGAP  =  1.00D-06  THRLOCT = -1.00D+00  THRGAPT = -1.00D+00  THRORB  =  1.00D-06  THRMLTP =  0.00D+00
 THRCPQCI=  1.00D-10  KEXTA   =  0.00D+00  THRCOARS=  0.00D+00  SYMTOL  =  1.00D-06  GRADTOL =  1.00D-06  THROVL  =  1.00D-08
 THRORTH =  1.00D-08  GRID    =  1.00D-06  GRIDMAX =  1.00D-03  DTMAX   =  0.00D+00

 SETTING GEOMTYP        =    XYZ
 ZUNIT=BOHR
 

 Variable memory set to 1000000000 words,  buffer space   230000 words

 SETTING BASIS          =    VDZ


 Recomputing integrals since basis changed


 Using spherical harmonics

 Library entry C      S cc-pVDZ              selected for orbital group  1
 Library entry C      P cc-pVDZ              selected for orbital group  1
 Library entry C      D cc-pVDZ              selected for orbital group  1
 Library entry H      S cc-pVDZ              selected for orbital group  2
 Library entry H      P cc-pVDZ              selected for orbital group  2

1PROGRAM * SEWARD (Integral evaluation for generally contracted gaussian basis sets)     Author: Roland Lindh, 1990

 Geometry written to block  1 of record 700


 Point group  Cs  



 ATOMIC COORDINATES

 NR  ATOM    CHARGE       X              Y              Z

   1  C       6.00    0.001546169   -3.421749638    0.000000000
   2  H       1.00   -0.971250567   -2.730081570   -1.681820403
   3  H       1.00   -0.971250567   -2.730081570    1.681820403
   4  H       1.00    1.938639534   -2.735939623    0.000000000
   5  H       1.00    0.004111003   -5.481562318    0.000000000
   6  C       6.00   -0.000872380    3.421747365    0.000000000
   7  H       1.00   -0.003900236    5.481559201    0.000000000
   8  H       1.00    0.970347782    2.732653459   -1.682877672
   9  H       1.00    0.970347782    2.732653459    1.682877672
  10  H       1.00   -1.937718521    2.730801234    0.000000000

 Bond lengths in Bohr (Angstrom)

 1-2  2.062342860  1-3  2.062342860  1-4  2.054912670  1-5  2.059814277  6-7  2.059814061
     ( 1.091344839)     ( 1.091344839)     ( 1.087412951)     ( 1.090006770)     ( 1.090006656)

  6- 8  2.061600415   6- 9  2.061600415   6-10  2.056399653
       ( 1.090951954)       ( 1.090951954)       ( 1.088199829)

 Bond angles

  2-1-3  109.27172234   2-1-4  109.43394691   2-1-5  109.63134236   3-1-4  109.43394691

  3-1-5  109.63134236   4-1-5  109.42469513   7-6-8  109.56913657   7-6-9  109.56913657

  7- 6-10  109.54901320   8- 6- 9  109.43156373   8- 6-10  109.35399305   9- 6-10  109.35399305

 NUCLEAR CHARGE:                   20
 NUMBER OF PRIMITIVE AOS:         110
 NUMBER OF SYMMETRY AOS:          108
 NUMBER OF CONTRACTIONS:           68   (  46A'  +  22A"  )
 NUMBER OF CORE ORBITALS:           2   (   2A'  +   0A"  )
 NUMBER OF VALENCE ORBITALS:       16   (  12A'  +   4A"  )


 NUCLEAR REPULSION ENERGY   41.34200303


 Eigenvalues of metric

         1 0.113E-01 0.127E-01 0.347E-01 0.356E-01 0.375E-01 0.382E-01 0.414E-01 0.510E-01
         2 0.349E-01 0.385E-01 0.560E-01 0.581E-01 0.127E+00 0.144E+00 0.291E+00 0.291E+00


 Contracted 2-electron integrals neglected if value below      1.0D-16
 AO integral compression algorithm  1   Integral accuracy      1.0D-16

     11.796 MB (compressed) written to integral file ( 91.2%)

     Node minimum: 11.796 MB, node maximum: 11.796 MB


 NUMBER OF SORTED TWO-ELECTRON INTEGRALS:    1437431.     BUFFER LENGTH:  32768
 NUMBER OF SEGMENTS:   1  SEGMENT LENGTH:    1437431      RECORD LENGTH: 524288

 Memory used in sort:       1.99 MW

 SORT1 READ     1639638. AND WROTE     1408351. INTEGRALS IN      5 RECORDS. CPU TIME:     0.02 SEC, REAL TIME:     0.04 SEC
 SORT2 READ     1408351. AND WROTE     1437431. INTEGRALS IN     45 RECORDS. CPU TIME:     0.03 SEC, REAL TIME:     0.03 SEC

 FILE SIZES:   FILE 1:    13.1 MBYTE,  FILE 4:    21.0 MBYTE,   TOTAL:     34.1 MBYTE

 OPERATOR DM      FOR CENTER  0  COORDINATES:    0.000000    0.000000    0.000000


 **********************************************************************************************************************************
 DATASETS  * FILE   NREC   LENGTH (MB)   RECORD NAMES
              1      19       13.08       500      610      700      900      950      970     1000      129      960     1100   
                                          VAR    BASINP    GEOM    SYMINP    ZMAT    AOBASIS   BASIS     P2S    ABASIS      S 
                                         1400     1410     1200     1210     1080     1600     1650     1300     1700   
                                           T        V       H0       H01     AOSYM     SMH    MOLCAS    ERIS     OPER   

 PROGRAMS   *        TOTAL       INT
 CPU TIMES  *         0.43      0.38
 REAL TIME  *         0.63 SEC
 DISK USED  *        46.62 MB      
 GA USED    *         0.00 MB       (max)       0.00 MB       (current)
 **********************************************************************************************************************************

1PROGRAM * RHF-SCF (CLOSED SHELL)       Authors: W. Meyer, H.-J. Werner


 NUMBER OF ELECTRONS:      10+   10-
 CONVERGENCE THRESHOLDS:    1.00E-10 (Density)    1.00E-13 (Energy)
 MAX. NUMBER OF ITERATIONS:      200
 INTERPOLATION TYPE:            DIIS
 INTERPOLATION STEPS:              2 (START)      1 (STEP)
 LEVEL SHIFTS:                  0.00 (CLOSED)  0.00 (OPEN) 



 Orbital guess generated from atomic densities. Full valence occupancy:   14   4

 Molecular orbital dump at record        2100.2

 Initial alpha occupancy:   8   2
 Initial beta  occupancy:   8   2
 Wave function symmetry:    1

 ITERATION    DDIFF          GRAD             ENERGY        2-EL.EN.            DIPOLE MOMENTS         DIIS
    1      0.000D+00      0.000D+00       -80.35961874    134.829316   -0.00076    0.00000    0.00000    0
    2      0.000D+00      0.845D-02       -80.39228847    132.549787    0.00024    0.00000    0.00000    1
    3      0.175D-01      0.310D-02       -80.39615026    133.351187    0.00020    0.00000    0.00000    2
    4      0.611D-02      0.835D-03       -80.39667895    133.214372    0.00030   -0.00000    0.00000    3
    5      0.220D-02      0.880D-04       -80.39668347    133.220397    0.00031   -0.00000    0.00000    4
    6      0.310D-03      0.521D-05       -80.39668349    133.220259    0.00031   -0.00000    0.00000    5
    7      0.273D-04      0.311D-06       -80.39668349    133.220256    0.00032   -0.00000    0.00000    5
    8      0.998D-06      0.555D-07       -80.39668349    133.220258    0.00032   -0.00000    0.00000    4
    9      0.151D-06      0.153D-07       -80.39668349    133.220259    0.00032   -0.00000    0.00000    4
   10      0.522D-07      0.308D-08       -80.39668349    133.220259    0.00032   -0.00000    0.00000    5
   11      0.105D-07      0.364D-09       -80.39668349    133.220259    0.00032   -0.00000    0.00000    5
   12      0.958D-09      0.982D-10       -80.39668349    133.220259    0.00032   -0.00000    0.00000    6
   13      0.271D-09      0.337D-10       -80.39668349    133.220259    0.00032   -0.00000    0.00000    6
   14      0.830D-10      0.574D-11       -80.39668349    133.220259    0.00032   -0.00000    0.00000    6
   15      0.281D-10      0.631D-12       -80.39668349    133.220259    0.00032   -0.00000    0.00000    6
   16      0.216D-11      0.154D-12       -80.39668349    133.220259    0.00032   -0.00000    0.00000    0

 Final occupancy:   8   2

 !RHF STATE 1.1 Energy                -80.396683491392
 Nuclear energy                        41.34200303
 One-electron energy                 -188.34881595
 Two-electron energy                   66.61012943
 Virial quotient                       -1.00229859
 !RHF STATE 1.1 Dipole moment           0.00031527    -0.00000085     0.00000000
 Dipole moment /Debye                   0.00080127    -0.00000217     0.00000000

 Orbital energies:

         1.1          2.1          3.1          4.1          5.1          6.1          7.1          8.1          9.1         10.1
    -11.215306   -11.215302    -0.944264    -0.938396    -0.549702    -0.545766    -0.538465    -0.534517     0.172447     0.229267

         1.2          2.2          3.2          4.2
     -0.544959    -0.537601     0.257024     0.296739


 **********************************************************************************************************************************
 DATASETS  * FILE   NREC   LENGTH (MB)   RECORD NAMES
              1      19       13.08       500      610      700      900      950      970     1000      129      960     1100   
                                          VAR    BASINP    GEOM    SYMINP    ZMAT    AOBASIS   BASIS     P2S    ABASIS      S 
                                         1400     1410     1200     1210     1080     1600     1650     1300     1700   
                                           T        V       H0       H01     AOSYM     SMH    MOLCAS    ERIS     OPER   

              2       3        0.47       700     1000     2100   
                                         GEOM     BASIS     RHF  

 PROGRAMS   *        TOTAL       RHF       INT
 CPU TIMES  *         0.57      0.13      0.38
 REAL TIME  *         0.82 SEC
 DISK USED  *        46.62 MB      
 GA USED    *         0.00 MB       (max)       0.00 MB       (current)
 **********************************************************************************************************************************


1PROGRAM * CCSD (Closed-shell coupled cluster)     Authors: C. Hampel, H.-J. Werner, 1991, M. Deegan, P.J. Knowles, 1992


 Convergence thresholds:  THRVAR = 1.00D-08  THRDEN = 1.00D-12

 CCSD(T)     terms to be evaluated (factor= 1.000)


 Number of core orbitals:           2 (   2   0 )
 Number of closed-shell orbitals:   8 (   6   2 )
 Number of external orbitals:      58 (  38  20 )

 Molecular orbitals read from record     2100.2  Type=RHF/CANONICAL (state 1.1)

 Number of N-1 electron functions:               8
 Number of N-2 electron functions:              36
 Number of singly external CSFs:               268
 Number of doubly external CSFs:             55352
 Total number of CSFs:                       55621

 Length of J-op  integral file:               0.00 MB
 Length of K-op  integral file:               0.21 MB
 Length of 3-ext integral record:             0.00 MB

 Memory could be reduced to 1.50 Mwords without degradation in triples

 Integral transformation finished. Total CPU:   0.04 sec, npass=  1  Memory used:   0.55 MW

 Reference energy:                    -80.39668349

 MP2 singlet pair energy:              -0.23207770
 MP2 triplet pair energy:              -0.09154901
 MP2 correlation energy:               -0.32362672
 MP2 total energy:                    -80.72031021

 SCS-MP2 correlation energy:           -0.33545708   (PS=  1.200000  PT=  0.333333)
 SCS-MP2 total energy:                -80.73214057

 ITER.      SQ.NORM     CORR.ENERGY   TOTAL ENERGY   ENERGY CHANGE        DEN1      VAR(S)    VAR(P)  DIIS     TIME
   1      1.13421052    -0.36752835   -80.76421184    -0.04390163    -0.03297775  0.50D-03  0.24D-02  1  1     0.09
   2      1.14681903    -0.37032576   -80.76700925    -0.00279741    -0.01276504  0.15D-04  0.96D-04  2  2     0.14
   3      1.14861113    -0.37049676   -80.76718025    -0.00017100    -0.00095540  0.17D-05  0.56D-05  3  3     0.19
   4      1.14897890    -0.37051707   -80.76720056    -0.00002031    -0.00016582  0.25D-07  0.35D-06  4  4     0.24
   5      1.14902484    -0.37051459   -80.76719808     0.00000248    -0.00002392  0.18D-08  0.18D-07  5  5     0.30
   6      1.14902615    -0.37051453   -80.76719802     0.00000006    -0.00000011  0.19D-09  0.12D-08  6  6     0.35
   7      1.14902624    -0.37051479   -80.76719828    -0.00000026     0.00000013  0.13D-10  0.71D-10  6  1     0.40
   8      1.14902642    -0.37051479   -80.76719828     0.00000001    -0.00000013  0.15D-11  0.41D-11  6  2     0.46
   9      1.14902645    -0.37051477   -80.76719826     0.00000001    -0.00000003  0.15D-12  0.26D-12  6  3     0.51
  10      1.14902644    -0.37051477   -80.76719826     0.00000000     0.00000001  0.11D-13  0.23D-13  6  4     0.56
  11      1.14902643    -0.37051477   -80.76719826    -0.00000000     0.00000001  0.80D-15  0.19D-14  6  5     0.62
  12      1.14902643    -0.37051477   -80.76719826    -0.00000000     0.00000000  0.43D-16  0.23D-15  6  6     0.67
  13      1.14902642    -0.37051477   -80.76719826    -0.00000000     0.00000000  0.34D-17  0.28D-16  6  1     0.73
  14      1.14902642    -0.37051477   -80.76719826     0.00000000     0.00000000  0.59D-18  0.37D-17  6  2     0.78
  15      1.14902642    -0.37051477   -80.76719826     0.00000000     0.00000000  0.71D-19  0.37D-18  6  3     0.83
  16      1.14902642    -0.37051477   -80.76719826    -0.00000000     0.00000000  0.15D-20  0.20D-19  6  5     0.88
  17      1.14902642    -0.37051477   -80.76719826    -0.00000000     0.00000000  0.18D-21  0.56D-21  6  4     0.93
  18      1.14902642    -0.37051477   -80.76719826     0.00000000    -0.00000000  0.45D-22  0.51D-22  6  6     0.98

 Norm of t1 vector:      0.03062730      S-energy:     0.00000000      T1 diagnostic:  0.00541419
                                                                       D1 diagnostic:  0.00878586


 Total CPU time for triples:      0.41 sec


 RESULTS
 =======

  Reference energy                    -80.396683491392
  CCSD singlet pair energy             -0.281841201581
  CCSD triplet pair energy             -0.088673569652
  CCSD correlation energy              -0.370514771232

  Triples (T) contribution             -0.007535663696
  Total correlation energy             -0.378050434928

  CCSD total energy                   -80.767198262624
  CCSD[T] energy                      -80.774910118175
  CCSD-T energy                       -80.774639486539
 !CCSD(T) total energy                -80.774733926320

 Timing summary (sec):

 STEP                 CPU(USER)    SYS     CPU(TOT)    WALL
 Transformation          0.04      0.01      0.05      0.04
 CCSD iterations         0.94      0.07      1.01      1.06
 Triples                 0.41      0.01      0.42      0.41

 Program statistics:

 Available memory in ccsd:               999999644
 Min. memory needed in ccsd:                189847
 Max. memory used in ccsd:                  234507
 Max. memory used in cckext:                275248 (18 integral passes)



 **********************************************************************************************************************************
 DATASETS  * FILE   NREC   LENGTH (MB)   RECORD NAMES
              1      20       17.49       500      610      700      900      950      970     1000      129      960     1100   
                                          VAR    BASINP    GEOM    SYMINP    ZMAT    AOBASIS   BASIS     P2S    ABASIS      S 
                                         1400     1410     1200     1210     1080     1600     1650     1300     1700     1380   
                                           T        V       H0       H01     AOSYM     SMH    MOLCAS    ERIS     OPER     JKOP   

              2       3        0.47       700     1000     2100   
                                         GEOM     BASIS     RHF  

 PROGRAMS   *        TOTAL   CCSD(T)       RHF       INT
 CPU TIMES  *         1.97      1.40      0.13      0.38
 REAL TIME  *         2.37 SEC
 DISK USED  *        46.62 MB      
 GA USED    *         0.00 MB       (max)       0.00 MB       (current)
 **********************************************************************************************************************************

        CCSD(T)         RHF-SCF 
    -80.77473393    -80.39668349
 **********************************************************************************************************************************
 Variable memory released
