
 Primary working directories    : /tmp/880701.366.gen4.q
 Secondary working directories  : /tmp/880701.366.gen4.q
 Wavefunction directory         : /home/vulcan/lo21740/wfu/
 Main file repository           : /tmp/880701.366.gen4.q/

 ARCHNAME  : Linux/x86_64
 FC        : /opt/intel/compilers_and_libraries_2016.1.150/linux/bin/intel64/ifort
 FCVERSION : 16.0.1
 BLASLIB   : -mkl
 id        : ccgc

 Nodes     nprocs
 n021         1
 ga_uses_ma=false, calling ma_init with nominal heap.
 GA-space will be limited to   8.0 MW (determined by -G option)

 Using customized tuning parameters: mindgm=10; mindgv=16; mindgc=4; mindgr=1; noblas=0; mincuda=1000; minvec=7
 default implementation of scratch files=df  

 ***,Optimization of formamide
 memory,1000,m
 gthresh,energy=1.0d-12,orbital=1.0d-10,oneint=1.0d-16,twoint=1.0d-16,optgrad=1.0d-6,compress=1.0d-13
 geomtyp=xyz
 
 bohr
 geometry = {
  C   -3.8283532422    0.0892330081   -0.0000000000
  O   -2.7334248548    2.1445711806   -0.0000000000
  N   -2.6785198791   -2.1822929008    0.0000000000
  H   -3.7411059687   -3.7563793514    0.0000000000
  H   -0.7485134168   -2.3102591920    0.0000000000
  H   -5.9032937104   -0.0186349855    0.0000000000
  C    3.8250465248   -0.0875984181    0.0000000000
  O    2.7352587716   -2.1452790097    0.0000000000
  N    2.6821278996    2.1798253565   -0.0000000000
  H    3.7402162876    3.7569909096   -0.0000000000
  H    0.7463286125    2.3114374571   -0.0000000000
  H    5.9042329760    0.0183859457    0.0000000000
 }
 
 basis=AVDZ
 {rhf;maxit,200}
 {ccsd(t);maxit,200}

 Variables initialized (661), CPU time= 0.00 sec
 Commands  initialized (458), CPU time= 0.00 sec, 486 directives.
 Default parameters read. Elapsed time= 0.06 sec

 Checking input...
 Passed
1


                                         ***  PROGRAM SYSTEM MOLPRO  ***
                         Copyright, University College Cardiff Consultants Limited, 2008

                                    Version 2010.1 linked May 16 2016 07:17:05


 **********************************************************************************************************************************
 LABEL *   Optimization of formamide                                                     
 Linux-4.4.3/n021(x86_64) 64 bit mpp version                                             DATE: 24-May-23          TIME: 21:47:53  
 **********************************************************************************************************************************

 SHA1:             9e8077add272b0f3cad6f7df79ec5211205f459d
 **********************************************************************************************************************************

 THRESHOLDS:

 ZERO    =  1.00D-12  ONEINT  =  1.00D-16  TWOINT  =  1.00D-16  PREFAC  =  1.00D-14  LOCALI  =  1.00D-09  EORDER  =  1.00D-04
 ENERGY  =  1.00D-12  ETEST   =  0.00D+00  EDENS   =  0.00D+00  THRDEDEF=  1.00D-06  GRADIENT=  1.00D-02  STEP    =  1.00D-03
 ORBITAL =  1.00D-10  CIVEC   =  1.00D-05  COEFF   =  1.00D-04  PRINTCI =  5.00D-02  PUNCHCI =  9.90D+01  OPTGRAD =  1.00D-06
 OPTENERG=  1.00D-06  OPTSTEP =  3.00D-04  THRGRAD =  1.00D-10  COMPRESS=  1.00D-13  VARMIN  =  1.00D-07  VARMAX  =  1.00D-03
 THRDOUB =  0.00D+00  THRDIV  =  1.00D-05  THRRED  =  1.00D-07  THRPSP  =  1.00D+00  THRDC   =  1.00D-10  THRCS   =  1.00D-10
 THRNRM  =  1.00D-08  THREQ   =  0.00D+00  THRDE   =  1.00D+00  THRREF  =  1.00D-05  SPARFAC =  1.00D+00  THRDLP  =  1.00D-07
 THRDIA  =  1.00D-10  THRDLS  =  1.00D-07  THRGPS  =  0.00D+00  THRKEX  =  0.00D+00  THRDIS  =  2.00D-01  THRVAR  =  1.00D-10
 THRLOC  =  1.00D-06  THRGAP  =  1.00D-06  THRLOCT = -1.00D+00  THRGAPT = -1.00D+00  THRORB  =  1.00D-06  THRMLTP =  0.00D+00
 THRCPQCI=  1.00D-10  KEXTA   =  0.00D+00  THRCOARS=  0.00D+00  SYMTOL  =  1.00D-06  GRADTOL =  1.00D-06  THROVL  =  1.00D-08
 THRORTH =  1.00D-08  GRID    =  1.00D-06  GRIDMAX =  1.00D-03  DTMAX   =  0.00D+00

 SETTING GEOMTYP        =    XYZ
 ZUNIT=BOHR
 

 Variable memory set to 1000000000 words,  buffer space   230000 words

 SETTING BASIS          =    AVDZ


 Recomputing integrals since basis changed


 Using spherical harmonics

 Library entry C      S aug-cc-pVDZ          selected for orbital group  1
 Library entry C      P aug-cc-pVDZ          selected for orbital group  1
 Library entry C      D aug-cc-pVDZ          selected for orbital group  1
 Library entry O      S aug-cc-pVDZ          selected for orbital group  2
 Library entry O      P aug-cc-pVDZ          selected for orbital group  2
 Library entry O      D aug-cc-pVDZ          selected for orbital group  2
 Library entry N      S aug-cc-pVDZ          selected for orbital group  3
 Library entry N      P aug-cc-pVDZ          selected for orbital group  3
 Library entry N      D aug-cc-pVDZ          selected for orbital group  3
 Library entry H      S aug-cc-pVDZ          selected for orbital group  4
 Library entry H      P aug-cc-pVDZ          selected for orbital group  4

1PROGRAM * SEWARD (Integral evaluation for generally contracted gaussian basis sets)     Author: Roland Lindh, 1990

 Geometry written to block  1 of record 700


 Point group  Cs  



 ATOMIC COORDINATES

 NR  ATOM    CHARGE       X              Y              Z

   1  C       6.00   -3.828353242    0.089233008    0.000000000
   2  O       8.00   -2.733424855    2.144571181    0.000000000
   3  N       7.00   -2.678519879   -2.182292901    0.000000000
   4  H       1.00   -3.741105969   -3.756379351    0.000000000
   5  H       1.00   -0.748513417   -2.310259192    0.000000000
   6  H       1.00   -5.903293710   -0.018634985    0.000000000
   7  C       6.00    3.825046525   -0.087598418    0.000000000
   8  O       8.00    2.735258772   -2.145279010    0.000000000
   9  N       7.00    2.682127900    2.179825356    0.000000000
  10  H       1.00    3.740216288    3.756990910    0.000000000
  11  H       1.00    0.746328613    2.311437457    0.000000000
  12  H       1.00    5.904232976    0.018385946    0.000000000

 Bond lengths in Bohr (Angstrom)

 1-2  2.328794361  1-3  2.545966755  1-6  2.077742393  3-4  1.899167542  3-5  1.934244120
     ( 1.232344900)     ( 1.347267582)     ( 1.099493920)     ( 1.004996179)     ( 1.023557905)

  7- 8  2.328451581   7- 9  2.539187578   7-12  2.081885920   9-10  1.899210946   9-11  1.940268184
       ( 1.232163509)       ( 1.343680196)       ( 1.101686581)       ( 1.005019148)       ( 1.026745702)

 Bond angles

  1-3-4  119.13043538   1-3-5  120.64163250   2-1-3  125.10642091   2-1-6  121.02121157

  3- 1- 6  113.87236752   4- 3- 5  120.22793213   7- 9-10  119.39227533   7- 9-11  120.64033444

  8- 7- 9  125.34256776   8- 7-12  120.82463371   9- 7-12  113.83279853  10- 9-11  119.96739024

 NUCLEAR CHARGE:                   48
 NUMBER OF PRIMITIVE AOS:         288
 NUMBER OF SYMMETRY AOS:          276
 NUMBER OF CONTRACTIONS:          192   ( 138A'  +  54A"  )
 NUMBER OF CORE ORBITALS:           6   (   6A'  +   0A"  )
 NUMBER OF VALENCE ORBITALS:       30   (  24A'  +   6A"  )


 NUCLEAR REPULSION ENERGY  230.27796062


 Eigenvalues of metric

         1 0.232E-03 0.271E-03 0.528E-03 0.530E-03 0.566E-03 0.704E-03 0.718E-03 0.719E-03
         2 0.183E-01 0.199E-01 0.284E-01 0.284E-01 0.336E-01 0.340E-01 0.418E-01 0.454E-01


 Contracted 2-electron integrals neglected if value below      1.0D-16
 AO integral compression algorithm  1   Integral accuracy      1.0D-16

     746.324 MB (compressed) written to integral file ( 93.7%)

     Node minimum: 746.324 MB, node maximum: 746.324 MB


 NUMBER OF SORTED TWO-ELECTRON INTEGRALS:   89829696.     BUFFER LENGTH:  32768
 NUMBER OF SEGMENTS:   6  SEGMENT LENGTH:   15998004      RECORD LENGTH: 524288

 Memory used in sort:      16.56 MW

 SORT1 READ    99568560. AND WROTE    89006804. INTEGRALS IN    258 RECORDS. CPU TIME:     1.20 SEC, REAL TIME:     1.79 SEC
 SORT2 READ    89006804. AND WROTE    89829696. INTEGRALS IN   2847 RECORDS. CPU TIME:     0.80 SEC, REAL TIME:     1.20 SEC

 FILE SIZES:   FILE 1:   691.8 MBYTE,  FILE 4:  1082.2 MBYTE,   TOTAL:   1774.0 MBYTE

 OPERATOR DM      FOR CENTER  0  COORDINATES:    0.000000    0.000000    0.000000


 **********************************************************************************************************************************
 DATASETS  * FILE   NREC   LENGTH (MB)   RECORD NAMES
              1      19      692.03       500      610      700      900      950      970     1000      129      960     1100   
                                          VAR    BASINP    GEOM    SYMINP    ZMAT    AOBASIS   BASIS     P2S    ABASIS      S 
                                         1400     1410     1200     1210     1080     1600     1650     1300     1700   
                                           T        V       H0       H01     AOSYM     SMH    MOLCAS    ERIS     OPER   

 PROGRAMS   *        TOTAL       INT
 CPU TIMES  *         9.16      9.11
 REAL TIME  *        10.72 SEC
 DISK USED  *         2.52 GB      
 GA USED    *         0.00 MB       (max)       0.00 MB       (current)
 **********************************************************************************************************************************

1PROGRAM * RHF-SCF (CLOSED SHELL)       Authors: W. Meyer, H.-J. Werner


 NUMBER OF ELECTRONS:      24+   24-
 CONVERGENCE THRESHOLDS:    1.00E-10 (Density)    1.00E-13 (Energy)
 MAX. NUMBER OF ITERATIONS:      200
 INTERPOLATION TYPE:            DIIS
 INTERPOLATION STEPS:              2 (START)      1 (STEP)
 LEVEL SHIFTS:                  0.00 (CLOSED)  0.00 (OPEN) 



 Orbital guess generated from atomic densities. Full valence occupancy:   30   6

 Molecular orbital dump at record        2100.2

 Initial alpha occupancy:  20   4
 Initial beta  occupancy:  20   4
 Wave function symmetry:    1

 ITERATION    DDIFF          GRAD             ENERGY        2-EL.EN.            DIPOLE MOMENTS         DIIS
    1      0.000D+00      0.000D+00      -337.80551424    704.220753   -0.01505    0.01438    0.00000    0
    2      0.000D+00      0.729D-02      -337.88283435    698.646641   -0.00964    0.00625    0.00000    1
    3      0.138D-01      0.532D-02      -337.94085340    701.374522   -0.01065    0.00851    0.00000    2
    4      0.562D-02      0.701D-03      -337.94307275    701.278232   -0.01059    0.00855    0.00000    3
    5      0.134D-02      0.242D-03      -337.94334316    701.212245   -0.01033    0.00844    0.00000    4
    6      0.458D-03      0.797D-04      -337.94340512    701.237903   -0.01030    0.00850    0.00000    5
    7      0.202D-03      0.353D-04      -337.94341626    701.228846   -0.01027    0.00851    0.00000    6
    8      0.964D-04      0.105D-04      -337.94341722    701.234505   -0.01026    0.00853    0.00000    7
    9      0.304D-04      0.320D-05      -337.94341729    701.232001   -0.01026    0.00852    0.00000    8
   10      0.804D-05      0.111D-05      -337.94341731    701.232537   -0.01026    0.00854    0.00000    7
   11      0.336D-05      0.271D-06      -337.94341731    701.232472   -0.01027    0.00852    0.00000    8
   12      0.761D-06      0.762D-07      -337.94341731    701.232475   -0.01026    0.00853    0.00000    8
   13      0.143D-06      0.371D-07      -337.94341731    701.232471   -0.01026    0.00853    0.00000    8
   14      0.620D-07      0.101D-07      -337.94341731    701.232475   -0.01026    0.00853    0.00000    8
   15      0.255D-07      0.325D-08      -337.94341731    701.232475   -0.01026    0.00853    0.00000    8
   16      0.701D-08      0.655D-09      -337.94341731    701.232474   -0.01026    0.00853    0.00000    8
   17      0.143D-08      0.230D-09      -337.94341731    701.232474   -0.01026    0.00853    0.00000    8
   18      0.431D-09      0.689D-10      -337.94341731    701.232474   -0.01026    0.00853    0.00000    8
   19      0.140D-09      0.281D-10      -337.94341731    701.232474   -0.01026    0.00853    0.00000    8
   20      0.519D-10      0.645D-11      -337.94341731    701.232474   -0.01026    0.00853    0.00000    7
   21      0.162D-10      0.210D-11      -337.94341731    701.232474   -0.01026    0.00853    0.00000    7
   22      0.551D-11      0.111D-11      -337.94341731    701.232474   -0.01026    0.00853    0.00000    8
   23      0.460D-11      0.299D-12      -337.94341731    701.232474   -0.01026    0.00853    0.00000    8
   24      0.327D-11      0.208D-12      -337.94341731    701.232474   -0.01026    0.00853    0.00000    9
   25      0.345D-11      0.135D-12      -337.94341731    701.232474   -0.01026    0.00853    0.00000    9
   26      0.181D-11      0.130D-12      -337.94341731    701.232474   -0.01026    0.00853    0.00000    9
   27      0.157D-11      0.115D-12      -337.94341731    701.232474   -0.01026    0.00853    0.00000    9
   28      0.127D-11      0.109D-12      -337.94341731    701.232474   -0.01026    0.00853    0.00000    9
   29      0.114D-11      0.106D-12      -337.94341731    701.232474   -0.01026    0.00853    0.00000    0

 Final occupancy:  20   4

 !RHF STATE 1.1 Energy               -337.943417305622
 Nuclear energy                       230.27796062
 One-electron energy                 -918.83761514
 Two-electron energy                  350.61623721
 Virial quotient                       -1.00181757
 !RHF STATE 1.1 Dipole moment          -0.01026408     0.00853009     0.00000000
 Dipole moment /Debye                  -0.02608698     0.02167991     0.00000000

 Orbital energies:

         1.1          2.1          3.1          4.1          5.1          6.1          7.1          8.1          9.1         10.1
    -20.542018   -20.541253   -15.589457   -15.589159   -11.368684   -11.368055    -1.388743    -1.384049    -1.217848    -1.211642

        11.1         12.1         13.1         14.1         15.1         16.1         17.1         18.1         19.1         20.1
     -0.860703    -0.835600    -0.749271    -0.740191    -0.705659    -0.644903    -0.619217    -0.593810    -0.454636    -0.429159

        21.1         22.1
      0.033379     0.036349

         1.2          2.2          3.2          4.2          5.2          6.2
     -0.573209    -0.565159    -0.420350    -0.409797     0.092375     0.103374


 **********************************************************************************************************************************
 DATASETS  * FILE   NREC   LENGTH (MB)   RECORD NAMES
              1      19      692.03       500      610      700      900      950      970     1000      129      960     1100   
                                          VAR    BASINP    GEOM    SYMINP    ZMAT    AOBASIS   BASIS     P2S    ABASIS      S 
                                         1400     1410     1200     1210     1080     1600     1650     1300     1700   
                                           T        V       H0       H01     AOSYM     SMH    MOLCAS    ERIS     OPER   

              2       3        0.91       700     1000     2100   
                                         GEOM     BASIS     RHF  

 PROGRAMS   *        TOTAL       RHF       INT
 CPU TIMES  *        25.41     16.25      9.11
 REAL TIME  *        29.26 SEC
 DISK USED  *         2.52 GB      
 GA USED    *         0.00 MB       (max)       0.00 MB       (current)
 **********************************************************************************************************************************


1PROGRAM * CCSD (Closed-shell coupled cluster)     Authors: C. Hampel, H.-J. Werner, 1991, M. Deegan, P.J. Knowles, 1992


 Convergence thresholds:  THRVAR = 1.00D-08  THRDEN = 1.00D-12

 CCSD(T)     terms to be evaluated (factor= 1.000)


 Number of core orbitals:           6 (   6   0 )
 Number of closed-shell orbitals:  18 (  14   4 )
 Number of external orbitals:     168 ( 118  50 )

 Molecular orbitals read from record     2100.2  Type=RHF/CANONICAL (state 1.1)

 Number of N-1 electron functions:              18
 Number of N-2 electron functions:             171
 Number of singly external CSFs:              1852
 Number of doubly external CSFs:           2403256
 Total number of CSFs:                     2405109

 Length of J-op  integral file:               0.00 MB
 Length of K-op  integral file:               1.55 MB
 Length of 3-ext integral record:             0.00 MB

 Memory could be reduced to 56.93 Mwords without degradation in triples

 Integral transformation finished. Total CPU:   4.35 sec, npass=  1  Memory used:  23.60 MW

 Reference energy:                   -337.94341731

 MP2 singlet pair energy:              -0.62310614
 MP2 triplet pair energy:              -0.40634525
 MP2 correlation energy:               -1.02945139
 MP2 total energy:                   -338.97286869

 SCS-MP2 correlation energy:           -1.00056441   (PS=  1.200000  PT=  0.333333)
 SCS-MP2 total energy:               -338.94398172

 ITER.      SQ.NORM     CORR.ENERGY   TOTAL ENERGY   ENERGY CHANGE        DEN1      VAR(S)    VAR(P)  DIIS     TIME
   1      1.31980181    -1.05792443  -339.00134173    -0.02847304     0.00293527  0.10D-01  0.60D-02  1  1    14.70
   2      1.34539243    -1.05980192  -339.00321923    -0.00187749    -0.02601441  0.22D-03  0.11D-02  2  2    25.17
   3      1.35810947    -1.06070149  -339.00411880    -0.00089957    -0.00559124  0.22D-03  0.52D-04  3  3    35.66
   4      1.36336020    -1.06043612  -339.00385342     0.00026537    -0.00170411  0.22D-04  0.96D-05  4  4    46.15
   5      1.36552933    -1.06037836  -339.00379567     0.00005775    -0.00045302  0.27D-05  0.12D-05  5  5    56.67
   6      1.36605562    -1.06034945  -339.00376676     0.00002891    -0.00005009  0.28D-06  0.19D-06  6  6    67.18
   7      1.36618408    -1.06033707  -339.00375438     0.00001238    -0.00000199  0.35D-07  0.23D-07  6  1    77.71
   8      1.36622160    -1.06033587  -339.00375318     0.00000120    -0.00000704  0.74D-08  0.33D-08  6  2    88.23
   9      1.36622307    -1.06033605  -339.00375336    -0.00000018     0.00000268  0.13D-08  0.49D-09  6  3    98.80
  10      1.36622785    -1.06033551  -339.00375281     0.00000054    -0.00000110  0.32D-09  0.68D-10  6  4   109.31
  11      1.36622760    -1.06033576  -339.00375307    -0.00000025     0.00000046  0.58D-10  0.13D-10  6  5   119.82
  12      1.36622760    -1.06033574  -339.00375304     0.00000002     0.00000002  0.46D-11  0.35D-11  6  6   130.36
  13      1.36622732    -1.06033578  -339.00375309    -0.00000004     0.00000012  0.11D-11  0.39D-12  6  1   140.85
  14      1.36622722    -1.06033579  -339.00375310    -0.00000001     0.00000004  0.89D-13  0.75D-13  6  2   151.38
  15      1.36622720    -1.06033579  -339.00375309     0.00000000     0.00000001  0.23D-13  0.12D-13  6  3   161.90
  16      1.36622720    -1.06033579  -339.00375310    -0.00000000     0.00000000  0.49D-14  0.22D-14  6  4   172.41
  17      1.36622720    -1.06033579  -339.00375310     0.00000000    -0.00000000  0.90D-15  0.45D-15  6  5   182.92
  18      1.36622720    -1.06033579  -339.00375310     0.00000000    -0.00000000  0.25D-15  0.94D-16  6  2   193.44
  19      1.36622720    -1.06033579  -339.00375310     0.00000000    -0.00000000  0.42D-16  0.14D-16  6  6   203.95
  20      1.36622720    -1.06033579  -339.00375310    -0.00000000     0.00000000  0.12D-16  0.27D-17  6  1   214.47
  21      1.36622720    -1.06033579  -339.00375310     0.00000000    -0.00000000  0.32D-17  0.11D-17  6  4   225.01
  22      1.36622720    -1.06033579  -339.00375310    -0.00000000     0.00000000  0.98D-18  0.22D-18  6  3   235.53
  23      1.36622720    -1.06033579  -339.00375310    -0.00000000    -0.00000000  0.50D-19  0.30D-19  6  5   246.04
  24      1.36622720    -1.06033579  -339.00375310     0.00000000    -0.00000000  0.12D-19  0.52D-20  6  2   256.56
  25      1.36622720    -1.06033579  -339.00375310    -0.00000000     0.00000000  0.16D-20  0.10D-20  6  4   267.10
  26      1.36622720    -1.06033579  -339.00375310     0.00000000    -0.00000000  0.11D-21  0.98D-22  6  6   277.62

 Norm of t1 vector:      0.14873838      S-energy:     0.00000000      T1 diagnostic:  0.01752899
                                                                       D1 diagnostic:  0.05931688


 Total CPU time for triples:    248.28 sec


 RESULTS
 =======

  Reference energy                   -337.943417305621
  CCSD singlet pair energy             -0.700103447626
  CCSD triplet pair energy             -0.360232342097
  CCSD correlation energy              -1.060335789722

  Triples (T) contribution             -0.040037268297
  Total correlation energy             -1.100373058019

  CCSD total energy                  -339.003753095343
  CCSD[T] energy                     -339.047030136181
  CCSD-T energy                      -339.042662069773
 !CCSD(T) total energy               -339.043790363640

 Timing summary (sec):

 STEP                 CPU(USER)    SYS     CPU(TOT)    WALL
 Transformation          4.50      0.40      4.90      4.91
 CCSD iterations       273.12      5.50    278.62    278.89
 Triples               248.28      4.06    252.34    252.38

 Program statistics:

 Available memory in ccsd:               999998604
 Min. memory needed in ccsd:               6087664
 Max. memory used in ccsd:                 8297292
 Max. memory used in cckext:               8019339 (26 integral passes)



 **********************************************************************************************************************************
 DATASETS  * FILE   NREC   LENGTH (MB)   RECORD NAMES
              1      20      912.52       500      610      700      900      950      970     1000      129      960     1100   
                                          VAR    BASINP    GEOM    SYMINP    ZMAT    AOBASIS   BASIS     P2S    ABASIS      S 
                                         1400     1410     1200     1210     1080     1600     1650     1300     1700     1380   
                                           T        V       H0       H01     AOSYM     SMH    MOLCAS    ERIS     OPER     JKOP   

              2       3        0.91       700     1000     2100   
                                         GEOM     BASIS     RHF  

 PROGRAMS   *        TOTAL   CCSD(T)       RHF       INT
 CPU TIMES  *       551.33    525.92     16.25      9.11
 REAL TIME  *       565.51 SEC
 DISK USED  *         2.52 GB      
 GA USED    *         0.00 MB       (max)       0.00 MB       (current)
 **********************************************************************************************************************************

        CCSD(T)         RHF-SCF 
   -339.04379036   -337.94341731
 **********************************************************************************************************************************
 Variable memory released
