
 Primary working directories    : /tmp/879303.145.gen6.q
 Secondary working directories  : /tmp/879303.145.gen6.q
 Wavefunction directory         : /home/vulcan/lo21740/wfu/
 Main file repository           : /tmp/879303.145.gen6.q/

 ARCHNAME  : Linux/x86_64
 FC        : /opt/intel/compilers_and_libraries_2016.1.150/linux/bin/intel64/ifort
 FCVERSION : 16.0.1
 BLASLIB   : -mkl
 id        : ccgc

 Nodes     nprocs
 n084         1
 ga_uses_ma=false, calling ma_init with nominal heap.
 GA-space will be limited to   8.0 MW (determined by -G option)

 Using customized tuning parameters: mindgm=10; mindgv=16; mindgc=4; mindgr=1; noblas=0; mincuda=1000; minvec=7
 default implementation of scratch files=df  

 ***,Optimization of formamide
 memory,1000,m
 gthresh,energy=1.0d-12,orbital=1.0d-10,oneint=1.0d-16,twoint=1.0d-16,optgrad=1.0d-6,compress=1.0d-13
 geomtyp=xyz
 
 bohr
 geometry = {
  C   -3.8255776328    0.0860147476    0.0013500475
  O   -2.7332095660    2.1386323659   -0.0006826544
  N   -2.6788127301   -2.1795114323   -0.0007891106
  H   -3.7405420085   -3.7563590615    0.0002771393
  H   -0.7488143095   -2.3046690320   -0.0002751366
  H   -5.9025099652   -0.0178081408   -0.0003429553
  C    3.8260263085   -0.0866666041   -0.0013536719
  O    2.7272221024   -2.1392714725    0.0006808738
  N    2.6839130782    2.1793639575    0.0007899209
  H    3.7376346027    3.7557300979   -0.0002664906
  H    0.7525514948    2.3054724108    0.0002762852
  H    5.9021186255    0.0190721634    0.0003357527
 }
 
 basis=AVDZ, H=VDZ
 {rhf;maxit,200}
 {ccsd(t);maxit,200}

 Variables initialized (661), CPU time= 0.00 sec
 Commands  initialized (458), CPU time= 0.01 sec, 486 directives.
 Default parameters read. Elapsed time= 0.04 sec

 Checking input...
 Passed
1


                                         ***  PROGRAM SYSTEM MOLPRO  ***
                         Copyright, University College Cardiff Consultants Limited, 2008

                                    Version 2010.1 linked May 16 2016 07:17:05


 **********************************************************************************************************************************
 LABEL *   Optimization of formamide                                                     
 Linux-4.4.3/n084(x86_64) 64 bit mpp version                                             DATE: 23-May-23          TIME: 13:21:22  
 **********************************************************************************************************************************

 SHA1:             9e8077add272b0f3cad6f7df79ec5211205f459d
 **********************************************************************************************************************************

 THRESHOLDS:

 ZERO    =  1.00D-12  ONEINT  =  1.00D-16  TWOINT  =  1.00D-16  PREFAC  =  1.00D-14  LOCALI  =  1.00D-09  EORDER  =  1.00D-04
 ENERGY  =  1.00D-12  ETEST   =  0.00D+00  EDENS   =  0.00D+00  THRDEDEF=  1.00D-06  GRADIENT=  1.00D-02  STEP    =  1.00D-03
 ORBITAL =  1.00D-10  CIVEC   =  1.00D-05  COEFF   =  1.00D-04  PRINTCI =  5.00D-02  PUNCHCI =  9.90D+01  OPTGRAD =  1.00D-06
 OPTENERG=  1.00D-06  OPTSTEP =  3.00D-04  THRGRAD =  1.00D-10  COMPRESS=  1.00D-13  VARMIN  =  1.00D-07  VARMAX  =  1.00D-03
 THRDOUB =  0.00D+00  THRDIV  =  1.00D-05  THRRED  =  1.00D-07  THRPSP  =  1.00D+00  THRDC   =  1.00D-10  THRCS   =  1.00D-10
 THRNRM  =  1.00D-08  THREQ   =  0.00D+00  THRDE   =  1.00D+00  THRREF  =  1.00D-05  SPARFAC =  1.00D+00  THRDLP  =  1.00D-07
 THRDIA  =  1.00D-10  THRDLS  =  1.00D-07  THRGPS  =  0.00D+00  THRKEX  =  0.00D+00  THRDIS  =  2.00D-01  THRVAR  =  1.00D-10
 THRLOC  =  1.00D-06  THRGAP  =  1.00D-06  THRLOCT = -1.00D+00  THRGAPT = -1.00D+00  THRORB  =  1.00D-06  THRMLTP =  0.00D+00
 THRCPQCI=  1.00D-10  KEXTA   =  0.00D+00  THRCOARS=  0.00D+00  SYMTOL  =  1.00D-06  GRADTOL =  1.00D-06  THROVL  =  1.00D-08
 THRORTH =  1.00D-08  GRID    =  1.00D-06  GRIDMAX =  1.00D-03  DTMAX   =  0.00D+00

 SETTING GEOMTYP        =    XYZ
 ZUNIT=BOHR
 

 Variable memory set to 1000000000 words,  buffer space   230000 words

 SETTING BASIS          =    AVDZ,H=VDZ


 Recomputing integrals since basis changed


 Using spherical harmonics

 Library entry C      S aug-cc-pVDZ          selected for orbital group  1
 Library entry C      P aug-cc-pVDZ          selected for orbital group  1
 Library entry C      D aug-cc-pVDZ          selected for orbital group  1
 Library entry O      S aug-cc-pVDZ          selected for orbital group  2
 Library entry O      P aug-cc-pVDZ          selected for orbital group  2
 Library entry O      D aug-cc-pVDZ          selected for orbital group  2
 Library entry N      S aug-cc-pVDZ          selected for orbital group  3
 Library entry N      P aug-cc-pVDZ          selected for orbital group  3
 Library entry N      D aug-cc-pVDZ          selected for orbital group  3
 Library entry H      S cc-pVDZ              selected for orbital group  4
 Library entry H      P cc-pVDZ              selected for orbital group  4

1PROGRAM * SEWARD (Integral evaluation for generally contracted gaussian basis sets)     Author: Roland Lindh, 1990

 Geometry written to block  1 of record 700


 Point group  C1  



 ATOMIC COORDINATES

 NR  ATOM    CHARGE       X              Y              Z

   1  C       6.00   -3.825577633    0.086014748    0.001350048
   2  O       8.00   -2.733209566    2.138632366   -0.000682654
   3  N       7.00   -2.678812730   -2.179511432   -0.000789111
   4  H       1.00   -3.740542008   -3.756359061    0.000277139
   5  H       1.00   -0.748814310   -2.304669032   -0.000275137
   6  H       1.00   -5.902509965   -0.017808141   -0.000342955
   7  C       6.00    3.826026308   -0.086666604   -0.001353672
   8  O       8.00    2.727222102   -2.139271472    0.000680874
   9  N       7.00    2.683913078    2.179363958    0.000789921
  10  H       1.00    3.737634603    3.755730098   -0.000266491
  11  H       1.00    0.752551495    2.305472411    0.000276285
  12  H       1.00    5.902118625    0.019072163    0.000335753

 Bond lengths in Bohr (Angstrom)

 1-2  2.325190575  1-3  2.539228857  1-6  2.079526382  3-4  1.900978338  3-5  1.934052376
     ( 1.230437859)     ( 1.343702040)     ( 1.100437967)     ( 1.005954412)     ( 1.023456438)

  7- 8  2.328209949   7- 9  2.537581867   7-12  2.078783983   9-10  1.896117184   9-11  1.935474405
       ( 1.232035643)       ( 1.342830490)       ( 1.100045106)       ( 1.003381999)       ( 1.024208944)

 Bond angles

  1-3-4  119.19898781   1-3-5  120.55796291   2-1-3  125.13113460   2-1-6  120.88282637

  3- 1- 6  113.98582526   4- 3- 5  120.24295745   7- 9-10  119.49042925   7- 9-11  120.48458875

  8- 7- 9  125.09001668   8- 7-12  121.07669173   9- 7-12  113.83307769  10- 9-11  120.02489021

 NUCLEAR CHARGE:                   48
 NUMBER OF PRIMITIVE AOS:         264
 NUMBER OF SYMMETRY AOS:          252
 NUMBER OF CONTRACTIONS:          168   ( 168A   )
 NUMBER OF CORE ORBITALS:           6   (   6A   )
 NUMBER OF VALENCE ORBITALS:       30   (  30A   )


 NUCLEAR REPULSION ENERGY  230.50407873


 Eigenvalues of metric

         1 0.417E-03 0.626E-03 0.114E-02 0.135E-02 0.161E-02 0.168E-02 0.366E-02 0.437E-02


 Contracted 2-electron integrals neglected if value below      1.0D-16
 AO integral compression algorithm  1   Integral accuracy      1.0D-16

     721.158 MB (compressed) written to integral file ( 79.2%)

     Node minimum: 721.158 MB, node maximum: 721.158 MB


 NUMBER OF SORTED TWO-ELECTRON INTEGRALS:  100770306.     BUFFER LENGTH:  32768
 NUMBER OF SEGMENTS:   7  SEGMENT LENGTH:   15999503      RECORD LENGTH: 524288

 Memory used in sort:      16.56 MW

 SORT1 READ   113825409. AND WROTE    98808049. INTEGRALS IN    287 RECORDS. CPU TIME:     1.08 SEC, REAL TIME:     1.61 SEC
 SORT2 READ    98808049. AND WROTE   100770306. INTEGRALS IN   2751 RECORDS. CPU TIME:     0.84 SEC, REAL TIME:     1.13 SEC

 FILE SIZES:   FILE 1:   647.5 MBYTE,  FILE 4:  1203.8 MBYTE,   TOTAL:   1851.3 MBYTE

 OPERATOR DM      FOR CENTER  0  COORDINATES:    0.000000    0.000000    0.000000


 **********************************************************************************************************************************
 DATASETS  * FILE   NREC   LENGTH (MB)   RECORD NAMES
              1      19      647.80       500      610      700      900      950      970     1000      129      960     1100   
                                          VAR    BASINP    GEOM    SYMINP    ZMAT    AOBASIS   BASIS     P2S    ABASIS      S 
                                         1400     1410     1200     1210     1080     1600     1650     1300     1700   
                                           T        V       H0       H01     AOSYM     SMH    MOLCAS    ERIS     OPER   

 PROGRAMS   *        TOTAL       INT
 CPU TIMES  *         5.90      5.86
 REAL TIME  *         7.24 SEC
 DISK USED  *         2.57 GB      
 GA USED    *         0.00 MB       (max)       0.00 MB       (current)
 **********************************************************************************************************************************

1PROGRAM * RHF-SCF (CLOSED SHELL)       Authors: W. Meyer, H.-J. Werner


 NUMBER OF ELECTRONS:      24+   24-    SPACE SYMMETRY=1    SPIN SYMMETRY: Singlet 
 CONVERGENCE THRESHOLDS:    1.00E-10 (Density)    1.00E-13 (Energy)
 MAX. NUMBER OF ITERATIONS:      200
 INTERPOLATION TYPE:            DIIS
 INTERPOLATION STEPS:              2 (START)      1 (STEP)
 LEVEL SHIFTS:                  0.00 (CLOSED)  0.00 (OPEN) 



 Orbital guess generated from atomic densities. Full valence occupancy:   36

 Molecular orbital dump at record        2100.2

 ITERATION    DDIFF          GRAD             ENERGY        2-EL.EN.            DIPOLE MOMENTS         DIIS
    1      0.000D+00      0.000D+00      -337.80394801    704.669974    0.00691    0.00577    0.00000    0
    2      0.000D+00      0.643D-02      -337.88140248    699.070820    0.00526    0.00433    0.00000    1
    3      0.123D-01      0.468D-02      -337.93915229    701.809301    0.00647    0.00554    0.00000    2
    4      0.486D-02      0.619D-03      -337.94136193    701.712367    0.00608    0.00510    0.00000    3
    5      0.107D-02      0.213D-03      -337.94162880    701.646683    0.00624    0.00549    0.00000    4
    6      0.384D-03      0.698D-04      -337.94168972    701.672284    0.00616    0.00534    0.00000    5
    7      0.166D-03      0.309D-04      -337.94170061    701.663413    0.00620    0.00548    0.00000    6
    8      0.821D-04      0.917D-05      -337.94170154    701.668946    0.00616    0.00535    0.00000    7
    9      0.253D-04      0.283D-05      -337.94170161    701.666558    0.00620    0.00548    0.00000    8
   10      0.678D-05      0.104D-05      -337.94170163    701.666948    0.00617    0.00538    0.00000    7
   11      0.287D-05      0.392D-06      -337.94170163    701.667015    0.00618    0.00544    0.00000    8
   12      0.647D-06      0.145D-06      -337.94170163    701.666965    0.00618    0.00543    0.00000    9
   13      0.313D-06      0.202D-07      -337.94170163    701.666967    0.00618    0.00543    0.00000    8
   14      0.568D-07      0.675D-08      -337.94170163    701.666970    0.00618    0.00543    0.00000    7
   15      0.200D-07      0.281D-08      -337.94170163    701.666969    0.00618    0.00543    0.00000    8
   16      0.613D-08      0.447D-09      -337.94170163    701.666969    0.00618    0.00543    0.00000    8
   17      0.100D-08      0.110D-09      -337.94170163    701.666969    0.00618    0.00543    0.00000    7
   18      0.237D-09      0.462D-10      -337.94170163    701.666969    0.00618    0.00543    0.00000    7
   19      0.912D-10      0.117D-10      -337.94170163    701.666969    0.00618    0.00543    0.00000    7
   20      0.226D-10      0.513D-11      -337.94170163    701.666969    0.00618    0.00543    0.00000    7
   21      0.115D-10      0.209D-11      -337.94170163    701.666969    0.00618    0.00543    0.00000    8
   22      0.518D-11      0.711D-12      -337.94170163    701.666969    0.00618    0.00543    0.00000    0

 Final occupancy:  24

 !RHF STATE 1.1 Energy               -337.941701626575
 Nuclear energy                       230.50407873
 One-electron energy                 -919.27926488
 Two-electron energy                  350.83348452
 Virial quotient                       -1.00176683
 !RHF STATE 1.1 Dipole moment           0.00617960     0.00542753     0.00000155
 Dipole moment /Debye                   0.01570596     0.01379449     0.00000393

 Orbital energies:

         1.1          2.1          3.1          4.1          5.1          6.1          7.1          8.1          9.1         10.1
    -20.540884   -20.540755   -15.589626   -15.589207   -11.368604   -11.368144    -1.389404    -1.384626    -1.218560    -1.212305

        11.1         12.1         13.1         14.1         15.1         16.1         17.1         18.1         19.1         20.1
     -0.860884    -0.835691    -0.749836    -0.740794    -0.705826    -0.645017    -0.619248    -0.593673    -0.573766    -0.565711

        21.1         22.1         23.1         24.1         25.1         26.1
     -0.454335    -0.429051    -0.420390    -0.409812     0.068002     0.068834


 **********************************************************************************************************************************
 DATASETS  * FILE   NREC   LENGTH (MB)   RECORD NAMES
              1      19      647.80       500      610      700      900      950      970     1000      129      960     1100   
                                          VAR    BASINP    GEOM    SYMINP    ZMAT    AOBASIS   BASIS     P2S    ABASIS      S 
                                         1400     1410     1200     1210     1080     1600     1650     1300     1700   
                                           T        V       H0       H01     AOSYM     SMH    MOLCAS    ERIS     OPER   

              2       3        1.03       700     1000     2100   
                                         GEOM     BASIS     RHF  

 PROGRAMS   *        TOTAL       RHF       INT
 CPU TIMES  *        21.58     15.68      5.86
 REAL TIME  *        24.27 SEC
 DISK USED  *         2.57 GB      
 GA USED    *         0.00 MB       (max)       0.00 MB       (current)
 **********************************************************************************************************************************


1PROGRAM * CCSD (Closed-shell coupled cluster)     Authors: C. Hampel, H.-J. Werner, 1991, M. Deegan, P.J. Knowles, 1992


 Convergence thresholds:  THRVAR = 1.00D-08  THRDEN = 1.00D-12

 CCSD(T)     terms to be evaluated (factor= 1.000)


 Number of core orbitals:           6 (   6 )
 Number of closed-shell orbitals:  18 (  18 )
 Number of external orbitals:     144 ( 144 )

 Molecular orbitals read from record     2100.2  Type=RHF/CANONICAL (state 1.1)

 Number of N-1 electron functions:              18
 Number of N-2 electron functions:             171
 Number of singly external CSFs:              2592
 Number of doubly external CSFs:           3360528
 Total number of CSFs:                     3363121

 Length of J-op  integral file:               0.00 MB
 Length of K-op  integral file:               1.98 MB
 Length of 3-ext integral record:             0.00 MB

 Memory could be reduced to 69.94 Mwords without degradation in triples

 Integral transformation finished. Total CPU:   4.46 sec, npass=  1  Memory used:  53.82 MW

 Reference energy:                   -337.94170163

 MP2 singlet pair energy:              -0.61957395
 MP2 triplet pair energy:              -0.40481658
 MP2 correlation energy:               -1.02439053
 MP2 total energy:                   -338.96609216

 SCS-MP2 correlation energy:           -0.99537461   (PS=  1.200000  PT=  0.333333)
 SCS-MP2 total energy:               -338.93707624

 ITER.      SQ.NORM     CORR.ENERGY   TOTAL ENERGY   ENERGY CHANGE        DEN1      VAR(S)    VAR(P)  DIIS     TIME
   1      1.31869062    -1.05310200  -338.99480363    -0.02871147     0.00239111  0.10D-01  0.60D-02  1  1    18.61
   2      1.34412970    -1.05505018  -338.99675180    -0.00194818    -0.02586001  0.22D-03  0.11D-02  2  2    32.86
   3      1.35670133    -1.05594435  -338.99764597    -0.00089417    -0.00554421  0.22D-03  0.51D-04  3  3    47.14
   4      1.36189366    -1.05568106  -338.99738269     0.00026328    -0.00168458  0.21D-04  0.92D-05  4  4    61.43
   5      1.36401347    -1.05562484  -338.99732646     0.00005623    -0.00044177  0.26D-05  0.11D-05  5  5    75.72
   6      1.36452107    -1.05559547  -338.99729709     0.00002937    -0.00004742  0.24D-06  0.17D-06  6  6    90.01
   7      1.36464835    -1.05558358  -338.99728520     0.00001189    -0.00000765  0.31D-07  0.22D-07  6  2   104.30
   8      1.36467239    -1.05558344  -338.99728507     0.00000014    -0.00000000  0.57D-08  0.26D-08  6  1   118.59
   9      1.36467472    -1.05558315  -338.99728478     0.00000029     0.00000184  0.92D-09  0.46D-09  6  4   132.88
  10      1.36467881    -1.05558309  -338.99728472     0.00000006    -0.00000044  0.25D-09  0.47D-10  6  3   147.19
  11      1.36467903    -1.05558317  -338.99728480    -0.00000008     0.00000016  0.38D-10  0.11D-10  6  5   161.48
  12      1.36467884    -1.05558319  -338.99728481    -0.00000002     0.00000008  0.53D-11  0.26D-11  6  6   175.78
  13      1.36467854    -1.05558323  -338.99728485    -0.00000004     0.00000013  0.80D-12  0.35D-12  6  2   190.09
  14      1.36467838    -1.05558324  -338.99728486    -0.00000001     0.00000004  0.11D-12  0.69D-13  6  1   204.40
  15      1.36467832    -1.05558324  -338.99728487    -0.00000000     0.00000001  0.23D-13  0.14D-13  6  4   218.71
  16      1.36467829    -1.05558324  -338.99728487    -0.00000000     0.00000000  0.42D-14  0.23D-14  6  3   233.00
  17      1.36467828    -1.05558324  -338.99728487    -0.00000000    -0.00000000  0.11D-14  0.37D-15  6  5   247.30
  18      1.36467828    -1.05558324  -338.99728487    -0.00000000     0.00000000  0.17D-15  0.96D-16  6  6   261.58
  19      1.36467827    -1.05558324  -338.99728487    -0.00000000     0.00000000  0.50D-16  0.18D-16  6  2   275.89
  20      1.36467827    -1.05558324  -338.99728487    -0.00000000     0.00000000  0.11D-16  0.33D-17  6  1   290.17
  21      1.36467827    -1.05558324  -338.99728487    -0.00000000     0.00000000  0.28D-17  0.10D-17  6  4   304.48
  22      1.36467827    -1.05558324  -338.99728487     0.00000000     0.00000000  0.80D-18  0.30D-18  6  3   318.78
  23      1.36467827    -1.05558324  -338.99728487     0.00000000    -0.00000000  0.23D-18  0.60D-19  6  5   333.08
  24      1.36467827    -1.05558324  -338.99728487     0.00000000    -0.00000000  0.49D-19  0.16D-19  6  6   347.36
  25      1.36467827    -1.05558324  -338.99728487     0.00000000    -0.00000000  0.87D-20  0.45D-20  6  2   361.65
  26      1.36467827    -1.05558324  -338.99728487    -0.00000000    -0.00000000  0.26D-20  0.10D-20  6  1   375.94
  27      1.36467827    -1.05558324  -338.99728487     0.00000000     0.00000000  0.65D-21  0.23D-21  6  5   390.23

 Norm of t1 vector:      0.14794920      S-energy:     0.00000000      T1 diagnostic:  0.01743598
                                                                       D1 diagnostic:  0.05903492


 Total CPU time for triples:    260.68 sec


 RESULTS
 =======

  Reference energy                   -337.941701626574
  CCSD singlet pair energy             -0.696703301115
  CCSD triplet pair energy             -0.358879941409
  CCSD correlation energy              -1.055583242523

  Triples (T) contribution             -0.039272066148
  Total correlation energy             -1.094855308671

  CCSD total energy                  -338.997284869097
  CCSD[T] energy                     -339.039750471987
  CCSD-T energy                      -339.035460766980
 !CCSD(T) total energy               -339.036556935245

 Timing summary (sec):

 STEP                 CPU(USER)    SYS     CPU(TOT)    WALL
 Transformation          4.63      0.37      5.00      5.01
 CCSD iterations       385.61      6.08    391.69    391.92
 Triples               260.68      4.11    264.79    264.84

 Program statistics:

 Available memory in ccsd:               999998604
 Min. memory needed in ccsd:               8471140
 Max. memory used in ccsd:                11533156
 Max. memory used in cckext:              10081612 (27 integral passes)



 **********************************************************************************************************************************
 DATASETS  * FILE   NREC   LENGTH (MB)   RECORD NAMES
              1      20      923.00       500      610      700      900      950      970     1000      129      960     1100   
                                          VAR    BASINP    GEOM    SYMINP    ZMAT    AOBASIS   BASIS     P2S    ABASIS      S 
                                         1400     1410     1200     1210     1080     1600     1650     1300     1700     1380   
                                           T        V       H0       H01     AOSYM     SMH    MOLCAS    ERIS     OPER     JKOP   

              2       3        1.03       700     1000     2100   
                                         GEOM     BASIS     RHF  

 PROGRAMS   *        TOTAL   CCSD(T)       RHF       INT
 CPU TIMES  *       672.52    650.94     15.68      5.86
 REAL TIME  *       686.10 SEC
 DISK USED  *         2.57 GB      
 GA USED    *         0.00 MB       (max)       0.00 MB       (current)
 **********************************************************************************************************************************

        CCSD(T)         RHF-SCF 
   -339.03655694   -337.94170163
 **********************************************************************************************************************************
 Variable memory released
