
 Primary working directories    : /tmp/1047041.1394.gen4.q
 Secondary working directories  : /tmp/1047041.1394.gen4.q
 Wavefunction directory         : /home/vulcan/mel64643/wfu/
 Main file repository           : /tmp/1047041.1394.gen4.q/

 ARCHNAME  : Linux/x86_64
 FC        : /opt/intel/compilers_and_libraries_2016.1.150/linux/bin/intel64/ifort
 FCVERSION : 16.0.1
 BLASLIB   : -mkl
 id        : ccgc

 Nodes     nprocs
 n066         1
 ga_uses_ma=false, calling ma_init with nominal heap.
 GA-space will be limited to   8.0 MW (determined by -G option)

 Using customized tuning parameters: mindgm=10; mindgv=16; mindgc=4; mindgr=1; noblas=0; mincuda=1000; minvec=7
 default implementation of scratch files=df  

 ***,Optimization of ben_hcn
 memory,1000,m
 gthresh,energy=1.0d-12,orbital=1.0d-10,oneint=1.0d-16,twoint=1.0d-16,optgrad=1.0d-6,compress=1.0d-13
 geomtyp=xyz
 
 
 
 bohr
 geometry = {
  C   -1.8825477849    1.3672700963    2.2886153099
  C   -1.8461207316    2.6877652765   -0.0012519417
  C   -1.8658067512    1.3651792993   -2.2901023300
  C   -1.9218817581   -1.2776916852   -2.2890017585
  C   -1.9582940407   -2.5980042299    0.0007350005
  C   -1.9386017095   -1.2756204535    2.2894935430
  H   -1.8732961757    2.3919376945    4.0617905794
  H   -1.8029304659    4.7352936571   -0.0020404397
  H   -1.8256894848    2.3878283464   -4.0640075195
  H   -1.9188674163   -2.3025790460   -4.0620402895
  H   -1.9891759161   -4.6457052540    0.0015648377
  H   -1.9663305715   -2.2985827159    4.0634343717
  N    6.6265339568   -0.1593689718   -0.0227726032
  C    4.4354023712   -0.0679201575    0.0005303809
  H    2.4144077254    0.0167216917    0.0221533731
 }
 
 basis=aug-cc-pvdz, H=cc-pvdz
 {rhf;maxit,200}
 {ccsd(t)}

 Variables initialized (661), CPU time= 0.00 sec
 Commands  initialized (458), CPU time= 0.01 sec, 486 directives.
 Default parameters read. Elapsed time= 0.05 sec

 Checking input...
 Passed
1


                                         ***  PROGRAM SYSTEM MOLPRO  ***
                         Copyright, University College Cardiff Consultants Limited, 2008

                                    Version 2010.1 linked May 16 2016 07:17:05


 **********************************************************************************************************************************
 LABEL *   Optimization of ben_hcn                                                       
 Linux-4.4.3/n066(x86_64) 64 bit mpp version                                             DATE: 09-Mar-24          TIME: 22:58:22  
 **********************************************************************************************************************************

 SHA1:             9e8077add272b0f3cad6f7df79ec5211205f459d
 **********************************************************************************************************************************

 THRESHOLDS:

 ZERO    =  1.00D-12  ONEINT  =  1.00D-16  TWOINT  =  1.00D-16  PREFAC  =  1.00D-14  LOCALI  =  1.00D-09  EORDER  =  1.00D-04
 ENERGY  =  1.00D-12  ETEST   =  0.00D+00  EDENS   =  0.00D+00  THRDEDEF=  1.00D-06  GRADIENT=  1.00D-02  STEP    =  1.00D-03
 ORBITAL =  1.00D-10  CIVEC   =  1.00D-05  COEFF   =  1.00D-04  PRINTCI =  5.00D-02  PUNCHCI =  9.90D+01  OPTGRAD =  1.00D-06
 OPTENERG=  1.00D-06  OPTSTEP =  3.00D-04  THRGRAD =  1.00D-10  COMPRESS=  1.00D-13  VARMIN  =  1.00D-07  VARMAX  =  1.00D-03
 THRDOUB =  0.00D+00  THRDIV  =  1.00D-05  THRRED  =  1.00D-07  THRPSP  =  1.00D+00  THRDC   =  1.00D-10  THRCS   =  1.00D-10
 THRNRM  =  1.00D-08  THREQ   =  0.00D+00  THRDE   =  1.00D+00  THRREF  =  1.00D-05  SPARFAC =  1.00D+00  THRDLP  =  1.00D-07
 THRDIA  =  1.00D-10  THRDLS  =  1.00D-07  THRGPS  =  0.00D+00  THRKEX  =  0.00D+00  THRDIS  =  2.00D-01  THRVAR  =  1.00D-10
 THRLOC  =  1.00D-06  THRGAP  =  1.00D-06  THRLOCT = -1.00D+00  THRGAPT = -1.00D+00  THRORB  =  1.00D-06  THRMLTP =  0.00D+00
 THRCPQCI=  1.00D-10  KEXTA   =  0.00D+00  THRCOARS=  0.00D+00  SYMTOL  =  1.00D-06  GRADTOL =  1.00D-06  THROVL  =  1.00D-08
 THRORTH =  1.00D-08  GRID    =  1.00D-06  GRIDMAX =  1.00D-03  DTMAX   =  0.00D+00

 SETTING GEOMTYP        =    XYZ
 ZUNIT=BOHR
 

 Variable memory set to 1000000000 words,  buffer space   230000 words

 SETTING BASIS          =    AUG-CC-PVDZ,H=CC-PVDZ


 Recomputing integrals since basis changed


 Using spherical harmonics

 Library entry C      S aug-cc-pVDZ          selected for orbital group  1
 Library entry C      P aug-cc-pVDZ          selected for orbital group  1
 Library entry C      D aug-cc-pVDZ          selected for orbital group  1
 Library entry H      S cc-pVDZ              selected for orbital group  2
 Library entry H      P cc-pVDZ              selected for orbital group  2
 Library entry N      S aug-cc-pVDZ          selected for orbital group  3
 Library entry N      P aug-cc-pVDZ          selected for orbital group  3
 Library entry N      D aug-cc-pVDZ          selected for orbital group  3

1PROGRAM * SEWARD (Integral evaluation for generally contracted gaussian basis sets)     Author: Roland Lindh, 1990

 Geometry written to block  1 of record 700


 Point group  C1  



 ATOMIC COORDINATES

 NR  ATOM    CHARGE       X              Y              Z

   1  C       6.00   -1.882547785    1.367270096    2.288615310
   2  C       6.00   -1.846120732    2.687765276   -0.001251942
   3  C       6.00   -1.865806751    1.365179299   -2.290102330
   4  C       6.00   -1.921881758   -1.277691685   -2.289001758
   5  C       6.00   -1.958294041   -2.598004230    0.000735001
   6  C       6.00   -1.938601710   -1.275620453    2.289493543
   7  H       1.00   -1.873296176    2.391937695    4.061790579
   8  H       1.00   -1.802930466    4.735293657   -0.002040440
   9  H       1.00   -1.825689485    2.387828346   -4.064007519
  10  H       1.00   -1.918867416   -2.302579046   -4.062040289
  11  H       1.00   -1.989175916   -4.645705254    0.001564838
  12  H       1.00   -1.966330571   -2.298582716    4.063434372
  13  N       7.00    6.626533957   -0.159368972   -0.022772603
  14  C       6.00    4.435402371   -0.067920157    0.000530381
  15  H       1.00    2.414407725    0.016721692    0.022153373

 Bond lengths in Bohr (Angstrom)

 1-2  2.643582131  1-6  2.643485062  1-7  2.047969681  2-3  2.643569047  2-8  2.047984006
     ( 1.398923414)     ( 1.398872047)     ( 1.083738880)     ( 1.398916490)     ( 1.083746461)

  3- 4  2.643466031   3- 9  2.047964865   4- 5  2.643377668   4-10  2.047942582   5- 6  2.643388414
       ( 1.398861977)       ( 1.083736332)       ( 1.398815217)       ( 1.083724540)       ( 1.398820903)

  5-11  2.047934048   6-12  2.047946958  13-14  2.193162908  14-15  2.022881893
       ( 1.083720023)       ( 1.083726856)       ( 1.160571826)       ( 1.070462995)

 Bond angles

  1- 2- 3  119.99746374   1- 2- 8  120.00150609   1- 6- 5  120.00123522   1- 6-12  119.99793405

  2-1-6  119.99850621   2-1-7  119.99929515   2-3-4  119.99920915   2-3-9  119.99883028

  3- 2- 8  120.00102956   3- 4- 5  120.00130675   3- 4-10  119.99622821   4- 3- 9  120.00083837

  4- 5- 6  120.00227891   4- 5-11  119.99875802   5- 4-10  119.99983838   5- 6-12  120.00082920

  6- 1- 7  120.00191877   6- 5-11  119.99771326  13-14-15  179.99091354

 NUCLEAR CHARGE:                   56
 NUMBER OF PRIMITIVE AOS:         345
 NUMBER OF SYMMETRY AOS:          329
 NUMBER OF CONTRACTIONS:          219   ( 219A   )
 NUMBER OF CORE ORBITALS:           8   (   8A   )
 NUMBER OF VALENCE ORBITALS:       39   (  39A   )


 NUCLEAR REPULSION ENERGY  303.38326526


 Eigenvalues of metric

         1 0.864E-05 0.186E-04 0.229E-04 0.534E-04 0.630E-04 0.630E-04 0.929E-04 0.929E-04


 Contracted 2-electron integrals neglected if value below      1.0D-16
 AO integral compression algorithm  1   Integral accuracy      1.0D-16

     2341.470 MB (compressed) written to integral file ( 91.3%)

     Node minimum: 2341.470 MB, node maximum: 2341.470 MB


 NUMBER OF SORTED TWO-ELECTRON INTEGRALS:  290176095.     BUFFER LENGTH:  32768
 NUMBER OF SEGMENTS:  19  SEGMENT LENGTH:   15999762      RECORD LENGTH: 524288

 Memory used in sort:      16.56 MW

 SORT1 READ   320642736. AND WROTE   287607911. INTEGRALS IN    832 RECORDS. CPU TIME:     3.30 SEC, REAL TIME:     9.07 SEC
 SORT2 READ   287607911. AND WROTE   290176095. INTEGRALS IN   8932 RECORDS. CPU TIME:     1.91 SEC, REAL TIME:     2.99 SEC

 FILE SIZES:   FILE 1:  2152.6 MBYTE,  FILE 4:  3489.7 MBYTE,   TOTAL:   5642.3 MBYTE

 OPERATOR DM      FOR CENTER  0  COORDINATES:    0.000000    0.000000    0.000000


 **********************************************************************************************************************************
 DATASETS  * FILE   NREC   LENGTH (MB)   RECORD NAMES
              1      19     2153.17       500      610      700      900      950      970     1000      129      960     1100   
                                          VAR    BASINP    GEOM    SYMINP    ZMAT    AOBASIS   BASIS     P2S    ABASIS      S 
                                         1400     1410     1200     1210     1080     1600     1650     1300     1700   
                                           T        V       H0       H01     AOSYM     SMH    MOLCAS    ERIS     OPER   

 PROGRAMS   *        TOTAL       INT
 CPU TIMES  *        18.32     18.28
 REAL TIME  *        26.49 SEC
 DISK USED  *         7.98 GB      
 GA USED    *         0.01 MB       (max)       0.00 MB       (current)
 **********************************************************************************************************************************

1PROGRAM * RHF-SCF (CLOSED SHELL)       Authors: W. Meyer, H.-J. Werner


 NUMBER OF ELECTRONS:      28+   28-    SPACE SYMMETRY=1    SPIN SYMMETRY: Singlet 
 CONVERGENCE THRESHOLDS:    1.00E-10 (Density)    1.00E-13 (Energy)
 MAX. NUMBER OF ITERATIONS:      200
 INTERPOLATION TYPE:            DIIS
 INTERPOLATION STEPS:              2 (START)      1 (STEP)
 LEVEL SHIFTS:                  0.00 (CLOSED)  0.00 (OPEN) 



 Orbital guess generated from atomic densities. Full valence occupancy:   47

 Molecular orbital dump at record        2100.2

 ITERATION    DDIFF          GRAD             ENERGY        2-EL.EN.            DIPOLE MOMENTS         DIIS
    1      0.000D+00      0.000D+00      -323.54138166    822.102929   -1.89990    0.07666    0.01899    0
    2      0.000D+00      0.292D-02      -323.59782075    819.082551   -1.36934    0.03897    0.00697    1
    3      0.781D-02      0.179D-02      -323.61441707    820.227784   -1.73051    0.06040    0.01322    2
    4      0.260D-02      0.576D-03      -323.61675346    820.429405   -1.63970    0.05495    0.01172    3
    5      0.963D-03      0.133D-03      -323.61688279    820.169444   -1.66365    0.05561    0.01179    4
    6      0.223D-03      0.229D-04      -323.61688891    820.196307   -1.66500    0.05557    0.01177    5
    7      0.845D-04      0.434D-05      -323.61688911    820.191423   -1.66535    0.05553    0.01175    6
    8      0.108D-04      0.123D-05      -323.61688913    820.192418   -1.66567    0.05556    0.01177    7
    9      0.344D-05      0.263D-06      -323.61688913    820.192446   -1.66563    0.05554    0.01175    6
   10      0.811D-06      0.572D-07      -323.61688913    820.192431   -1.66564    0.05556    0.01176    6
   11      0.182D-06      0.278D-07      -323.61688913    820.192442   -1.66564    0.05555    0.01176    7
   12      0.634D-07      0.658D-08      -323.61688913    820.192438   -1.66563    0.05555    0.01176    7
   13      0.208D-07      0.214D-08      -323.61688913    820.192440   -1.66563    0.05555    0.01176    7
   14      0.561D-08      0.651D-09      -323.61688913    820.192439   -1.66563    0.05555    0.01176    7
   15      0.204D-08      0.293D-09      -323.61688913    820.192439   -1.66563    0.05555    0.01176    8
   16      0.681D-09      0.773D-10      -323.61688913    820.192439   -1.66563    0.05555    0.01176    8
   17      0.279D-09      0.285D-10      -323.61688913    820.192439   -1.66563    0.05555    0.01176    8
   18      0.167D-09      0.913D-11      -323.61688913    820.192439   -1.66563    0.05555    0.01176    8
   19      0.213D-09      0.404D-11      -323.61688913    820.192439   -1.66563    0.05555    0.01176    8
   20      0.187D-09      0.210D-11      -323.61688913    820.192439   -1.66563    0.05555    0.01176    8
   21      0.160D-09      0.119D-11      -323.61688913    820.192439   -1.66563    0.05555    0.01176    9
   22      0.926D-10      0.710D-12      -323.61688913    820.192439   -1.66563    0.05555    0.01176    9
   23      0.621D-10      0.657D-12      -323.61688913    820.192439   -1.66563    0.05555    0.01176    9
   24      0.598D-10      0.608D-12      -323.61688913    820.192439   -1.66563    0.05555    0.01176    9
   25      0.536D-10      0.482D-12      -323.61688913    820.192439   -1.66563    0.05555    0.01176    9
   26      0.426D-10      0.521D-12      -323.61688913    820.192439   -1.66563    0.05555    0.01176    9
   27      0.278D-10      0.435D-12      -323.61688913    820.192439   -1.66563    0.05555    0.01176    9
   28      0.214D-10      0.420D-12      -323.61688913    820.192439   -1.66563    0.05555    0.01176    9
   29      0.151D-10      0.352D-12      -323.61688913    820.192439   -1.66563    0.05555    0.01176    9
   30      0.207D-10      0.461D-12      -323.61688913    820.192439   -1.66563    0.05555    0.01176    9
   31      0.132D-10      0.446D-12      -323.61688913    820.192439   -1.66563    0.05555    0.01176    9
   32      0.737D-11      0.465D-12      -323.61688913    820.192439   -1.66563    0.05555    0.01176    9
   33      0.957D-11      0.416D-12      -323.61688913    820.192439   -1.66563    0.05555    0.01176    9
   34      0.132D-10      0.476D-12      -323.61688913    820.192439   -1.66563    0.05555    0.01176    9
   35      0.158D-10      0.531D-12      -323.61688913    820.192439   -1.66563    0.05555    0.01176    9
   36      0.136D-10      0.443D-12      -323.61688913    820.192439   -1.66563    0.05555    0.01176    9
   37      0.928D-11      0.419D-12      -323.61688913    820.192439   -1.66563    0.05555    0.01176    0

 Final occupancy:  28

 !RHF STATE 1.1 Energy               -323.616889129980
 Nuclear energy                       303.38326526
 One-electron energy                -1037.09637400
 Two-electron energy                  410.09621961
 Virial quotient                       -1.00171007
 !RHF STATE 1.1 Dipole moment          -1.66563275     0.05554752     0.01175899
 Dipole moment /Debye                  -4.23333889     0.14117847     0.02988642

 Orbital energies:

         1.1          2.1          3.1          4.1          5.1          6.1          7.1          8.1          9.1         10.1
    -15.591655   -11.283867   -11.266251   -11.265705   -11.265701   -11.264521   -11.264516   -11.263933    -1.218340    -1.173922

        11.1         12.1         13.1         14.1         15.1         16.1         17.1         18.1         19.1         20.1
     -1.037791    -1.037790    -0.845723    -0.845721    -0.789911    -0.729364    -0.664879    -0.639195    -0.608567    -0.608564

        21.1         22.1         23.1         24.1         25.1         26.1         27.1         28.1         29.1         30.1
     -0.565233    -0.520377    -0.514858    -0.514857    -0.475694    -0.475692    -0.359672    -0.359668     0.055866     0.060081


 **********************************************************************************************************************************
 DATASETS  * FILE   NREC   LENGTH (MB)   RECORD NAMES
              1      19     2153.17       500      610      700      900      950      970     1000      129      960     1100   
                                          VAR    BASINP    GEOM    SYMINP    ZMAT    AOBASIS   BASIS     P2S    ABASIS      S 
                                         1400     1410     1200     1210     1080     1600     1650     1300     1700   
                                           T        V       H0       H01     AOSYM     SMH    MOLCAS    ERIS     OPER   

              2       3        1.49       700     1000     2100   
                                         GEOM     BASIS     RHF  

 PROGRAMS   *        TOTAL       RHF       INT
 CPU TIMES  *       101.70     83.37     18.28
 REAL TIME  *       118.61 SEC
 DISK USED  *         7.98 GB      
 GA USED    *         0.01 MB       (max)       0.00 MB       (current)
 **********************************************************************************************************************************


1PROGRAM * CCSD (Closed-shell coupled cluster)     Authors: C. Hampel, H.-J. Werner, 1991, M. Deegan, P.J. Knowles, 1992


 Convergence thresholds:  THRVAR = 1.00D-08  THRDEN = 1.00D-12

 CCSD(T)     terms to be evaluated (factor= 1.000)


 Number of core orbitals:           8 (   8 )
 Number of closed-shell orbitals:  20 (  20 )
 Number of external orbitals:     191 ( 191 )

 Molecular orbitals read from record     2100.2  Type=RHF/CANONICAL (state 1.1)

 Number of N-1 electron functions:              20
 Number of N-2 electron functions:             210
 Number of singly external CSFs:              3820
 Number of doubly external CSFs:           7298110
 Total number of CSFs:                     7301931

 Length of J-op  integral file:               0.00 MB
 Length of K-op  integral file:               3.32 MB
 Length of 3-ext integral record:             0.00 MB

 Memory could be reduced to 174.82 Mwords without degradation in triples

 Integral transformation finished. Total CPU:  19.08 sec, npass=  1  Memory used: 128.13 MW

 Reference energy:                   -323.61688913

 MP2 singlet pair energy:              -0.67334252
 MP2 triplet pair energy:              -0.43519618
 MP2 correlation energy:               -1.10853870
 MP2 total energy:                   -324.72542783

 SCS-MP2 correlation energy:           -1.07879976   (PS=  1.200000  PT=  0.333333)
 SCS-MP2 total energy:               -324.69568889

 ITER.      SQ.NORM     CORR.ENERGY   TOTAL ENERGY   ENERGY CHANGE        DEN1      VAR(S)    VAR(P)  DIIS     TIME
   1      1.42873316    -1.14462175  -324.76151088    -0.03608305    -0.00289075  0.51D-02  0.99D-02  1  1    71.13
   2      1.46305565    -1.15049527  -324.76738440    -0.00587352    -0.03103142  0.83D-04  0.13D-02  2  2   123.67
   3      1.47634756    -1.15094298  -324.76783211    -0.00044772    -0.00655958  0.40D-04  0.12D-03  3  3   176.23
   4      1.48203989    -1.15119269  -324.76808182    -0.00024970    -0.00178587  0.22D-05  0.15D-04  4  4   228.80
   5      1.48356926    -1.15122838  -324.76811751    -0.00003570    -0.00036587  0.25D-06  0.14D-05  5  5   281.41
   6      1.48387543    -1.15121987  -324.76810900     0.00000852    -0.00005024  0.24D-07  0.91D-07  6  6   334.00
   7      1.48391021    -1.15122328  -324.76811241    -0.00000341    -0.00000225  0.34D-08  0.80D-08  6  2   386.61
   8      1.48391488    -1.15122363  -324.76811276    -0.00000036    -0.00000042  0.41D-09  0.83D-09  6  1   439.23
   9      1.48391511    -1.15122380  -324.76811293    -0.00000017     0.00000079  0.63D-10  0.78D-10  6  3   491.83
  10      1.48391548    -1.15122386  -324.76811299    -0.00000006     0.00000002  0.99D-11  0.98D-11  6  4   544.45
  11      1.48391520    -1.15122390  -324.76811303    -0.00000004     0.00000022  0.16D-11  0.14D-11  6  5   597.06
  12      1.48391504    -1.15122391  -324.76811304    -0.00000001     0.00000008  0.24D-12  0.27D-12  6  6   649.70
  13      1.48391491    -1.15122391  -324.76811304    -0.00000000     0.00000005  0.14D-13  0.52D-13  6  2   702.30
  14      1.48391484    -1.15122391  -324.76811304    -0.00000000     0.00000002  0.21D-14  0.93D-14  6  1   754.90
  15      1.48391482    -1.15122391  -324.76811304     0.00000000     0.00000001  0.45D-15  0.13D-14  6  3   807.55
  16      1.48391481    -1.15122391  -324.76811304    -0.00000000     0.00000000  0.97D-16  0.19D-15  6  4   860.20
  17      1.48391480    -1.15122391  -324.76811304    -0.00000000     0.00000000  0.19D-16  0.28D-16  6  5   912.84
  18      1.48391480    -1.15122391  -324.76811304    -0.00000000     0.00000000  0.36D-17  0.35D-17  6  6   965.46
  19      1.48391480    -1.15122391  -324.76811304    -0.00000000     0.00000000  0.83D-18  0.61D-18  6  2  1018.10
  20      1.48391480    -1.15122391  -324.76811304    -0.00000000     0.00000000  0.18D-18  0.13D-18  6  1  1070.71
  21      1.48391480    -1.15122391  -324.76811304    -0.00000000     0.00000000  0.64D-19  0.39D-19  6  3  1123.31
  22      1.48391480    -1.15122391  -324.76811304     0.00000000     0.00000000  0.30D-19  0.17D-19  6  4  1175.91

 Norm of t1 vector:      0.09773702      S-energy:     0.00000000      T1 diagnostic:  0.01092733
                                                                       D1 diagnostic:  0.02771708

 Doubles amplitudes (print threshold =  0.500E-01):

         I         J         SYM. A    SYM. B    A         B      T(IJ, AB)

        19        19         1         1         7         7     -0.06162694
        20        20         1         1         8         8     -0.06162651


 Total CPU time for triples:   1084.02 sec


 RESULTS
 =======

  Reference energy                   -323.616889129980
  CCSD singlet pair energy             -0.770020041879
  CCSD triplet pair energy             -0.381203870632
  CCSD correlation energy              -1.151223912511

  Triples (T) contribution             -0.054015267999
  Total correlation energy             -1.205239180511

  CCSD total energy                  -324.768113042491
  CCSD[T] energy                     -324.823460627706
  CCSD-T energy                      -324.821522835243
 !CCSD(T) total energy               -324.822128310491

 Timing summary (sec):

 STEP                 CPU(USER)    SYS     CPU(TOT)    WALL
 Transformation         19.63      1.08     20.71     20.73
 CCSD iterations      1156.31     14.56   1170.87   1171.07
 Triples              1084.02     15.93   1099.95   1100.11

 Program statistics:

 Available memory in ccsd:               999998300
 Min. memory needed in ccsd:              17709720
 Max. memory used in ccsd:                24415330
 Max. memory used in cckext:              20754978 (22 integral passes)



 **********************************************************************************************************************************
 DATASETS  * FILE   NREC   LENGTH (MB)   RECORD NAMES
              1      20     2835.33       500      610      700      900      950      970     1000      129      960     1100   
                                          VAR    BASINP    GEOM    SYMINP    ZMAT    AOBASIS   BASIS     P2S    ABASIS      S 
                                         1400     1410     1200     1210     1080     1600     1650     1300     1700     1380   
                                           T        V       H0       H01     AOSYM     SMH    MOLCAS    ERIS     OPER     JKOP   

              2       3        1.49       700     1000     2100   
                                         GEOM     BASIS     RHF  

 PROGRAMS   *        TOTAL   CCSD(T)       RHF       INT
 CPU TIMES  *      2361.67   2259.97     83.37     18.28
 REAL TIME  *      2410.65 SEC
 DISK USED  *         7.98 GB      
 GA USED    *         0.01 MB       (max)       0.00 MB       (current)
 **********************************************************************************************************************************

        CCSD(T)         RHF-SCF 
   -324.82212831   -323.61688913
 **********************************************************************************************************************************
 Variable memory released
