
 Primary working directories    : /tmp/1049102.43.gen6.q
 Secondary working directories  : /tmp/1049102.43.gen6.q
 Wavefunction directory         : /home/vulcan/mel64643/wfu/
 Main file repository           : /tmp/1049102.43.gen6.q/

 ARCHNAME  : Linux/x86_64
 FC        : /opt/intel/compilers_and_libraries_2016.1.150/linux/bin/intel64/ifort
 FCVERSION : 16.0.1
 BLASLIB   : -mkl
 id        : ccgc

 Nodes     nprocs
 n076         1
 ga_uses_ma=false, calling ma_init with nominal heap.
 GA-space will be limited to   8.0 MW (determined by -G option)

 Using customized tuning parameters: mindgm=10; mindgv=16; mindgc=4; mindgr=1; noblas=0; mincuda=1000; minvec=7
 default implementation of scratch files=df  

 ***,Optimization of h2o_3
 memory,1000,m
 gthresh,energy=1.0d-12,orbital=1.0d-10,oneint=1.0d-16,twoint=1.0d-16,optgrad=1.0d-6,compress=1.0d-13
 geomtyp=xyz
 
 
 
 bohr
 geometry = {
  C    0.9158975077    1.4036011229   -2.2693464034
  C    0.7402445047    2.7053185947    0.0186275514
  C    0.9984703974    1.4039079144    2.2990954043
  C    1.4307536697   -1.1992731755    2.2915899515
  C    1.6071326892   -2.5004992561    0.0036581756
  C    1.3489651647   -1.1988650709   -2.2766056252
  H    0.7055594652    2.4178935580   -4.0361488829
  H    0.3890856956    4.7228337876    0.0185858852
  H    0.8577697799    2.4088157696    4.0783652230
  H    1.6277849937   -2.2045260246    4.0654946093
  H    1.9405727565   -4.5214634559   -0.0081160691
  H    1.4843616334   -2.2144901025   -4.0504793210
  N   -5.4427730408   -0.3572897055   -0.0705942506
  H   -5.5914350531   -1.5686409972   -1.5510744498
  H   -6.0693696372   -1.3154566842    1.4690268948
  H   -3.5620886597   -0.0736558727    0.1979989840
 }
 
 basis=aug-cc-pvdz, H=cc-pvdz
 {rhf;maxit,200}
 {ccsd(t)}

 Variables initialized (661), CPU time= 0.00 sec
 Commands  initialized (458), CPU time= 0.00 sec, 486 directives.
 Default parameters read. Elapsed time= 0.04 sec

 Checking input...
 Passed
1


                                         ***  PROGRAM SYSTEM MOLPRO  ***
                         Copyright, University College Cardiff Consultants Limited, 2008

                                    Version 2010.1 linked May 16 2016 07:17:05


 **********************************************************************************************************************************
 LABEL *   Optimization of h2o_3                                                         
 Linux-4.4.3/n076(x86_64) 64 bit mpp version                                             DATE: 18-Mar-24          TIME: 12:28:07  
 **********************************************************************************************************************************

 SHA1:             9e8077add272b0f3cad6f7df79ec5211205f459d
 **********************************************************************************************************************************

 THRESHOLDS:

 ZERO    =  1.00D-12  ONEINT  =  1.00D-16  TWOINT  =  1.00D-16  PREFAC  =  1.00D-14  LOCALI  =  1.00D-09  EORDER  =  1.00D-04
 ENERGY  =  1.00D-12  ETEST   =  0.00D+00  EDENS   =  0.00D+00  THRDEDEF=  1.00D-06  GRADIENT=  1.00D-02  STEP    =  1.00D-03
 ORBITAL =  1.00D-10  CIVEC   =  1.00D-05  COEFF   =  1.00D-04  PRINTCI =  5.00D-02  PUNCHCI =  9.90D+01  OPTGRAD =  1.00D-06
 OPTENERG=  1.00D-06  OPTSTEP =  3.00D-04  THRGRAD =  1.00D-10  COMPRESS=  1.00D-13  VARMIN  =  1.00D-07  VARMAX  =  1.00D-03
 THRDOUB =  0.00D+00  THRDIV  =  1.00D-05  THRRED  =  1.00D-07  THRPSP  =  1.00D+00  THRDC   =  1.00D-10  THRCS   =  1.00D-10
 THRNRM  =  1.00D-08  THREQ   =  0.00D+00  THRDE   =  1.00D+00  THRREF  =  1.00D-05  SPARFAC =  1.00D+00  THRDLP  =  1.00D-07
 THRDIA  =  1.00D-10  THRDLS  =  1.00D-07  THRGPS  =  0.00D+00  THRKEX  =  0.00D+00  THRDIS  =  2.00D-01  THRVAR  =  1.00D-10
 THRLOC  =  1.00D-06  THRGAP  =  1.00D-06  THRLOCT = -1.00D+00  THRGAPT = -1.00D+00  THRORB  =  1.00D-06  THRMLTP =  0.00D+00
 THRCPQCI=  1.00D-10  KEXTA   =  0.00D+00  THRCOARS=  0.00D+00  SYMTOL  =  1.00D-06  GRADTOL =  1.00D-06  THROVL  =  1.00D-08
 THRORTH =  1.00D-08  GRID    =  1.00D-06  GRIDMAX =  1.00D-03  DTMAX   =  0.00D+00

 SETTING GEOMTYP        =    XYZ
 ZUNIT=BOHR
 

 Variable memory set to 1000000000 words,  buffer space   230000 words

 SETTING BASIS          =    AUG-CC-PVDZ,H=CC-PVDZ


 Recomputing integrals since basis changed


 Using spherical harmonics

 Library entry C      S aug-cc-pVDZ          selected for orbital group  1
 Library entry C      P aug-cc-pVDZ          selected for orbital group  1
 Library entry C      D aug-cc-pVDZ          selected for orbital group  1
 Library entry H      S cc-pVDZ              selected for orbital group  2
 Library entry H      P cc-pVDZ              selected for orbital group  2
 Library entry N      S aug-cc-pVDZ          selected for orbital group  3
 Library entry N      P aug-cc-pVDZ          selected for orbital group  3
 Library entry N      D aug-cc-pVDZ          selected for orbital group  3

1PROGRAM * SEWARD (Integral evaluation for generally contracted gaussian basis sets)     Author: Roland Lindh, 1990

 Geometry written to block  1 of record 700


 Point group  C1  



 ATOMIC COORDINATES

 NR  ATOM    CHARGE       X              Y              Z

   1  C       6.00    0.915897508    1.403601123   -2.269346403
   2  C       6.00    0.740244505    2.705318595    0.018627551
   3  C       6.00    0.998470397    1.403907914    2.299095404
   4  C       6.00    1.430753670   -1.199273175    2.291589952
   5  C       6.00    1.607132689   -2.500499256    0.003658176
   6  C       6.00    1.348965165   -1.198865071   -2.276605625
   7  H       1.00    0.705559465    2.417893558   -4.036148883
   8  H       1.00    0.389085696    4.722833788    0.018585885
   9  H       1.00    0.857769780    2.408815770    4.078365223
  10  H       1.00    1.627784994   -2.204526025    4.065494609
  11  H       1.00    1.940572756   -4.521463456   -0.008116069
  12  H       1.00    1.484361633   -2.214490103   -4.050479321
  13  N       7.00   -5.442773041   -0.357289705   -0.070594251
  14  H       1.00   -5.591435053   -1.568640997   -1.551074450
  15  H       1.00   -6.069369637   -1.315456684    1.469026895
  16  H       1.00   -3.562088660   -0.073655873    0.197998984

 Bond lengths in Bohr (Angstrom)

 1-2  2.638209084  1-6  2.638262796  1-7  2.048077693  2-3  2.638348726  2-8  2.047847666
     ( 1.396080120)     ( 1.396108543)     ( 1.083796038)     ( 1.396154015)     ( 1.083674313)

  3- 4  2.638840076   3- 9  2.048276727   4- 5  2.637978522   4-10  2.048436567   5- 6  2.638276904
       ( 1.396414026)       ( 1.083901361)       ( 1.395958112)       ( 1.083985945)       ( 1.396116009)

  5-11  2.048320582   6-12  2.048524908  13-14  1.918669843  13-15  1.918629856  13-16  1.920823838
       ( 1.083924569)       ( 1.084032693)       ( 1.015316352)       ( 1.015295192)       ( 1.016456198)

 Bond angles

  1- 2- 3  119.98066964   1- 2- 8  119.83477553   1- 6- 5  120.02353845   1- 6-12  120.15153102

  2-1-6  120.00199443   2-1-7  119.79818223   2-3-4  120.01167273   2-3-9  120.13970150

  3- 2- 8  120.18287781   3- 4- 5  120.00135974   3- 4-10  119.82838605   4- 3- 9  119.84829406

  4- 5- 6  119.98073708   4- 5-11  120.16873081   5- 4-10  120.17024950   5- 6-12  119.82491598

  6- 1- 7  120.19908344   6- 5-11  119.85041811  14-13-15  106.17607583  14-13-16  106.08043224

 15-13-16  106.33745550

 NUCLEAR CHARGE:                   52
 NUMBER OF PRIMITIVE AOS:         322
 NUMBER OF SYMMETRY AOS:          308
 NUMBER OF CONTRACTIONS:          206   ( 206A   )
 NUMBER OF CORE ORBITALS:           7   (   7A   )
 NUMBER OF VALENCE ORBITALS:       37   (  37A   )


 NUCLEAR REPULSION ENERGY  273.99079426


 Eigenvalues of metric

         1 0.848E-05 0.182E-04 0.223E-04 0.523E-04 0.634E-04 0.636E-04 0.106E-03 0.107E-03


 Contracted 2-electron integrals neglected if value below      1.0D-16
 AO integral compression algorithm  1   Integral accuracy      1.0D-16

     1892.418 MB (compressed) written to integral file ( 94.5%)

     Node minimum: 1892.418 MB, node maximum: 1892.418 MB


 NUMBER OF SORTED TWO-ELECTRON INTEGRALS:  227303181.     BUFFER LENGTH:  32768
 NUMBER OF SEGMENTS:  15  SEGMENT LENGTH:   15999503      RECORD LENGTH: 524288

 Memory used in sort:      16.56 MW

 SORT1 READ   250231075. AND WROTE   226414702. INTEGRALS IN    654 RECORDS. CPU TIME:     2.20 SEC, REAL TIME:     3.87 SEC
 SORT2 READ   226414702. AND WROTE   227303181. INTEGRALS IN   7219 RECORDS. CPU TIME:     1.49 SEC, REAL TIME:     2.34 SEC

 FILE SIZES:   FILE 1:  1743.4 MBYTE,  FILE 4:  2743.1 MBYTE,   TOTAL:   4486.5 MBYTE

 OPERATOR DM      FOR CENTER  0  COORDINATES:    0.000000    0.000000    0.000000


 **********************************************************************************************************************************
 DATASETS  * FILE   NREC   LENGTH (MB)   RECORD NAMES
              1      19     1743.87       500      610      700      900      950      970     1000      129      960     1100   
                                          VAR    BASINP    GEOM    SYMINP    ZMAT    AOBASIS   BASIS     P2S    ABASIS      S 
                                         1400     1410     1200     1210     1080     1600     1650     1300     1700   
                                           T        V       H0       H01     AOSYM     SMH    MOLCAS    ERIS     OPER   

 PROGRAMS   *        TOTAL       INT
 CPU TIMES  *        12.63     12.60
 REAL TIME  *        16.55 SEC
 DISK USED  *         6.38 GB      
 GA USED    *         0.01 MB       (max)       0.00 MB       (current)
 **********************************************************************************************************************************

1PROGRAM * RHF-SCF (CLOSED SHELL)       Authors: W. Meyer, H.-J. Werner


 NUMBER OF ELECTRONS:      26+   26-    SPACE SYMMETRY=1    SPIN SYMMETRY: Singlet 
 CONVERGENCE THRESHOLDS:    1.00E-10 (Density)    1.00E-13 (Energy)
 MAX. NUMBER OF ITERATIONS:      200
 INTERPOLATION TYPE:            DIIS
 INTERPOLATION STEPS:              2 (START)      1 (STEP)
 LEVEL SHIFTS:                  0.00 (CLOSED)  0.00 (OPEN) 



 Orbital guess generated from atomic densities. Full valence occupancy:   44

 Molecular orbital dump at record        2100.2

 ITERATION    DDIFF          GRAD             ENERGY        2-EL.EN.            DIPOLE MOMENTS         DIIS
    1      0.000D+00      0.000D+00      -286.85322196    741.481577    0.51913   -0.76796    0.13622    0
    2      0.000D+00      0.322D-02      -286.92093236    735.623205    0.43522   -0.38455    0.06239    1
    3      0.834D-02      0.134D-02      -286.93031711    738.280534    0.45139   -0.52271    0.09233    2
    4      0.219D-02      0.381D-03      -286.93153481    737.757838    0.45006   -0.49626    0.08464    3
    5      0.785D-03      0.525D-04      -286.93155850    737.747207    0.45587   -0.50627    0.08857    4
    6      0.135D-03      0.176D-04      -286.93156091    737.761943    0.45472   -0.50081    0.08650    5
    7      0.512D-04      0.553D-05      -286.93156119    737.758864    0.45538   -0.50301    0.08725    6
    8      0.149D-04      0.128D-05      -286.93156121    737.757884    0.45553   -0.50266    0.08711    7
    9      0.417D-05      0.540D-06      -286.93156121    737.758337    0.45556   -0.50275    0.08714    7
   10      0.147D-05      0.144D-06      -286.93156121    737.758286    0.45557   -0.50275    0.08714    7
   11      0.520D-06      0.416D-07      -286.93156121    737.758271    0.45558   -0.50275    0.08714    7
   12      0.144D-06      0.179D-07      -286.93156121    737.758285    0.45557   -0.50275    0.08714    8
   13      0.628D-07      0.785D-08      -286.93156121    737.758280    0.45557   -0.50275    0.08714    8
   14      0.348D-07      0.368D-08      -286.93156121    737.758282    0.45557   -0.50275    0.08714    8
   15      0.201D-07      0.138D-08      -286.93156121    737.758281    0.45557   -0.50275    0.08714    8
   16      0.691D-08      0.452D-09      -286.93156121    737.758281    0.45557   -0.50275    0.08714    9
   17      0.204D-08      0.125D-09      -286.93156121    737.758281    0.45557   -0.50275    0.08714    9
   18      0.404D-09      0.408D-10      -286.93156121    737.758281    0.45557   -0.50275    0.08714    8
   19      0.237D-09      0.173D-10      -286.93156121    737.758281    0.45557   -0.50275    0.08714    9
   20      0.167D-09      0.931D-11      -286.93156121    737.758281    0.45557   -0.50275    0.08714    9
   21      0.193D-09      0.442D-11      -286.93156121    737.758281    0.45557   -0.50275    0.08714    9
   22      0.170D-09      0.123D-11      -286.93156121    737.758281    0.45557   -0.50275    0.08714    9
   23      0.138D-09      0.808D-12      -286.93156121    737.758281    0.45557   -0.50275    0.08714    9
   24      0.954D-10      0.649D-12      -286.93156121    737.758281    0.45557   -0.50275    0.08714    9
   25      0.694D-10      0.495D-12      -286.93156121    737.758281    0.45557   -0.50275    0.08714    9
   26      0.345D-10      0.497D-12      -286.93156121    737.758281    0.45557   -0.50275    0.08714    9
   27      0.346D-10      0.535D-12      -286.93156121    737.758281    0.45557   -0.50275    0.08714    9
   28      0.277D-10      0.506D-12      -286.93156121    737.758281    0.45557   -0.50275    0.08714    9
   29      0.207D-10      0.423D-12      -286.93156121    737.758281    0.45557   -0.50275    0.08714    9
   30      0.155D-10      0.476D-12      -286.93156121    737.758281    0.45557   -0.50275    0.08714    9
   31      0.127D-10      0.531D-12      -286.93156121    737.758281    0.45557   -0.50275    0.08714    9
   32      0.173D-10      0.475D-12      -286.93156121    737.758281    0.45557   -0.50275    0.08714    9
   33      0.100D-10      0.489D-12      -286.93156121    737.758281    0.45557   -0.50275    0.08714    9
   34      0.161D-10      0.399D-12      -286.93156121    737.758281    0.45557   -0.50275    0.08714    9
   35      0.115D-10      0.462D-12      -286.93156121    737.758281    0.45557   -0.50275    0.08714    0

 Final occupancy:  26

 !RHF STATE 1.1 Energy               -286.931561210943
 Nuclear energy                       273.99079426
 One-electron energy                 -929.80149603
 Two-electron energy                  368.87914056
 Virial quotient                       -1.00133936
 !RHF STATE 1.1 Dipole moment           0.45557298    -0.50275431     0.08713889
 Dipole moment /Debye                   1.15787518    -1.27779031     0.22147046

 Orbital energies:

         1.1          2.1          3.1          4.1          5.1          6.1          7.1          8.1          9.1         10.1
    -15.535082   -11.249951   -11.249341   -11.248987   -11.248105   -11.247964   -11.247127    -1.158790    -1.125644    -1.022711

        11.1         12.1         13.1         14.1         15.1         16.1         17.1         18.1         19.1         20.1
     -1.022605    -0.830908    -0.830809    -0.715064    -0.649811    -0.624755    -0.611784    -0.609892    -0.593734    -0.593614

        21.1         22.1         23.1         24.1         25.1         26.1         27.1         28.1
     -0.505778    -0.499993    -0.499918    -0.413512    -0.343356    -0.342370     0.063862     0.066418


 **********************************************************************************************************************************
 DATASETS  * FILE   NREC   LENGTH (MB)   RECORD NAMES
              1      19     1743.87       500      610      700      900      950      970     1000      129      960     1100   
                                          VAR    BASINP    GEOM    SYMINP    ZMAT    AOBASIS   BASIS     P2S    ABASIS      S 
                                         1400     1410     1200     1210     1080     1600     1650     1300     1700   
                                           T        V       H0       H01     AOSYM     SMH    MOLCAS    ERIS     OPER   

              2       3        1.40       700     1000     2100   
                                         GEOM     BASIS     RHF  

 PROGRAMS   *        TOTAL       RHF       INT
 CPU TIMES  *        64.80     52.17     12.60
 REAL TIME  *        74.28 SEC
 DISK USED  *         6.38 GB      
 GA USED    *         0.01 MB       (max)       0.00 MB       (current)
 **********************************************************************************************************************************


1PROGRAM * CCSD (Closed-shell coupled cluster)     Authors: C. Hampel, H.-J. Werner, 1991, M. Deegan, P.J. Knowles, 1992


 Convergence thresholds:  THRVAR = 1.00D-08  THRDEN = 1.00D-12

 CCSD(T)     terms to be evaluated (factor= 1.000)


 Number of core orbitals:           7 (   7 )
 Number of closed-shell orbitals:  19 (  19 )
 Number of external orbitals:     180 ( 180 )

 Molecular orbitals read from record     2100.2  Type=RHF/CANONICAL (state 1.1)

 Number of N-1 electron functions:              19
 Number of N-2 electron functions:             190
 Number of singly external CSFs:              3420
 Number of doubly external CSFs:           5849910
 Total number of CSFs:                     5853331

 Length of J-op  integral file:               0.00 MB
 Length of K-op  integral file:               2.96 MB
 Length of 3-ext integral record:             0.00 MB

 Memory could be reduced to 140.12 Mwords without degradation in triples

 Integral transformation finished. Total CPU:  10.50 sec, npass=  1  Memory used: 101.90 MW

 Reference energy:                   -286.93156121

 MP2 singlet pair energy:              -0.62028498
 MP2 triplet pair energy:              -0.38972081
 MP2 correlation energy:               -1.01000578
 MP2 total energy:                   -287.94156699

 SCS-MP2 correlation energy:           -0.98683492   (PS=  1.200000  PT=  0.333333)
 SCS-MP2 total energy:               -287.91839613

 ITER.      SQ.NORM     CORR.ENERGY   TOTAL ENERGY   ENERGY CHANGE        DEN1      VAR(S)    VAR(P)  DIIS     TIME
   1      1.38431469    -1.05432606  -287.98588727    -0.04432027    -0.01729893  0.36D-02  0.79D-02  1  1    43.55
   2      1.41373689    -1.06017337  -287.99173458    -0.00584731    -0.02700807  0.62D-04  0.10D-02  2  2    76.99
   3      1.42281052    -1.06026656  -287.99182777    -0.00009319    -0.00462277  0.27D-04  0.84D-04  3  3   110.44
   4      1.42671196    -1.06043347  -287.99199469    -0.00016692    -0.00120600  0.22D-05  0.11D-04  4  4   143.94
   5      1.42790883    -1.06046397  -287.99202518    -0.00003050    -0.00027008  0.27D-06  0.13D-05  5  5   177.45
   6      1.42820664    -1.06045380  -287.99201501     0.00001017    -0.00004292  0.23D-07  0.78D-07  6  6   211.01
   7      1.42824679    -1.06045541  -287.99201662    -0.00000161    -0.00000101  0.35D-08  0.80D-08  6  2   244.60
   8      1.42825588    -1.06045526  -287.99201648     0.00000014    -0.00000117  0.76D-09  0.74D-09  6  1   278.21
   9      1.42825572    -1.06045540  -287.99201661    -0.00000013     0.00000122  0.21D-09  0.91D-10  6  4   311.80
  10      1.42825691    -1.06045541  -287.99201662    -0.00000001    -0.00000018  0.57D-10  0.15D-10  6  3   345.43
  11      1.42825686    -1.06045542  -287.99201664    -0.00000002     0.00000013  0.14D-10  0.37D-11  6  5   379.03
  12      1.42825682    -1.06045543  -287.99201664    -0.00000000     0.00000003  0.14D-11  0.10D-11  6  6   412.65
  13      1.42825664    -1.06045543  -287.99201664    -0.00000000     0.00000006  0.68D-13  0.20D-12  6  2   446.25
  14      1.42825654    -1.06045543  -287.99201664    -0.00000000     0.00000003  0.83D-14  0.39D-13  6  1   479.85
  15      1.42825648    -1.06045543  -287.99201664    -0.00000000     0.00000001  0.96D-15  0.53D-14  6  3   513.46
  16      1.42825646    -1.06045543  -287.99201664    -0.00000000     0.00000000  0.14D-15  0.37D-15  6  4   546.99
  17      1.42825646    -1.06045543  -287.99201664    -0.00000000     0.00000000  0.42D-16  0.45D-16  6  5   580.55
  18      1.42825646    -1.06045543  -287.99201664    -0.00000000     0.00000000  0.13D-16  0.78D-17  6  6   614.15
  19      1.42825645    -1.06045543  -287.99201664    -0.00000000     0.00000000  0.44D-17  0.12D-17  6  2   647.76
  20      1.42825645    -1.06045543  -287.99201664    -0.00000000     0.00000000  0.15D-17  0.37D-18  6  1   681.36
  21      1.42825645    -1.06045543  -287.99201664    -0.00000000     0.00000000  0.50D-18  0.15D-18  6  3   714.98
  22      1.42825645    -1.06045543  -287.99201664    -0.00000000    -0.00000000  0.18D-18  0.70D-19  6  4   748.57
  23      1.42825645    -1.06045543  -287.99201664     0.00000000    -0.00000000  0.74D-19  0.36D-19  6  6   782.18

 Norm of t1 vector:      0.08365438      S-energy:    -0.00000000      T1 diagnostic:  0.00959582
                                                                       D1 diagnostic:  0.02613102

 Doubles amplitudes (print threshold =  0.500E-01):

         I         J         SYM. A    SYM. B    A         B      T(IJ, AB)

        19        19         1         1         7         7     -0.05313158


 Total CPU time for triples:    678.94 sec


 RESULTS
 =======

  Reference energy                   -286.931561210944
  CCSD singlet pair energy             -0.710713080817
  CCSD triplet pair energy             -0.349742350939
  CCSD correlation energy              -1.060455431758

  Triples (T) contribution             -0.045487970934
  Total correlation energy             -1.105943402692

  CCSD total energy                  -287.992016642702
  CCSD[T] energy                     -288.038370409415
  CCSD-T energy                      -288.037117841242
 !CCSD(T) total energy               -288.037504613636

 Timing summary (sec):

 STEP                 CPU(USER)    SYS     CPU(TOT)    WALL
 Transformation         10.84      0.76     11.60     11.60
 CCSD iterations       771.36     11.52    782.88    783.61
 Triples               678.94     10.53    689.47    689.56

 Program statistics:

 Available memory in ccsd:               999998456
 Min. memory needed in ccsd:              14392275
 Max. memory used in ccsd:                19775697
 Max. memory used in cckext:              16737545 (23 integral passes)



 **********************************************************************************************************************************
 DATASETS  * FILE   NREC   LENGTH (MB)   RECORD NAMES
              1      20     2287.47       500      610      700      900      950      970     1000      129      960     1100   
                                          VAR    BASINP    GEOM    SYMINP    ZMAT    AOBASIS   BASIS     P2S    ABASIS      S 
                                         1400     1410     1200     1210     1080     1600     1650     1300     1700     1380   
                                           T        V       H0       H01     AOSYM     SMH    MOLCAS    ERIS     OPER     JKOP   

              2       3        1.40       700     1000     2100   
                                         GEOM     BASIS     RHF  

 PROGRAMS   *        TOTAL   CCSD(T)       RHF       INT
 CPU TIMES  *      1525.95   1461.15     52.17     12.60
 REAL TIME  *      1559.16 SEC
 DISK USED  *         6.38 GB      
 GA USED    *         0.01 MB       (max)       0.00 MB       (current)
 **********************************************************************************************************************************

        CCSD(T)         RHF-SCF 
   -288.03750461   -286.93156121
 **********************************************************************************************************************************
 Variable memory released
