
 Primary working directories    : /tmp/870712.211.gen4.q
 Secondary working directories  : /tmp/870712.211.gen4.q
 Wavefunction directory         : /home/vulcan/lo21740/wfu/
 Main file repository           : /tmp/870712.211.gen4.q/

 ARCHNAME  : Linux/x86_64
 FC        : /opt/intel/compilers_and_libraries_2016.1.150/linux/bin/intel64/ifort
 FCVERSION : 16.0.1
 BLASLIB   : -mkl
 id        : ccgc

 Nodes     nprocs
 n065         1
 ga_uses_ma=false, calling ma_init with nominal heap.
 GA-space will be limited to   8.0 MW (determined by -G option)

 Using customized tuning parameters: mindgm=10; mindgv=16; mindgc=4; mindgr=1; noblas=0; mincuda=1000; minvec=7
 default implementation of scratch files=df  

 ***,Optimization of formic acid
 memory,1000,m
 gthresh,energy=1.0d-12,orbital=1.0d-10,oneint=1.0d-16,twoint=1.0d-16,optgrad=1.0d-6,compress=1.0d-13
 geomtyp=xyz
 
 bohr
 geometry = {
  C   -3.5023452992   -0.8307074070    0.0000000000
  O   -3.0950618134    1.6191489528   -0.0000000000
  O   -1.8813796009   -2.4850632589    0.0000000000
  H   -5.5205535228   -1.2675278725    0.0000000000
  H   -1.2466887998    1.9540334485   -0.0000000000
  C    3.4983442349    0.8332795950   -0.0000000000
  O    3.0975803669   -1.6209298621   -0.0000000000
  O    1.8842082879    2.4839876789   -0.0000000000
  H    5.5218009787    1.2670645564   -0.0000000000
  H    1.2440951678   -1.9532858312    0.0000000000
 }
 
 basis=AVTZ
 {rhf;maxit,200}
 {mp2}

 Variables initialized (661), CPU time= 0.00 sec
 Commands  initialized (458), CPU time= 0.00 sec, 486 directives.
 Default parameters read. Elapsed time= 0.05 sec

 Checking input...
 Passed
1


                                         ***  PROGRAM SYSTEM MOLPRO  ***
                         Copyright, University College Cardiff Consultants Limited, 2008

                                    Version 2010.1 linked May 16 2016 07:17:05


 **********************************************************************************************************************************
 LABEL *   Optimization of formic acid                                                   
 Linux-4.4.3/n065(x86_64) 64 bit mpp version                                             DATE: 12-May-23          TIME: 19:32:51  
 **********************************************************************************************************************************

 SHA1:             9e8077add272b0f3cad6f7df79ec5211205f459d
 **********************************************************************************************************************************

 THRESHOLDS:

 ZERO    =  1.00D-12  ONEINT  =  1.00D-16  TWOINT  =  1.00D-16  PREFAC  =  1.00D-14  LOCALI  =  1.00D-09  EORDER  =  1.00D-04
 ENERGY  =  1.00D-12  ETEST   =  0.00D+00  EDENS   =  0.00D+00  THRDEDEF=  1.00D-06  GRADIENT=  1.00D-02  STEP    =  1.00D-03
 ORBITAL =  1.00D-10  CIVEC   =  1.00D-05  COEFF   =  1.00D-04  PRINTCI =  5.00D-02  PUNCHCI =  9.90D+01  OPTGRAD =  1.00D-06
 OPTENERG=  1.00D-06  OPTSTEP =  3.00D-04  THRGRAD =  1.00D-10  COMPRESS=  1.00D-13  VARMIN  =  1.00D-07  VARMAX  =  1.00D-03
 THRDOUB =  0.00D+00  THRDIV  =  1.00D-05  THRRED  =  1.00D-07  THRPSP  =  1.00D+00  THRDC   =  1.00D-10  THRCS   =  1.00D-10
 THRNRM  =  1.00D-08  THREQ   =  0.00D+00  THRDE   =  1.00D+00  THRREF  =  1.00D-05  SPARFAC =  1.00D+00  THRDLP  =  1.00D-07
 THRDIA  =  1.00D-10  THRDLS  =  1.00D-07  THRGPS  =  0.00D+00  THRKEX  =  0.00D+00  THRDIS  =  2.00D-01  THRVAR  =  1.00D-10
 THRLOC  =  1.00D-06  THRGAP  =  1.00D-06  THRLOCT = -1.00D+00  THRGAPT = -1.00D+00  THRORB  =  1.00D-06  THRMLTP =  0.00D+00
 THRCPQCI=  1.00D-10  KEXTA   =  0.00D+00  THRCOARS=  0.00D+00  SYMTOL  =  1.00D-06  GRADTOL =  1.00D-06  THROVL  =  1.00D-08
 THRORTH =  1.00D-08  GRID    =  1.00D-06  GRIDMAX =  1.00D-03  DTMAX   =  0.00D+00

 SETTING GEOMTYP        =    XYZ
 ZUNIT=BOHR
 

 Variable memory set to 1000000000 words,  buffer space   230000 words

 SETTING BASIS          =    AVTZ


 Recomputing integrals since basis changed


 Using spherical harmonics

 Library entry C      S aug-cc-pVTZ          selected for orbital group  1
 Library entry C      P aug-cc-pVTZ          selected for orbital group  1
 Library entry C      D aug-cc-pVTZ          selected for orbital group  1
 Library entry C      F aug-cc-pVTZ          selected for orbital group  1
 Library entry O      S aug-cc-pVTZ          selected for orbital group  2
 Library entry O      P aug-cc-pVTZ          selected for orbital group  2
 Library entry O      D aug-cc-pVTZ          selected for orbital group  2
 Library entry O      F aug-cc-pVTZ          selected for orbital group  2
 Library entry H      S aug-cc-pVTZ          selected for orbital group  3
 Library entry H      P aug-cc-pVTZ          selected for orbital group  3
 Library entry H      D aug-cc-pVTZ          selected for orbital group  3

1PROGRAM * SEWARD (Integral evaluation for generally contracted gaussian basis sets)     Author: Roland Lindh, 1990

 Geometry written to block  1 of record 700


 Point group  Cs  



 ATOMIC COORDINATES

 NR  ATOM    CHARGE       X              Y              Z

   1  C       6.00   -3.502345299   -0.830707407    0.000000000
   2  O       8.00   -3.095061813    1.619148953    0.000000000
   3  O       8.00   -1.881379601   -2.485063259    0.000000000
   4  H       1.00   -5.520553523   -1.267527873    0.000000000
   5  H       1.00   -1.246688800    1.954033448    0.000000000
   6  C       6.00    3.498344235    0.833279595    0.000000000
   7  O       8.00    3.097580367   -1.620929862    0.000000000
   8  O       8.00    1.884208288    2.483987679    0.000000000
   9  H       1.00    5.521800979    1.267064556    0.000000000
  10  H       1.00    1.244095168   -1.953285831    0.000000000

 Bond lengths in Bohr (Angstrom)

 1-2  2.483480626  1-3  2.316122423  1-4  2.064939842  2-5  1.878464911  6-7  2.486715854
     ( 1.314201346)     ( 1.225639200)     ( 1.092719103)     ( 0.994040819)     ( 1.315913355)

  6- 8  2.308738191   6- 9  2.069431465   7-10  1.883047496
       ( 1.221731632)       ( 1.095095967)       ( 0.996465819)

 Bond angles

  1-2-5  109.70831138   2-1-3  126.14510385   2-1-4  111.65167899   3-1-4  122.20321715

  6- 7-10  109.44024535   7- 6- 8  126.36744529   7- 6- 9  111.37416580   8- 6- 9  122.25838891

 NUCLEAR CHARGE:                   48
 NUMBER OF PRIMITIVE AOS:         510
 NUMBER OF SYMMETRY AOS:          448
 NUMBER OF CONTRACTIONS:          368   ( 244A'  + 124A"  )
 NUMBER OF CORE ORBITALS:           6   (   6A'  +   0A"  )
 NUMBER OF VALENCE ORBITALS:       28   (  22A'  +   6A"  )


 NUCLEAR REPULSION ENERGY  235.47896886


 Eigenvalues of metric

         1 0.342E-04 0.374E-04 0.557E-04 0.629E-04 0.145E-03 0.169E-03 0.226E-03 0.231E-03
         2 0.246E-02 0.273E-02 0.345E-02 0.348E-02 0.465E-02 0.569E-02 0.652E-02 0.742E-02


 Contracted 2-electron integrals neglected if value below      1.0D-16
 AO integral compression algorithm  1   Integral accuracy      1.0D-16

     8716.812 MB (compressed) written to integral file ( 85.0%)

     Node minimum: 8716.812 MB, node maximum: 8716.812 MB


 NUMBER OF SORTED TWO-ELECTRON INTEGRALS: 1171698620.     BUFFER LENGTH:  32768
 NUMBER OF SEGMENTS:  37  SEGMENT LENGTH:   31999270      RECORD LENGTH: 524288

 Memory used in sort:      32.56 MW

 SORT1 READ  1282336114. AND WROTE  1129841326. INTEGRALS IN   3251 RECORDS. CPU TIME:    18.31 SEC, REAL TIME:    83.16 SEC
 SORT2 READ  1129841326. AND WROTE  1171698620. INTEGRALS IN  33252 RECORDS. CPU TIME:     9.67 SEC, REAL TIME:    54.39 SEC

 FILE SIZES:   FILE 1:  8327.2 MBYTE,  FILE 4: 13635.7 MBYTE,   TOTAL:  21962.9 MBYTE

 OPERATOR DM      FOR CENTER  0  COORDINATES:    0.000000    0.000000    0.000000


 **********************************************************************************************************************************
 DATASETS  * FILE   NREC   LENGTH (MB)   RECORD NAMES
              1      19     8328.04       500      610      700      900      950      970     1000      129      960     1100   
                                          VAR    BASINP    GEOM    SYMINP    ZMAT    AOBASIS   BASIS     P2S    ABASIS      S 
                                         1400     1410     1200     1210     1080     1600     1650     1300     1700   
                                           T        V       H0       H01     AOSYM     SMH    MOLCAS    ERIS     OPER   

 PROGRAMS   *        TOTAL       INT
 CPU TIMES  *        94.72     94.68
 REAL TIME  *       211.32 SEC
 DISK USED  *        30.68 GB      
 GA USED    *         0.01 MB       (max)       0.00 MB       (current)
 **********************************************************************************************************************************

1PROGRAM * RHF-SCF (CLOSED SHELL)       Authors: W. Meyer, H.-J. Werner


 NUMBER OF ELECTRONS:      24+   24-
 CONVERGENCE THRESHOLDS:    1.00E-10 (Density)    1.00E-13 (Energy)
 MAX. NUMBER OF ITERATIONS:      200
 INTERPOLATION TYPE:            DIIS
 INTERPOLATION STEPS:              2 (START)      1 (STEP)
 LEVEL SHIFTS:                  0.00 (CLOSED)  0.00 (OPEN) 



 Orbital guess generated from atomic densities. Full valence occupancy:   28   6

 Molecular orbital dump at record        2100.2

 Initial alpha occupancy:  20   4
 Initial beta  occupancy:  20   4
 Wave function symmetry:    1

 ITERATION    DDIFF          GRAD             ENERGY        2-EL.EN.            DIPOLE MOMENTS         DIIS
    1      0.000D+00      0.000D+00      -377.56637739    746.920962   -0.02217    0.01654    0.00000    0
    2      0.000D+00      0.433D-02      -377.65424057    743.829956   -0.01166    0.00501    0.00000    1
    3      0.706D-02      0.284D-02      -377.70421767    746.186969   -0.01600    0.01061    0.00000    2
    4      0.277D-02      0.382D-03      -377.70580416    745.831295   -0.01493    0.00896    0.00000    3
    5      0.573D-03      0.168D-03      -377.70609057    745.871215   -0.01526    0.00967    0.00000    4
    6      0.223D-03      0.482D-04      -377.70613782    745.917248   -0.01508    0.00945    0.00000    5
    7      0.832D-04      0.207D-04      -377.70614871    745.898270   -0.01511    0.00951    0.00000    6
    8      0.450D-04      0.675D-05      -377.70615008    745.904518   -0.01508    0.00948    0.00000    7
    9      0.175D-04      0.221D-05      -377.70615020    745.903142   -0.01510    0.00952    0.00000    8
   10      0.544D-05      0.658D-06      -377.70615022    745.903324   -0.01508    0.00948    0.00000    8
   11      0.178D-05      0.229D-06      -377.70615022    745.903311   -0.01510    0.00952    0.00000    8
   12      0.531D-06      0.107D-06      -377.70615022    745.903286   -0.01509    0.00950    0.00000    9
   13      0.165D-06      0.228D-07      -377.70615022    745.903287   -0.01509    0.00950    0.00000    8
   14      0.454D-07      0.624D-08      -377.70615022    745.903289   -0.01509    0.00950    0.00000    8
   15      0.155D-07      0.228D-08      -377.70615022    745.903289   -0.01509    0.00950    0.00000    8
   16      0.410D-08      0.836D-09      -377.70615022    745.903289   -0.01509    0.00950    0.00000    8
   17      0.142D-08      0.260D-09      -377.70615022    745.903289   -0.01509    0.00950    0.00000    8
   18      0.403D-09      0.759D-10      -377.70615022    745.903289   -0.01509    0.00950    0.00000    8
   19      0.140D-09      0.262D-10      -377.70615022    745.903289   -0.01509    0.00950    0.00000    7
   20      0.637D-10      0.106D-10      -377.70615022    745.903289   -0.01509    0.00950    0.00000    8
   21      0.326D-10      0.423D-11      -377.70615022    745.903289   -0.01509    0.00950    0.00000    8
   22      0.209D-10      0.156D-11      -377.70615022    745.903289   -0.01509    0.00950    0.00000    8
   23      0.246D-10      0.659D-12      -377.70615022    745.903289   -0.01509    0.00950    0.00000    9
   24      0.244D-10      0.370D-12      -377.70615022    745.903289   -0.01509    0.00950    0.00000    9
   25      0.154D-10      0.320D-12      -377.70615022    745.903289   -0.01509    0.00950    0.00000    9
   26      0.946D-11      0.311D-12      -377.70615022    745.903289   -0.01509    0.00950    0.00000    9
   27      0.715D-11      0.350D-12      -377.70615022    745.903289   -0.01509    0.00950    0.00000    0

 Final occupancy:  20   4

 !RHF STATE 1.1 Energy               -377.706150218515
 Nuclear energy                       235.47896886
 One-electron energy                 -986.13676344
 Two-electron energy                  372.95164436
 Virial quotient                       -1.00184677
 !RHF STATE 1.1 Dipole moment          -0.01508988     0.00949987     0.00000000
 Dipole moment /Debye                  -0.03835214     0.02414468     0.00000000

 Orbital energies:

         1.1          2.1          3.1          4.1          5.1          6.1          7.1          8.1          9.1         10.1
    -20.618482   -20.617449   -20.577312   -20.577083   -11.409795   -11.408976    -1.485577    -1.472887    -1.387096    -1.373125

        11.1         12.1         13.1         14.1         15.1         16.1         17.1         18.1         19.1         20.1
     -0.920122    -0.884633    -0.769109    -0.733627    -0.724884    -0.695766    -0.621751    -0.581343    -0.498530    -0.475788

        21.1         22.1
      0.029618     0.033631

         1.2          2.2          3.2          4.2          5.2          6.2
     -0.645506    -0.635156    -0.507157    -0.495582     0.066562     0.082381


 **********************************************************************************************************************************
 DATASETS  * FILE   NREC   LENGTH (MB)   RECORD NAMES
              1      19     8328.04       500      610      700      900      950      970     1000      129      960     1100   
                                          VAR    BASINP    GEOM    SYMINP    ZMAT    AOBASIS   BASIS     P2S    ABASIS      S 
                                         1400     1410     1200     1210     1080     1600     1650     1300     1700   
                                           T        V       H0       H01     AOSYM     SMH    MOLCAS    ERIS     OPER   

              2       3        1.97       700     1000     2100   
                                         GEOM     BASIS     RHF  

 PROGRAMS   *        TOTAL       RHF       INT
 CPU TIMES  *       292.34    197.62     94.68
 REAL TIME  *       432.35 SEC
 DISK USED  *        30.68 GB      
 GA USED    *         0.01 MB       (max)       0.00 MB       (current)
 **********************************************************************************************************************************


1PROGRAM * MP2 (Closed-shell)     Authors: C. Hampel, H.-J. Werner, 1991, M. Deegan, P.J. Knowles, 1992


 Convergence thresholds:  THRVAR = 1.00D-08  THRDEN = 1.00D-12

 Number of core orbitals:           6 (   6   0 )
 Number of closed-shell orbitals:  18 (  14   4 )
 Number of external orbitals:     344 ( 224 120 )

 Molecular orbitals read from record     2100.2  Type=RHF/CANONICAL (state 1.1)

 Number of N-1 electron functions:              18
 Number of N-2 electron functions:             171
 Number of singly external CSFs:              3616
 Number of doubly external CSFs:           9858712
 Total number of CSFs:                     9862329

 Length of J-op  integral file:               0.00 MB
 Length of K-op  integral file:               5.20 MB

 Integral transformation finished. Total CPU:  16.81 sec, npass=  1  Memory used:  13.03 MW

 Memory needed for MP2:                      0.37 MW

 SCS-MP2 correlation energy:           -1.264090516686   (PS=  1.200000  PT=  0.333333)
 SCS-MP2 total energy:               -378.970240735202


  Reference energy                   -377.706150218516
  MP2 singlet pair energy              -0.794265248150
  MP2 triplet pair energy              -0.499776780385
  MP2 correlation energy               -1.294042028535

 !MP2 total energy                   -379.000192247051


 **********************************************************************************************************************************
 DATASETS  * FILE   NREC   LENGTH (MB)   RECORD NAMES
              1      20     8474.19       500      610      700      900      950      970     1000      129      960     1100   
                                          VAR    BASINP    GEOM    SYMINP    ZMAT    AOBASIS   BASIS     P2S    ABASIS      S 
                                         1400     1410     1200     1210     1080     1600     1650     1300     1700     1380   
                                           T        V       H0       H01     AOSYM     SMH    MOLCAS    ERIS     OPER     JKOP   

              2       3        1.97       700     1000     2100   
                                         GEOM     BASIS     RHF  

 PROGRAMS   *        TOTAL       MP2       RHF       INT
 CPU TIMES  *       309.77     17.42    197.62     94.68
 REAL TIME  *       450.91 SEC
 DISK USED  *        30.68 GB      
 GA USED    *         0.01 MB       (max)       0.00 MB       (current)
 **********************************************************************************************************************************

        MP2             RHF-SCF 
   -379.00019225   -377.70615022
 **********************************************************************************************************************************
 Variable memory released
