
 Primary working directories    : /tmp/878919.96.gen6.q
 Secondary working directories  : /tmp/878919.96.gen6.q
 Wavefunction directory         : /home/vulcan/lo21740/wfu/
 Main file repository           : /tmp/878919.96.gen6.q/

 ARCHNAME  : Linux/x86_64
 FC        : /opt/intel/compilers_and_libraries_2016.1.150/linux/bin/intel64/ifort
 FCVERSION : 16.0.1
 BLASLIB   : -mkl
 id        : ccgc

 Nodes     nprocs
 n091         1
 ga_uses_ma=false, calling ma_init with nominal heap.
 GA-space will be limited to   8.0 MW (determined by -G option)

 Using customized tuning parameters: mindgm=10; mindgv=16; mindgc=4; mindgr=1; noblas=0; mincuda=1000; minvec=7
 default implementation of scratch files=df  

 ***,Optimization of formamide
 memory,1000,m
 gthresh,energy=1.0d-12,orbital=1.0d-10,oneint=1.0d-16,twoint=1.0d-16,optgrad=1.0d-6,compress=1.0d-13
 geomtyp=xyz
 
 bohr
 geometry = {
  C   -3.8260658789    0.0873570802   -0.0000024206
  O   -2.7321131016    2.1399645470   -0.0001317873
  N   -2.6821360396   -2.1785343793    0.0002389427
  H   -3.7414063454   -3.7596905439   -0.0000012622
  H   -0.7496209843   -2.3017453691   -0.0003462341
  H   -5.8993972446   -0.0187363427   -0.0000011847
  C    3.8260658789   -0.0873570802    0.0000024206
  O    2.7321131016   -2.1399645470    0.0001317873
  N    2.6821360396    2.1785343793   -0.0002389427
  H    3.7414063454    3.7596905439    0.0000012622
  H    0.7496209843    2.3017453691    0.0003462341
  H    5.8993972446    0.0187363427    0.0000011847
 }
 
 basis=VDZ
 {rhf;maxit,200}
 {ccsd(t);maxit,200}

 Variables initialized (661), CPU time= 0.01 sec
 Commands  initialized (458), CPU time= 0.00 sec, 486 directives.
 Default parameters read. Elapsed time= 0.04 sec

 Checking input...
 Passed
1


                                         ***  PROGRAM SYSTEM MOLPRO  ***
                         Copyright, University College Cardiff Consultants Limited, 2008

                                    Version 2010.1 linked May 16 2016 07:17:05


 **********************************************************************************************************************************
 LABEL *   Optimization of formamide                                                     
 Linux-4.4.3/n091(x86_64) 64 bit mpp version                                             DATE: 22-May-23          TIME: 18:44:22  
 **********************************************************************************************************************************

 SHA1:             9e8077add272b0f3cad6f7df79ec5211205f459d
 **********************************************************************************************************************************

 THRESHOLDS:

 ZERO    =  1.00D-12  ONEINT  =  1.00D-16  TWOINT  =  1.00D-16  PREFAC  =  1.00D-14  LOCALI  =  1.00D-09  EORDER  =  1.00D-04
 ENERGY  =  1.00D-12  ETEST   =  0.00D+00  EDENS   =  0.00D+00  THRDEDEF=  1.00D-06  GRADIENT=  1.00D-02  STEP    =  1.00D-03
 ORBITAL =  1.00D-10  CIVEC   =  1.00D-05  COEFF   =  1.00D-04  PRINTCI =  5.00D-02  PUNCHCI =  9.90D+01  OPTGRAD =  1.00D-06
 OPTENERG=  1.00D-06  OPTSTEP =  3.00D-04  THRGRAD =  1.00D-10  COMPRESS=  1.00D-13  VARMIN  =  1.00D-07  VARMAX  =  1.00D-03
 THRDOUB =  0.00D+00  THRDIV  =  1.00D-05  THRRED  =  1.00D-07  THRPSP  =  1.00D+00  THRDC   =  1.00D-10  THRCS   =  1.00D-10
 THRNRM  =  1.00D-08  THREQ   =  0.00D+00  THRDE   =  1.00D+00  THRREF  =  1.00D-05  SPARFAC =  1.00D+00  THRDLP  =  1.00D-07
 THRDIA  =  1.00D-10  THRDLS  =  1.00D-07  THRGPS  =  0.00D+00  THRKEX  =  0.00D+00  THRDIS  =  2.00D-01  THRVAR  =  1.00D-10
 THRLOC  =  1.00D-06  THRGAP  =  1.00D-06  THRLOCT = -1.00D+00  THRGAPT = -1.00D+00  THRORB  =  1.00D-06  THRMLTP =  0.00D+00
 THRCPQCI=  1.00D-10  KEXTA   =  0.00D+00  THRCOARS=  0.00D+00  SYMTOL  =  1.00D-06  GRADTOL =  1.00D-06  THROVL  =  1.00D-08
 THRORTH =  1.00D-08  GRID    =  1.00D-06  GRIDMAX =  1.00D-03  DTMAX   =  0.00D+00

 SETTING GEOMTYP        =    XYZ
 ZUNIT=BOHR
 

 Variable memory set to 1000000000 words,  buffer space   230000 words

 SETTING BASIS          =    VDZ


 Recomputing integrals since basis changed


 Using spherical harmonics

 Library entry C      S cc-pVDZ              selected for orbital group  1
 Library entry C      P cc-pVDZ              selected for orbital group  1
 Library entry C      D cc-pVDZ              selected for orbital group  1
 Library entry O      S cc-pVDZ              selected for orbital group  2
 Library entry O      P cc-pVDZ              selected for orbital group  2
 Library entry O      D cc-pVDZ              selected for orbital group  2
 Library entry N      S cc-pVDZ              selected for orbital group  3
 Library entry N      P cc-pVDZ              selected for orbital group  3
 Library entry N      D cc-pVDZ              selected for orbital group  3
 Library entry H      S cc-pVDZ              selected for orbital group  4
 Library entry H      P cc-pVDZ              selected for orbital group  4

1PROGRAM * SEWARD (Integral evaluation for generally contracted gaussian basis sets)     Author: Roland Lindh, 1990

 Geometry written to block  1 of record 700


 Point group  Ci  



 ATOMIC COORDINATES

 NR  ATOM    CHARGE       X              Y              Z

   1  C       6.00   -3.826065879    0.087357080   -0.000002421
   2  C       6.00    3.826065879   -0.087357080    0.000002421
   3  O       8.00   -2.732113102    2.139964547   -0.000131787
   4  O       8.00    2.732113102   -2.139964547    0.000131787
   5  N       7.00   -2.682136040   -2.178534379    0.000238943
   6  N       7.00    2.682136040    2.178534379   -0.000238943
   7  H       1.00   -3.741406345   -3.759690544   -0.000001262
   8  H       1.00    3.741406345    3.759690544    0.000001262
   9  H       1.00   -0.749620984   -2.301745369   -0.000346234
  10  H       1.00    0.749620984    2.301745369    0.000346234
  11  H       1.00   -5.899397245   -0.018736343   -0.000001185
  12  H       1.00    5.899397245    0.018736343    0.000001185

 Bond lengths in Bohr (Angstrom)

  1- 3  2.325925646   1- 5  2.538274934   1-11  2.076044018   2- 4  2.325925646   2- 6  2.538274934
       ( 1.230826841)       ( 1.343197245)       ( 1.098595179)       ( 1.230826841)       ( 1.343197245)

  2-12  2.076044018   5- 7  1.903183768   5- 9  1.936438930   6- 8  1.903183768   6-10  1.936438930
       ( 1.098595179)       ( 1.007121475)       ( 1.024719348)       ( 1.007121475)       ( 1.024719348)

 Bond angles

  1- 5- 7  119.39370565   1- 5- 9  120.43487183   2- 6- 8  119.39370565   2- 6-10  120.43487183

  3- 1- 5  125.15745855   3- 1-11  120.98502369   4- 2- 6  125.15745855   4- 2-12  120.98502369

  5- 1-11  113.85751772   6- 2-12  113.85751772   7- 5- 9  120.17141341   8- 6-10  120.17141341

 NUCLEAR CHARGE:                   48
 NUMBER OF PRIMITIVE AOS:         204
 NUMBER OF SYMMETRY AOS:          198
 NUMBER OF CONTRACTIONS:          114   (  57Ag  +  57Au  )
 NUMBER OF CORE ORBITALS:           6   (   3Ag  +   3Au  )
 NUMBER OF VALENCE ORBITALS:       30   (  15Ag  +  15Au  )


 NUCLEAR REPULSION ENERGY  230.48218416


 Eigenvalues of metric

         1 0.555E-02 0.108E-01 0.153E-01 0.239E-01 0.305E-01 0.407E-01 0.418E-01 0.488E-01
         2 0.571E-02 0.113E-01 0.154E-01 0.242E-01 0.280E-01 0.399E-01 0.412E-01 0.433E-01


 Contracted 2-electron integrals neglected if value below      1.0D-16
 AO integral compression algorithm  1   Integral accuracy      1.0D-16

     90.702 MB (compressed) written to integral file ( 85.5%)

     Node minimum: 90.702 MB, node maximum: 90.702 MB


 NUMBER OF SORTED TWO-ELECTRON INTEGRALS:   10931289.     BUFFER LENGTH:  32768
 NUMBER OF SEGMENTS:   1  SEGMENT LENGTH:   10931289      RECORD LENGTH: 524288

 Memory used in sort:      11.49 MW

 SORT1 READ    13250584. AND WROTE    10930194. INTEGRALS IN     32 RECORDS. CPU TIME:     0.12 SEC, REAL TIME:     0.19 SEC
 SORT2 READ    10930194. AND WROTE    10931289. INTEGRALS IN    346 RECORDS. CPU TIME:     0.14 SEC, REAL TIME:     0.19 SEC

 FILE SIZES:   FILE 1:    79.3 MBYTE,  FILE 4:   134.3 MBYTE,   TOTAL:    213.5 MBYTE

 OPERATOR DM      FOR CENTER  0  COORDINATES:    0.000000    0.000000    0.000000


 **********************************************************************************************************************************
 DATASETS  * FILE   NREC   LENGTH (MB)   RECORD NAMES
              1      19       79.36       500      610      700      900      950      970     1000      129      960     1100   
                                          VAR    BASINP    GEOM    SYMINP    ZMAT    AOBASIS   BASIS     P2S    ABASIS      S 
                                         1400     1410     1200     1210     1080     1600     1650     1300     1700   
                                           T        V       H0       H01     AOSYM     SMH    MOLCAS    ERIS     OPER   

 PROGRAMS   *        TOTAL       INT
 CPU TIMES  *         1.50      1.46
 REAL TIME  *         1.85 SEC
 DISK USED  *       305.09 MB      
 GA USED    *         0.00 MB       (max)       0.00 MB       (current)
 **********************************************************************************************************************************

1PROGRAM * RHF-SCF (CLOSED SHELL)       Authors: W. Meyer, H.-J. Werner


 NUMBER OF ELECTRONS:      24+   24-
 CONVERGENCE THRESHOLDS:    1.00E-10 (Density)    1.00E-13 (Energy)
 MAX. NUMBER OF ITERATIONS:      200
 INTERPOLATION TYPE:            DIIS
 INTERPOLATION STEPS:              2 (START)      1 (STEP)
 LEVEL SHIFTS:                  0.00 (CLOSED)  0.00 (OPEN) 



 Orbital guess generated from atomic densities. Full valence occupancy:   18  18

 Molecular orbital dump at record        2100.2

 Initial alpha occupancy:  12  12
 Initial beta  occupancy:  12  12
 Wave function symmetry:    1

 ITERATION    DDIFF          GRAD             ENERGY        2-EL.EN.            DIPOLE MOMENTS         DIIS
    1      0.000D+00      0.000D+00      -337.77933822    705.376548    0.00000    0.00000    0.00000    0
    2      0.000D+00      0.134D-01      -337.85789280    700.178946    0.00000    0.00000    0.00000    1
    3      0.267D-01      0.953D-02      -337.91344767    702.652448    0.00000    0.00000    0.00000    2
    4      0.103D-01      0.126D-02      -337.91555463    702.639077    0.00000    0.00000    0.00000    3
    5      0.226D-02      0.442D-03      -337.91582259    702.566714    0.00000    0.00000    0.00000    4
    6      0.814D-03      0.148D-03      -337.91589066    702.585969    0.00000    0.00000    0.00000    5
    7      0.378D-03      0.661D-04      -337.91590206    702.581470    0.00000    0.00000    0.00000    6
    8      0.192D-03      0.173D-04      -337.91590276    702.581924    0.00000    0.00000    0.00000    7
    9      0.490D-04      0.442D-05      -337.91590282    702.581566    0.00000    0.00000    0.00000    7
   10      0.137D-04      0.969D-06      -337.91590282    702.581783    0.00000    0.00000    0.00000    7
   11      0.269D-05      0.236D-06      -337.91590282    702.581700    0.00000    0.00000    0.00000    7
   12      0.626D-06      0.847D-07      -337.91590282    702.581708    0.00000    0.00000    0.00000    7
   13      0.184D-06      0.277D-07      -337.91590282    702.581713    0.00000    0.00000    0.00000    7
   14      0.705D-07      0.641D-08      -337.91590282    702.581712    0.00000    0.00000    0.00000    7
   15      0.152D-07      0.140D-08      -337.91590282    702.581712    0.00000    0.00000    0.00000    7
   16      0.324D-08      0.337D-09      -337.91590282    702.581712    0.00000    0.00000    0.00000    7
   17      0.675D-09      0.132D-09      -337.91590282    702.581712    0.00000    0.00000    0.00000    7
   18      0.318D-09      0.287D-10      -337.91590282    702.581712    0.00000    0.00000    0.00000    7
   19      0.743D-10      0.867D-11      -337.91590282    702.581712    0.00000    0.00000    0.00000    7
   20      0.191D-10      0.153D-11      -337.91590282    702.581712    0.00000    0.00000    0.00000    7
   21      0.325D-11      0.456D-12      -337.91590282    702.581712    0.00000    0.00000    0.00000    0

 Final occupancy:  12  12

 !RHF STATE 1.1 Energy               -337.915902817826
 Nuclear energy                       230.48218416
 One-electron energy                 -919.68894298
 Two-electron energy                  351.29085600
 Virial quotient                       -1.00145725
 !RHF STATE 1.1 Dipole moment           0.00000000     0.00000000     0.00000000
 Dipole moment /Debye                   0.00000000     0.00000000     0.00000000

 Orbital energies:

         1.1          2.1          3.1          4.1          5.1          6.1          7.1          8.1          9.1         10.1
    -20.525318   -15.577535   -11.358969    -1.378242    -1.201764    -0.851805    -0.739873    -0.633963    -0.610075    -0.557612

        11.1         12.1         13.1         14.1
     -0.443521    -0.410516     0.185995     0.201498

         1.2          2.2          3.2          4.2          5.2          6.2          7.2          8.2          9.2         10.2
    -20.525318   -15.577534   -11.358970    -1.373513    -1.207901    -0.826700    -0.730983    -0.695405    -0.583557    -0.565061

        11.2         12.2         13.2         14.2
     -0.418495    -0.400984     0.187899     0.194629


 **********************************************************************************************************************************
 DATASETS  * FILE   NREC   LENGTH (MB)   RECORD NAMES
              1      19       79.36       500      610      700      900      950      970     1000      129      960     1100   
                                          VAR    BASINP    GEOM    SYMINP    ZMAT    AOBASIS   BASIS     P2S    ABASIS      S 
                                         1400     1410     1200     1210     1080     1600     1650     1300     1700   
                                           T        V       H0       H01     AOSYM     SMH    MOLCAS    ERIS     OPER   

              2       3        0.59       700     1000     2100   
                                         GEOM     BASIS     RHF  

 PROGRAMS   *        TOTAL       RHF       INT
 CPU TIMES  *         2.65      1.15      1.46
 REAL TIME  *         3.20 SEC
 DISK USED  *       305.09 MB      
 GA USED    *         0.00 MB       (max)       0.00 MB       (current)
 **********************************************************************************************************************************


1PROGRAM * CCSD (Closed-shell coupled cluster)     Authors: C. Hampel, H.-J. Werner, 1991, M. Deegan, P.J. Knowles, 1992


 Convergence thresholds:  THRVAR = 1.00D-08  THRDEN = 1.00D-12

 CCSD(T)     terms to be evaluated (factor= 1.000)


 Number of core orbitals:           6 (   3   3 )
 Number of closed-shell orbitals:  18 (   9   9 )
 Number of external orbitals:      90 (  45  45 )

 Molecular orbitals read from record     2100.2  Type=RHF/CANONICAL (state 1.1)

 Number of N-1 electron functions:              18
 Number of N-2 electron functions:             171
 Number of singly external CSFs:               810
 Number of doubly external CSFs:            656910
 Total number of CSFs:                      657721

 Length of J-op  integral file:               0.00 MB
 Length of K-op  integral file:               0.48 MB
 Length of 3-ext integral record:             0.00 MB

 Memory could be reduced to 9.36 Mwords without degradation in triples

 Integral transformation finished. Total CPU:   0.44 sec, npass=  1  Memory used:   6.56 MW

 Reference energy:                   -337.91590282

 MP2 singlet pair energy:              -0.58964521
 MP2 triplet pair energy:              -0.38313618
 MP2 correlation energy:               -0.97278139
 MP2 total energy:                   -338.88868421

 SCS-MP2 correlation energy:           -0.94597010   (PS=  1.200000  PT=  0.333333)
 SCS-MP2 total energy:               -338.86187292

 ITER.      SQ.NORM     CORR.ENERGY   TOTAL ENERGY   ENERGY CHANGE        DEN1      VAR(S)    VAR(P)  DIIS     TIME
   1      1.29770089    -1.00474450  -338.92064732    -0.03196310    -0.00230934  0.96D-02  0.55D-02  1  1     1.31
   2      1.32260833    -1.00739080  -338.92329362    -0.00264630    -0.02515377  0.22D-03  0.11D-02  2  2     2.22
   3      1.33527016    -1.00836631  -338.92426913    -0.00097551    -0.00560982  0.22D-03  0.47D-04  3  3     3.13
   4      1.34063912    -1.00813782  -338.92404064     0.00022849    -0.00169784  0.20D-04  0.81D-05  4  4     4.05
   5      1.34275282    -1.00807407  -338.92397689     0.00006375    -0.00043575  0.19D-05  0.10D-05  5  5     4.97
   6      1.34322189    -1.00804330  -338.92394612     0.00003077    -0.00004164  0.15D-06  0.13D-06  6  6     5.89
   7      1.34332759    -1.00803357  -338.92393639     0.00000973    -0.00000532  0.15D-07  0.15D-07  6  2     6.80
   8      1.34334569    -1.00803366  -338.92393647    -0.00000009    -0.00000001  0.18D-08  0.17D-08  6  1     7.72
   9      1.34334720    -1.00803335  -338.92393616     0.00000031     0.00000150  0.29D-09  0.22D-09  6  4     8.64
  10      1.34335024    -1.00803331  -338.92393612     0.00000004    -0.00000042  0.78D-10  0.20D-10  6  3     9.56
  11      1.34335015    -1.00803338  -338.92393620    -0.00000007     0.00000017  0.15D-10  0.50D-11  6  5    10.48
  12      1.34334995    -1.00803340  -338.92393622    -0.00000002     0.00000008  0.32D-11  0.13D-11  6  6    11.39
  13      1.34334971    -1.00803343  -338.92393625    -0.00000003     0.00000010  0.42D-12  0.19D-12  6  2    12.31
  14      1.34334960    -1.00803344  -338.92393625    -0.00000001     0.00000003  0.85D-13  0.31D-13  6  1    13.21
  15      1.34334958    -1.00803344  -338.92393626    -0.00000000     0.00000000  0.14D-13  0.76D-14  6  4    14.12
  16      1.34334957    -1.00803344  -338.92393626    -0.00000000    -0.00000000  0.34D-14  0.13D-14  6  3    15.04
  17      1.34334957    -1.00803344  -338.92393626    -0.00000000    -0.00000000  0.84D-15  0.19D-15  6  5    15.97
  18      1.34334957    -1.00803344  -338.92393626    -0.00000000     0.00000000  0.62D-16  0.57D-16  6  6    16.88
  19      1.34334956    -1.00803344  -338.92393626    -0.00000000     0.00000000  0.28D-16  0.56D-17  6  4    17.81
  20      1.34334956    -1.00803344  -338.92393626    -0.00000000     0.00000000  0.16D-17  0.86D-18  6  2    18.73
  21      1.34334956    -1.00803344  -338.92393626    -0.00000000     0.00000000  0.34D-18  0.15D-18  6  1    19.65
  22      1.34334956    -1.00803344  -338.92393626     0.00000000    -0.00000000  0.76D-19  0.18D-19  6  3    20.56
  23      1.34334956    -1.00803344  -338.92393626     0.00000000    -0.00000000  0.11D-19  0.57D-20  6  5    21.49
  24      1.34334956    -1.00803344  -338.92393626     0.00000000    -0.00000000  0.15D-20  0.60D-21  6  6    22.41
  25      1.34334956    -1.00803344  -338.92393626     0.00000000    -0.00000000  0.24D-21  0.12D-21  6  4    23.33
  26      1.34334956    -1.00803344  -338.92393626     0.00000000     0.00000000  0.66D-22  0.20D-22  6  2    24.25

 Norm of t1 vector:      0.14907110      S-energy:     0.00000000      T1 diagnostic:  0.01756820
                                                                       D1 diagnostic:  0.06225312

 Singles amplitudes (print threshold =  0.500E-01):

         I         SYM. A    A   T(IA)

         7         1         2      0.05868629
        16         2         2      0.05774803


 Total CPU time for triples:     13.42 sec


 RESULTS
 =======

  Reference energy                   -337.915902817825
  CCSD singlet pair energy             -0.667932871489
  CCSD triplet pair energy             -0.340100568653
  CCSD correlation energy              -1.008033440142

  Triples (T) contribution             -0.032247200119
  Total correlation energy             -1.040280640261

  CCSD total energy                  -338.923936257967
  CCSD[T] energy                     -338.959178535432
  CCSD-T energy                      -338.955205591256
 !CCSD(T) total energy               -338.956183458086

 Timing summary (sec):

 STEP                 CPU(USER)    SYS     CPU(TOT)    WALL
 Transformation          0.46      0.06      0.52      0.52
 CCSD iterations        23.79      0.95     24.74     24.79
 Triples                13.42      0.43     13.85     13.85

 Program statistics:

 Available memory in ccsd:               999998604
 Min. memory needed in ccsd:               1741948
 Max. memory used in ccsd:                 2318344
 Max. memory used in cckext:               2485613 (26 integral passes)



 **********************************************************************************************************************************
 DATASETS  * FILE   NREC   LENGTH (MB)   RECORD NAMES
              1      20      119.38       500      610      700      900      950      970     1000      129      960     1100   
                                          VAR    BASINP    GEOM    SYMINP    ZMAT    AOBASIS   BASIS     P2S    ABASIS      S 
                                         1400     1410     1200     1210     1080     1600     1650     1300     1700     1380   
                                           T        V       H0       H01     AOSYM     SMH    MOLCAS    ERIS     OPER     JKOP   

              2       3        0.59       700     1000     2100   
                                         GEOM     BASIS     RHF  

 PROGRAMS   *        TOTAL   CCSD(T)       RHF       INT
 CPU TIMES  *        40.34     37.68      1.15      1.46
 REAL TIME  *        42.40 SEC
 DISK USED  *       323.92 MB      
 GA USED    *         0.00 MB       (max)       0.00 MB       (current)
 **********************************************************************************************************************************

        CCSD(T)         RHF-SCF 
   -338.95618346   -337.91590282
 **********************************************************************************************************************************
 Variable memory released
