
 Primary working directories    : /tmp/862144.121.gen6.q
 Secondary working directories  : /tmp/862144.121.gen6.q
 Wavefunction directory         : /home/vulcan/lo21740/wfu/
 Main file repository           : /tmp/862144.121.gen6.q/

 ARCHNAME  : Linux/x86_64
 FC        : /opt/intel/compilers_and_libraries_2016.1.150/linux/bin/intel64/ifort
 FCVERSION : 16.0.1
 BLASLIB   : -mkl
 id        : ccgc

 Nodes     nprocs
 n087         1
 ga_uses_ma=false, calling ma_init with nominal heap.
 GA-space will be limited to   8.0 MW (determined by -G option)

 Using customized tuning parameters: mindgm=10; mindgv=16; mindgc=4; mindgr=1; noblas=0; mincuda=1000; minvec=7
 default implementation of scratch files=df  

 ***,Optimization of formic acid
 memory,1000,m
 gthresh,energy=1.0d-12,orbital=1.0d-10,oneint=1.0d-16,twoint=1.0d-16,optgrad=1.0d-6,compress=1.0d-13
 geomtyp=xyz
 
 bohr
 geometry = {
  C   -3.4992002504   -0.8305403730   -0.0017045606
  O   -3.0912679616    1.6237074676    0.0006283731
  O   -1.8820642567   -2.4809924860    0.0008285322
  H   -5.5231516636   -1.2740740591    0.0004269074
  H   -1.2423779209    1.9540400689    0.0000837450
  C    3.4992002504    0.8305403730    0.0017045606
  O    3.0912679616   -1.6237074676   -0.0006283731
  O    1.8820642567    2.4809924860   -0.0008285322
  H    5.5231516636    1.2740740591   -0.0004269074
  H    1.2423779209   -1.9540400689   -0.0000837450
 }
 
 basis=VDZ
 {rhf;maxit,200}
 {ccsd(t);maxit,200}

 Variables initialized (661), CPU time= 0.00 sec
 Commands  initialized (458), CPU time= 0.01 sec, 486 directives.
 Default parameters read. Elapsed time= 0.04 sec

 Checking input...
 Passed
1


                                         ***  PROGRAM SYSTEM MOLPRO  ***
                         Copyright, University College Cardiff Consultants Limited, 2008

                                    Version 2010.1 linked May 16 2016 07:17:05


 **********************************************************************************************************************************
 LABEL *   Optimization of formic acid                                                   
 Linux-4.4.3/n087(x86_64) 64 bit mpp version                                             DATE: 26-Apr-23          TIME: 17:47:20  
 **********************************************************************************************************************************

 SHA1:             9e8077add272b0f3cad6f7df79ec5211205f459d
 **********************************************************************************************************************************

 THRESHOLDS:

 ZERO    =  1.00D-12  ONEINT  =  1.00D-16  TWOINT  =  1.00D-16  PREFAC  =  1.00D-14  LOCALI  =  1.00D-09  EORDER  =  1.00D-04
 ENERGY  =  1.00D-12  ETEST   =  0.00D+00  EDENS   =  0.00D+00  THRDEDEF=  1.00D-06  GRADIENT=  1.00D-02  STEP    =  1.00D-03
 ORBITAL =  1.00D-10  CIVEC   =  1.00D-05  COEFF   =  1.00D-04  PRINTCI =  5.00D-02  PUNCHCI =  9.90D+01  OPTGRAD =  1.00D-06
 OPTENERG=  1.00D-06  OPTSTEP =  3.00D-04  THRGRAD =  1.00D-10  COMPRESS=  1.00D-13  VARMIN  =  1.00D-07  VARMAX  =  1.00D-03
 THRDOUB =  0.00D+00  THRDIV  =  1.00D-05  THRRED  =  1.00D-07  THRPSP  =  1.00D+00  THRDC   =  1.00D-10  THRCS   =  1.00D-10
 THRNRM  =  1.00D-08  THREQ   =  0.00D+00  THRDE   =  1.00D+00  THRREF  =  1.00D-05  SPARFAC =  1.00D+00  THRDLP  =  1.00D-07
 THRDIA  =  1.00D-10  THRDLS  =  1.00D-07  THRGPS  =  0.00D+00  THRKEX  =  0.00D+00  THRDIS  =  2.00D-01  THRVAR  =  1.00D-10
 THRLOC  =  1.00D-06  THRGAP  =  1.00D-06  THRLOCT = -1.00D+00  THRGAPT = -1.00D+00  THRORB  =  1.00D-06  THRMLTP =  0.00D+00
 THRCPQCI=  1.00D-10  KEXTA   =  0.00D+00  THRCOARS=  0.00D+00  SYMTOL  =  1.00D-06  GRADTOL =  1.00D-06  THROVL  =  1.00D-08
 THRORTH =  1.00D-08  GRID    =  1.00D-06  GRIDMAX =  1.00D-03  DTMAX   =  0.00D+00

 SETTING GEOMTYP        =    XYZ
 ZUNIT=BOHR
 

 Variable memory set to 1000000000 words,  buffer space   230000 words

 SETTING BASIS          =    VDZ


 Recomputing integrals since basis changed


 Using spherical harmonics

 Library entry C      S cc-pVDZ              selected for orbital group  1
 Library entry C      P cc-pVDZ              selected for orbital group  1
 Library entry C      D cc-pVDZ              selected for orbital group  1
 Library entry O      S cc-pVDZ              selected for orbital group  2
 Library entry O      P cc-pVDZ              selected for orbital group  2
 Library entry O      D cc-pVDZ              selected for orbital group  2
 Library entry H      S cc-pVDZ              selected for orbital group  3
 Library entry H      P cc-pVDZ              selected for orbital group  3

1PROGRAM * SEWARD (Integral evaluation for generally contracted gaussian basis sets)     Author: Roland Lindh, 1990

 Geometry written to block  1 of record 700


 Point group  Ci  



 ATOMIC COORDINATES

 NR  ATOM    CHARGE       X              Y              Z

   1  C       6.00   -3.499200250   -0.830540373   -0.001704561
   2  C       6.00    3.499200250    0.830540373    0.001704561
   3  O       8.00   -3.091267962    1.623707468    0.000628373
   4  O       8.00    3.091267962   -1.623707468   -0.000628373
   5  O       8.00   -1.882064257   -2.480992486    0.000828532
   6  O       8.00    1.882064257    2.480992486   -0.000828532
   7  H       1.00   -5.523151664   -1.274074059    0.000426907
   8  H       1.00    5.523151664    1.274074059   -0.000426907
   9  H       1.00   -1.242377921    1.954040069    0.000083745
  10  H       1.00    1.242377921   -1.954040069   -0.000083745

 Bond lengths in Bohr (Angstrom)

 1-3  2.487920147  1-5  2.310655192  1-7  2.071981177  2-4  2.487920147  2-6  2.310655192
     ( 1.316550640)     ( 1.222746065)     ( 1.096445216)     ( 1.316550640)     ( 1.222746065)

  2- 8  2.071981177   3- 9  1.878167806   4-10  1.878167806
       ( 1.096445216)       ( 0.993883598)       ( 0.993883598)

 Bond angles

  1- 3- 9  109.56699016   2- 4-10  109.56699016   3- 1- 5  126.14691790   3- 1- 7  111.79759255

  4-2-6  126.14691790   4-2-8  111.79759255   5-1-7  122.05517455   6-2-8  122.05517455

 NUCLEAR CHARGE:                   48
 NUMBER OF PRIMITIVE AOS:         190
 NUMBER OF SYMMETRY AOS:          184
 NUMBER OF CONTRACTIONS:          104   (  52Ag  +  52Au  )
 NUMBER OF CORE ORBITALS:           6   (   3Ag  +   3Au  )
 NUMBER OF VALENCE ORBITALS:       28   (  14Ag  +  14Au  )


 NUCLEAR REPULSION ENERGY  235.54837270


 Eigenvalues of metric

         1 0.818E-02 0.138E-01 0.167E-01 0.299E-01 0.377E-01 0.444E-01 0.555E-01 0.934E-01
         2 0.870E-02 0.141E-01 0.165E-01 0.306E-01 0.356E-01 0.441E-01 0.529E-01 0.963E-01


 Contracted 2-electron integrals neglected if value below      1.0D-16
 AO integral compression algorithm  1   Integral accuracy      1.0D-16

     70.779 MB (compressed) written to integral file ( 93.1%)

     Node minimum: 70.779 MB, node maximum: 70.779 MB


 NUMBER OF SORTED TWO-ELECTRON INTEGRALS:    7596914.     BUFFER LENGTH:  32768
 NUMBER OF SEGMENTS:   1  SEGMENT LENGTH:    7596914      RECORD LENGTH: 524288

 Memory used in sort:       8.15 MW

 SORT1 READ     9494560. AND WROTE     7596912. INTEGRALS IN     22 RECORDS. CPU TIME:     0.08 SEC, REAL TIME:     0.13 SEC
 SORT2 READ     7596912. AND WROTE     7596914. INTEGRALS IN    270 RECORDS. CPU TIME:     0.10 SEC, REAL TIME:     0.13 SEC

 FILE SIZES:   FILE 1:    60.3 MBYTE,  FILE 4:    92.3 MBYTE,   TOTAL:    152.6 MBYTE

 OPERATOR DM      FOR CENTER  0  COORDINATES:    0.000000    0.000000    0.000000


 **********************************************************************************************************************************
 DATASETS  * FILE   NREC   LENGTH (MB)   RECORD NAMES
              1      19       60.37       500      610      700      900      950      970     1000      129      960     1100   
                                          VAR    BASINP    GEOM    SYMINP    ZMAT    AOBASIS   BASIS     P2S    ABASIS      S 
                                         1400     1410     1200     1210     1080     1600     1650     1300     1700   
                                           T        V       H0       H01     AOSYM     SMH    MOLCAS    ERIS     OPER   

 PROGRAMS   *        TOTAL       INT
 CPU TIMES  *         1.08      1.04
 REAL TIME  *         1.36 SEC
 DISK USED  *       224.18 MB      
 GA USED    *         0.00 MB       (max)       0.00 MB       (current)
 **********************************************************************************************************************************

1PROGRAM * RHF-SCF (CLOSED SHELL)       Authors: W. Meyer, H.-J. Werner


 NUMBER OF ELECTRONS:      24+   24-
 CONVERGENCE THRESHOLDS:    1.00E-10 (Density)    1.00E-13 (Energy)
 MAX. NUMBER OF ITERATIONS:      200
 INTERPOLATION TYPE:            DIIS
 INTERPOLATION STEPS:              2 (START)      1 (STEP)
 LEVEL SHIFTS:                  0.00 (CLOSED)  0.00 (OPEN) 



 Orbital guess generated from atomic densities. Full valence occupancy:   17  17

 Molecular orbital dump at record        2100.2

 Initial alpha occupancy:  12  12
 Initial beta  occupancy:  12  12
 Wave function symmetry:    1

 ITERATION    DDIFF          GRAD             ENERGY        2-EL.EN.            DIPOLE MOMENTS         DIIS
    1      0.000D+00      0.000D+00      -377.44932045    747.099524    0.00000    0.00000    0.00000    0
    2      0.000D+00      0.156D-01      -377.53720955    744.245977    0.00000    0.00000    0.00000    1
    3      0.307D-01      0.966D-02      -377.58416487    746.500237    0.00000    0.00000    0.00000    2
    4      0.112D-01      0.136D-02      -377.58565649    746.218965    0.00000    0.00000    0.00000    3
    5      0.218D-02      0.567D-03      -377.58591765    746.245180    0.00000    0.00000    0.00000    4
    6      0.898D-03      0.162D-03      -377.58596384    746.289485    0.00000    0.00000    0.00000    5
    7      0.311D-03      0.741D-04      -377.58597518    746.274290    0.00000    0.00000    0.00000    6
    8      0.186D-03      0.220D-04      -377.58597619    746.279498    0.00000    0.00000    0.00000    7
    9      0.580D-04      0.747D-05      -377.58597629    746.278049    0.00000    0.00000    0.00000    8
   10      0.202D-04      0.204D-05      -377.58597630    746.278217    0.00000    0.00000    0.00000    7
   11      0.570D-05      0.500D-06      -377.58597630    746.278162    0.00000    0.00000    0.00000    8
   12      0.133D-05      0.141D-06      -377.58597630    746.278184    0.00000    0.00000    0.00000    7
   13      0.367D-06      0.564D-07      -377.58597630    746.278172    0.00000    0.00000    0.00000    8
   14      0.106D-06      0.171D-07      -377.58597630    746.278175    0.00000    0.00000    0.00000    7
   15      0.439D-07      0.512D-08      -377.58597630    746.278174    0.00000    0.00000    0.00000    7
   16      0.909D-08      0.142D-08      -377.58597630    746.278174    0.00000    0.00000    0.00000    7
   17      0.289D-08      0.553D-09      -377.58597630    746.278174    0.00000    0.00000    0.00000    7
   18      0.109D-08      0.165D-09      -377.58597630    746.278174    0.00000    0.00000    0.00000    8
   19      0.403D-09      0.544D-10      -377.58597630    746.278174    0.00000    0.00000    0.00000    8
   20      0.134D-09      0.127D-10      -377.58597630    746.278174    0.00000    0.00000    0.00000    7
   21      0.335D-10      0.354D-11      -377.58597630    746.278174    0.00000    0.00000    0.00000    7
   22      0.894D-11      0.163D-11      -377.58597630    746.278174    0.00000    0.00000    0.00000    7
   23      0.373D-11      0.745D-12      -377.58597630    746.278174    0.00000    0.00000    0.00000    8
   24      0.187D-11      0.251D-12      -377.58597630    746.278174    0.00000    0.00000    0.00000    0

 Final occupancy:  12  12

 !RHF STATE 1.1 Energy               -377.585976299150
 Nuclear energy                       235.54837270
 One-electron energy                 -986.27343604
 Two-electron energy                  373.13908704
 Virial quotient                       -1.00125397
 !RHF STATE 1.1 Dipole moment           0.00000000     0.00000000     0.00000000
 Dipole moment /Debye                   0.00000000     0.00000000     0.00000000

 Orbital energies:

         1.1          2.1          3.1          4.1          5.1          6.1          7.1          8.1          9.1         10.1
    -20.613707   -20.575552   -11.412514    -1.481978    -1.369360    -0.914406    -0.727737    -0.688699    -0.628597    -0.615066

        11.1         12.1         13.1         14.1
     -0.498367    -0.489482     0.165639     0.203800

         1.2          2.2          3.2          4.2          5.2          6.2          7.2          8.2          9.2         10.2
    -20.613706   -20.575552   -11.412514    -1.469155    -1.383478    -0.878321    -0.763321    -0.718946    -0.638239    -0.573583

        11.2         12.2         13.2         14.2
     -0.487615    -0.467737     0.160529     0.209437


 **********************************************************************************************************************************
 DATASETS  * FILE   NREC   LENGTH (MB)   RECORD NAMES
              1      19       60.37       500      610      700      900      950      970     1000      129      960     1100   
                                          VAR    BASINP    GEOM    SYMINP    ZMAT    AOBASIS   BASIS     P2S    ABASIS      S 
                                         1400     1410     1200     1210     1080     1600     1650     1300     1700   
                                           T        V       H0       H01     AOSYM     SMH    MOLCAS    ERIS     OPER   

              2       3        0.53       700     1000     2100   
                                         GEOM     BASIS     RHF  

 PROGRAMS   *        TOTAL       RHF       INT
 CPU TIMES  *         1.91      0.83      1.04
 REAL TIME  *         2.34 SEC
 DISK USED  *       224.18 MB      
 GA USED    *         0.00 MB       (max)       0.00 MB       (current)
 **********************************************************************************************************************************


1PROGRAM * CCSD (Closed-shell coupled cluster)     Authors: C. Hampel, H.-J. Werner, 1991, M. Deegan, P.J. Knowles, 1992


 Convergence thresholds:  THRVAR = 1.00D-08  THRDEN = 1.00D-12

 CCSD(T)     terms to be evaluated (factor= 1.000)


 Number of core orbitals:           6 (   3   3 )
 Number of closed-shell orbitals:  18 (   9   9 )
 Number of external orbitals:      80 (  40  40 )

 Molecular orbitals read from record     2100.2  Type=RHF/CANONICAL (state 1.1)

 Number of N-1 electron functions:              18
 Number of N-2 electron functions:             171
 Number of singly external CSFs:               720
 Number of doubly external CSFs:            519120
 Total number of CSFs:                      519841

 Length of J-op  integral file:               0.00 MB
 Length of K-op  integral file:               0.41 MB
 Length of 3-ext integral record:             0.00 MB

 Memory could be reduced to 6.90 Mwords without degradation in triples

 Integral transformation finished. Total CPU:   0.30 sec, npass=  1  Memory used:   5.16 MW

 Reference energy:                   -377.58597630

 MP2 singlet pair energy:              -0.59916825
 MP2 triplet pair energy:              -0.40695501
 MP2 correlation energy:               -1.00612325
 MP2 total energy:                   -378.59209955

 SCS-MP2 correlation energy:           -0.97221835   (PS=  1.200000  PT=  0.333333)
 SCS-MP2 total energy:               -378.55819465

 ITER.      SQ.NORM     CORR.ENERGY   TOTAL ENERGY   ENERGY CHANGE        DEN1      VAR(S)    VAR(P)  DIIS     TIME
   1      1.28172643    -1.02637183  -378.61234813    -0.02024857     0.01054599  0.10D-01  0.55D-02  1  1     0.94
   2      1.30542475    -1.02824537  -378.61422167    -0.00187355    -0.02507390  0.25D-03  0.10D-02  2  2     1.61
   3      1.31848101    -1.02919782  -378.61517412    -0.00095245    -0.00596345  0.20D-03  0.42D-04  3  3     2.28
   4      1.32383751    -1.02896329  -378.61493959     0.00023453    -0.00175422  0.18D-04  0.71D-05  4  4     2.95
   5      1.32591026    -1.02887344  -378.61484973     0.00008986    -0.00045960  0.11D-05  0.69D-06  5  5     3.62
   6      1.32625567    -1.02885290  -378.61482920     0.00002053    -0.00001572  0.10D-06  0.60D-07  6  6     4.29
   7      1.32632469    -1.02884524  -378.61482154     0.00000766    -0.00000450  0.78D-08  0.89D-08  6  2     4.96
   8      1.32632792    -1.02884610  -378.61482239    -0.00000085     0.00000209  0.16D-08  0.89D-09  6  1     5.64
   9      1.32632869    -1.02884577  -378.61482207     0.00000033     0.00000091  0.32D-09  0.16D-09  6  4     6.31
  10      1.32633050    -1.02884561  -378.61482191     0.00000016    -0.00000062  0.91D-10  0.25D-10  6  3     6.98
  11      1.32632997    -1.02884574  -378.61482204    -0.00000012     0.00000025  0.21D-10  0.53D-11  6  5     7.65
  12      1.32632962    -1.02884575  -378.61482205    -0.00000002     0.00000005  0.27D-11  0.11D-11  6  6     8.32
  13      1.32632930    -1.02884580  -378.61482210    -0.00000004     0.00000013  0.31D-12  0.20D-12  6  1     8.99
  14      1.32632919    -1.02884580  -378.61482210    -0.00000000     0.00000002  0.29D-13  0.23D-13  6  2     9.66
  15      1.32632915    -1.02884580  -378.61482210    -0.00000000     0.00000001  0.62D-14  0.29D-14  6  4    10.33
  16      1.32632914    -1.02884580  -378.61482210    -0.00000000     0.00000000  0.99D-15  0.63D-15  6  5    11.00
  17      1.32632914    -1.02884580  -378.61482210    -0.00000000    -0.00000000  0.14D-15  0.61D-16  6  3    11.67
  18      1.32632914    -1.02884580  -378.61482210    -0.00000000     0.00000000  0.51D-16  0.18D-16  6  5    12.35
  19      1.32632914    -1.02884580  -378.61482210    -0.00000000     0.00000000  0.10D-16  0.24D-17  6  2    13.02
  20      1.32632914    -1.02884580  -378.61482210    -0.00000000     0.00000000  0.35D-17  0.67D-18  6  6    13.70
  21      1.32632914    -1.02884580  -378.61482210     0.00000000    -0.00000000  0.11D-17  0.25D-18  6  1    14.37
  22      1.32632914    -1.02884580  -378.61482210     0.00000000    -0.00000000  0.14D-18  0.48D-19  6  4    15.04
  23      1.32632914    -1.02884580  -378.61482210     0.00000000    -0.00000000  0.16D-19  0.64D-20  6  3    15.71
  24      1.32632914    -1.02884580  -378.61482210     0.00000000    -0.00000000  0.14D-20  0.12D-20  6  2    16.39
  25      1.32632914    -1.02884580  -378.61482210    -0.00000000     0.00000000  0.30D-21  0.16D-21  6  5    17.06

 Norm of t1 vector:      0.15264867      S-energy:     0.00000000      T1 diagnostic:  0.01798982
                                                                       D1 diagnostic:  0.06508259

 Singles amplitudes (print threshold =  0.500E-01):

         I         SYM. A    A   T(IA)

         6         1         1      0.06136571
        15         2         1      0.05952700


 Total CPU time for triples:      9.07 sec


 RESULTS
 =======

  Reference energy                   -377.585976299150
  CCSD singlet pair energy             -0.671016018359
  CCSD triplet pair energy             -0.357829785562
  CCSD correlation energy              -1.028845803921

  Triples (T) contribution             -0.031940595307
  Total correlation energy             -1.060786399228

  CCSD total energy                  -378.614822103071
  CCSD[T] energy                     -378.650057447493
  CCSD-T energy                      -378.645679738284
 !CCSD(T) total energy               -378.646762698378

 Timing summary (sec):

 STEP                 CPU(USER)    SYS     CPU(TOT)    WALL
 Transformation          0.32      0.04      0.36      0.35
 CCSD iterations        16.74      0.67     17.41     17.46
 Triples                 9.07      0.26      9.33      9.35

 Program statistics:

 Available memory in ccsd:               999998604
 Min. memory needed in ccsd:               1434204
 Max. memory used in ccsd:                 1896588
 Max. memory used in cckext:               2097662 (25 integral passes)



 **********************************************************************************************************************************
 DATASETS  * FILE   NREC   LENGTH (MB)   RECORD NAMES
              1      20       90.67       500      610      700      900      950      970     1000      129      960     1100   
                                          VAR    BASINP    GEOM    SYMINP    ZMAT    AOBASIS   BASIS     P2S    ABASIS      S 
                                         1400     1410     1200     1210     1080     1600     1650     1300     1700     1380   
                                           T        V       H0       H01     AOSYM     SMH    MOLCAS    ERIS     OPER     JKOP   

              2       3        0.53       700     1000     2100   
                                         GEOM     BASIS     RHF  

 PROGRAMS   *        TOTAL   CCSD(T)       RHF       INT
 CPU TIMES  *        28.05     26.14      0.83      1.04
 REAL TIME  *        29.53 SEC
 DISK USED  *       254.21 MB      
 GA USED    *         0.00 MB       (max)       0.00 MB       (current)
 **********************************************************************************************************************************

        CCSD(T)         RHF-SCF 
   -378.64676270   -377.58597630
 **********************************************************************************************************************************
 Variable memory released
