
 Primary working directories    : /tmp/1011203.613.gen6.q
 Secondary working directories  : /tmp/1011203.613.gen6.q
 Wavefunction directory         : /home/vulcan/mel64643/wfu/
 Main file repository           : /tmp/1011203.613.gen6.q/

 ARCHNAME  : Linux/x86_64
 FC        : /opt/intel/compilers_and_libraries_2016.1.150/linux/bin/intel64/ifort
 FCVERSION : 16.0.1
 BLASLIB   : -mkl
 id        : ccgc

 Nodes     nprocs
 n075         1
 ga_uses_ma=false, calling ma_init with nominal heap.
 GA-space will be limited to   8.0 MW (determined by -G option)

 Using customized tuning parameters: mindgm=10; mindgv=16; mindgc=4; mindgr=1; noblas=0; mincuda=1000; minvec=7
 default implementation of scratch files=df  

 ***,Optimization of c2h4_2
 memory,1000,m
 gthresh,energy=1.0d-12,orbital=1.0d-10,oneint=1.0d-16,twoint=1.0d-16,optgrad=1.0d-6,compress=1.0d-13
 geomtyp=xyz
 
 
 
 bohr
 geometry = {
  C   -1.2625769929   -0.0034571221   -3.4918105421
  C    1.2667306994    0.0028660796   -3.4911672475
  H   -2.3384658832   -0.0065905926   -1.7479210544
  H    2.3346040603    0.0050908429   -1.7423565649
  H   -2.3319513499   -0.0056859888   -5.2389218124
  H    2.3298521871    0.0059695022   -5.2420891033
  C    0.0034571218    1.2625769025    3.4917908403
  C   -0.0028660788   -1.2667306078    3.4911475473
  H    0.0065905961    2.3384675064    1.7479028049
  H   -0.0050908465   -2.3346056911    1.7423383105
  H    0.0056859849    2.3319500179    5.2389028041
  H   -0.0059694983   -2.3298508492    5.2420700935
 }
 
 basis=aug-cc-pvdz, H=cc-pvdz
 {rhf;maxit,200}
 {mp2}

 Variables initialized (661), CPU time= 0.00 sec
 Commands  initialized (458), CPU time= 0.00 sec, 486 directives.
 Default parameters read. Elapsed time= 0.04 sec

 Checking input...
 Passed
1


                                         ***  PROGRAM SYSTEM MOLPRO  ***
                         Copyright, University College Cardiff Consultants Limited, 2008

                                    Version 2010.1 linked May 16 2016 07:17:05


 **********************************************************************************************************************************
 LABEL *   Optimization of c2h4_2                                                        
 Linux-4.4.3/n075(x86_64) 64 bit mpp version                                             DATE: 25-Feb-24          TIME: 14:44:06  
 **********************************************************************************************************************************

 SHA1:             9e8077add272b0f3cad6f7df79ec5211205f459d
 **********************************************************************************************************************************

 THRESHOLDS:

 ZERO    =  1.00D-12  ONEINT  =  1.00D-16  TWOINT  =  1.00D-16  PREFAC  =  1.00D-14  LOCALI  =  1.00D-09  EORDER  =  1.00D-04
 ENERGY  =  1.00D-12  ETEST   =  0.00D+00  EDENS   =  0.00D+00  THRDEDEF=  1.00D-06  GRADIENT=  1.00D-02  STEP    =  1.00D-03
 ORBITAL =  1.00D-10  CIVEC   =  1.00D-05  COEFF   =  1.00D-04  PRINTCI =  5.00D-02  PUNCHCI =  9.90D+01  OPTGRAD =  1.00D-06
 OPTENERG=  1.00D-06  OPTSTEP =  3.00D-04  THRGRAD =  1.00D-10  COMPRESS=  1.00D-13  VARMIN  =  1.00D-07  VARMAX  =  1.00D-03
 THRDOUB =  0.00D+00  THRDIV  =  1.00D-05  THRRED  =  1.00D-07  THRPSP  =  1.00D+00  THRDC   =  1.00D-10  THRCS   =  1.00D-10
 THRNRM  =  1.00D-08  THREQ   =  0.00D+00  THRDE   =  1.00D+00  THRREF  =  1.00D-05  SPARFAC =  1.00D+00  THRDLP  =  1.00D-07
 THRDIA  =  1.00D-10  THRDLS  =  1.00D-07  THRGPS  =  0.00D+00  THRKEX  =  0.00D+00  THRDIS  =  2.00D-01  THRVAR  =  1.00D-10
 THRLOC  =  1.00D-06  THRGAP  =  1.00D-06  THRLOCT = -1.00D+00  THRGAPT = -1.00D+00  THRORB  =  1.00D-06  THRMLTP =  0.00D+00
 THRCPQCI=  1.00D-10  KEXTA   =  0.00D+00  THRCOARS=  0.00D+00  SYMTOL  =  1.00D-06  GRADTOL =  1.00D-06  THROVL  =  1.00D-08
 THRORTH =  1.00D-08  GRID    =  1.00D-06  GRIDMAX =  1.00D-03  DTMAX   =  0.00D+00

 SETTING GEOMTYP        =    XYZ
 ZUNIT=BOHR
 

 Variable memory set to 1000000000 words,  buffer space   230000 words

 SETTING BASIS          =    AUG-CC-PVDZ,H=CC-PVDZ


 Recomputing integrals since basis changed


 Using spherical harmonics

 Library entry C      S aug-cc-pVDZ          selected for orbital group  1
 Library entry C      P aug-cc-pVDZ          selected for orbital group  1
 Library entry C      D aug-cc-pVDZ          selected for orbital group  1
 Library entry H      S cc-pVDZ              selected for orbital group  2
 Library entry H      P cc-pVDZ              selected for orbital group  2

1PROGRAM * SEWARD (Integral evaluation for generally contracted gaussian basis sets)     Author: Roland Lindh, 1990

 Geometry written to block  1 of record 700


 Point group  C1  



 ATOMIC COORDINATES

 NR  ATOM    CHARGE       X              Y              Z

   1  C       6.00   -1.262576993   -0.003457122   -3.491810542
   2  C       6.00    1.266730699    0.002866080   -3.491167247
   3  H       1.00   -2.338465883   -0.006590593   -1.747921054
   4  H       1.00    2.334604060    0.005090843   -1.742356565
   5  H       1.00   -2.331951350   -0.005685989   -5.238921812
   6  H       1.00    2.329852187    0.005969502   -5.242089103
   7  C       6.00    0.003457122    1.262576902    3.491790840
   8  C       6.00   -0.002866079   -1.266730608    3.491147547
   9  H       1.00    0.006590596    2.338467506    1.747902805
  10  H       1.00   -0.005090847   -2.334605691    1.742338311
  11  H       1.00    0.005685985    2.331950018    5.238902804
  12  H       1.00   -0.005969498   -2.329850849    5.242070093

 Bond lengths in Bohr (Angstrom)

 1-2  2.529315678  1-3  2.049072295  1-5  2.048405300  2-4  2.049072294  2-6  2.048405300
     ( 1.338456211)     ( 1.084322358)     ( 1.083969400)     ( 1.084322358)     ( 1.083969400)

  7- 8  2.529315496   7- 9  2.049071958   7-11  2.048405244   8-10  2.049071958   8-12  2.048405244
       ( 1.338456115)       ( 1.084322180)       ( 1.083969370)       ( 1.084322180)       ( 1.083969370)

 Bond angles

  1-2-4  121.42404632   1-2-6  121.25074193   2-1-3  121.65795536   2-1-5  121.48465097

  3- 1- 5  116.85739367   4- 2- 6  117.32521175   7- 8-10  121.42410846   7- 8-12  121.25070215

  8- 7- 9  121.65801749   8- 7-11  121.48461119   9- 7-11  116.85737132  10- 8-12  117.32518940

 NUCLEAR CHARGE:                   32
 NUMBER OF PRIMITIVE AOS:         204
 NUMBER OF SYMMETRY AOS:          196
 NUMBER OF CONTRACTIONS:          132   ( 132A   )
 NUMBER OF CORE ORBITALS:           4   (   4A   )
 NUMBER OF VALENCE ORBITALS:       24   (  24A   )


 NUCLEAR REPULSION ENERGY  102.22428254


 Eigenvalues of metric

         1 0.173E-03 0.173E-03 0.331E-03 0.332E-03 0.552E-02 0.554E-02 0.588E-02 0.672E-02


 Contracted 2-electron integrals neglected if value below      1.0D-16
 AO integral compression algorithm  1   Integral accuracy      1.0D-16

     324.010 MB (compressed) written to integral file ( 92.2%)

     Node minimum: 324.010 MB, node maximum: 324.010 MB


 NUMBER OF SORTED TWO-ELECTRON INTEGRALS:   38531031.     BUFFER LENGTH:  32768
 NUMBER OF SEGMENTS:   3  SEGMENT LENGTH:   15998004      RECORD LENGTH: 524288

 Memory used in sort:      16.56 MW

 SORT1 READ    43892337. AND WROTE    37998813. INTEGRALS IN    110 RECORDS. CPU TIME:     0.37 SEC, REAL TIME:     0.60 SEC
 SORT2 READ    37998813. AND WROTE    38531031. INTEGRALS IN   1236 RECORDS. CPU TIME:     0.33 SEC, REAL TIME:     0.47 SEC

 FILE SIZES:   FILE 1:   288.5 MBYTE,  FILE 4:   461.4 MBYTE,   TOTAL:    749.9 MBYTE

 OPERATOR DM      FOR CENTER  0  COORDINATES:    0.000000    0.000000    0.000000


 **********************************************************************************************************************************
 DATASETS  * FILE   NREC   LENGTH (MB)   RECORD NAMES
              1      19      288.66       500      610      700      900      950      970     1000      129      960     1100   
                                          VAR    BASINP    GEOM    SYMINP    ZMAT    AOBASIS   BASIS     P2S    ABASIS      S 
                                         1400     1410     1200     1210     1080     1600     1650     1300     1700   
                                           T        V       H0       H01     AOSYM     SMH    MOLCAS    ERIS     OPER   

 PROGRAMS   *        TOTAL       INT
 CPU TIMES  *         2.45      2.41
 REAL TIME  *         3.17 SEC
 DISK USED  *         1.07 GB      
 GA USED    *         0.00 MB       (max)       0.00 MB       (current)
 **********************************************************************************************************************************

1PROGRAM * RHF-SCF (CLOSED SHELL)       Authors: W. Meyer, H.-J. Werner


 NUMBER OF ELECTRONS:      16+   16-    SPACE SYMMETRY=1    SPIN SYMMETRY: Singlet 
 CONVERGENCE THRESHOLDS:    1.00E-10 (Density)    1.00E-13 (Energy)
 MAX. NUMBER OF ITERATIONS:      200
 INTERPOLATION TYPE:            DIIS
 INTERPOLATION STEPS:              2 (START)      1 (STEP)
 LEVEL SHIFTS:                  0.00 (CLOSED)  0.00 (OPEN) 



 Orbital guess generated from atomic densities. Full valence occupancy:   28

 Molecular orbital dump at record        2100.2

 ITERATION    DDIFF          GRAD             ENERGY        2-EL.EN.            DIPOLE MOMENTS         DIIS
    1      0.000D+00      0.000D+00      -156.03861289    307.072138   -0.00120    0.00120    0.00000    0
    2      0.000D+00      0.347D-02      -156.07904876    304.339882   -0.00105    0.00105    0.00000    1
    3      0.713D-02      0.117D-02      -156.08310812    305.463829   -0.00099    0.00099    0.00000    2
    4      0.225D-02      0.354D-03      -156.08367828    305.176993   -0.00108    0.00108    0.00000    3
    5      0.796D-03      0.441D-04      -156.08368909    305.191558   -0.00103    0.00103    0.00000    4
    6      0.111D-03      0.712D-05      -156.08368950    305.189999   -0.00109    0.00109    0.00000    5
    7      0.188D-04      0.172D-05      -156.08368953    305.189979   -0.00105    0.00105    0.00000    6
    8      0.515D-05      0.362D-06      -156.08368953    305.189994   -0.00109    0.00109    0.00000    6
    9      0.877D-06      0.154D-06      -156.08368953    305.189992   -0.00107    0.00107    0.00000    6
   10      0.298D-06      0.220D-07      -156.08368953    305.189993   -0.00108    0.00108    0.00000    6
   11      0.602D-07      0.400D-08      -156.08368953    305.189994   -0.00108    0.00108    0.00000    6
   12      0.111D-07      0.110D-08      -156.08368953    305.189994   -0.00108    0.00108    0.00000    6
   13      0.311D-08      0.424D-09      -156.08368953    305.189994   -0.00108    0.00108    0.00000    6
   14      0.104D-08      0.178D-09      -156.08368953    305.189994   -0.00108    0.00108    0.00000    7
   15      0.515D-09      0.559D-10      -156.08368953    305.189994   -0.00108    0.00108    0.00000    7
   16      0.207D-09      0.127D-10      -156.08368953    305.189994   -0.00108    0.00108    0.00000    7
   17      0.419D-10      0.420D-11      -156.08368953    305.189994   -0.00108    0.00108    0.00000    7
   18      0.157D-10      0.152D-11      -156.08368953    305.189994   -0.00108    0.00108    0.00000    8
   19      0.520D-11      0.132D-12      -156.08368953    305.189994   -0.00108    0.00108    0.00000    0

 Final occupancy:  16

 !RHF STATE 1.1 Energy               -156.083689529201
 Nuclear energy                       102.22428254
 One-electron energy                 -410.90296897
 Two-electron energy                  152.59499690
 Virial quotient                       -1.00199379
 !RHF STATE 1.1 Dipole moment          -0.00107582     0.00107582     0.00000008
 Dipole moment /Debye                  -0.00273429     0.00273429     0.00000020

 Orbital energies:

         1.1          2.1          3.1          4.1          5.1          6.1          7.1          8.1          9.1         10.1
    -11.241782   -11.241779   -11.240161   -11.240161    -1.038659    -1.032833    -0.794810    -0.794753    -0.656812    -0.631287

        11.1         12.1         13.1         14.1         15.1         16.1         17.1         18.1
     -0.588277    -0.584971    -0.508845    -0.508685    -0.376354    -0.376318     0.068952     0.069078


 **********************************************************************************************************************************
 DATASETS  * FILE   NREC   LENGTH (MB)   RECORD NAMES
              1      19      288.66       500      610      700      900      950      970     1000      129      960     1100   
                                          VAR    BASINP    GEOM    SYMINP    ZMAT    AOBASIS   BASIS     P2S    ABASIS      S 
                                         1400     1410     1200     1210     1080     1600     1650     1300     1700   
                                           T        V       H0       H01     AOSYM     SMH    MOLCAS    ERIS     OPER   

              2       3        0.81       700     1000     2100   
                                         GEOM     BASIS     RHF  

 PROGRAMS   *        TOTAL       RHF       INT
 CPU TIMES  *         7.44      4.99      2.41
 REAL TIME  *         8.69 SEC
 DISK USED  *         1.07 GB      
 GA USED    *         0.00 MB       (max)       0.00 MB       (current)
 **********************************************************************************************************************************


1PROGRAM * MP2 (Closed-shell)     Authors: C. Hampel, H.-J. Werner, 1991, M. Deegan, P.J. Knowles, 1992


 Convergence thresholds:  THRVAR = 1.00D-08  THRDEN = 1.00D-12

 Number of core orbitals:           4 (   4 )
 Number of closed-shell orbitals:  12 (  12 )
 Number of external orbitals:     116 ( 116 )

 Molecular orbitals read from record     2100.2  Type=RHF/CANONICAL (state 1.1)

 Number of N-1 electron functions:              12
 Number of N-2 electron functions:              78
 Number of singly external CSFs:              1392
 Number of doubly external CSFs:            969528
 Total number of CSFs:                      970921

 Length of J-op  integral file:               0.00 MB
 Length of K-op  integral file:               1.24 MB

 Integral transformation finished. Total CPU:   0.53 sec, npass=  1  Memory used:   2.65 MW

 Memory needed for MP2:                      0.08 MW

 SCS-MP2 correlation energy:           -0.573944724854   (PS=  1.200000  PT=  0.333333)
 SCS-MP2 total energy:               -156.657634254055


  Reference energy                   -156.083689529200
  MP2 singlet pair energy              -0.379790436960
  MP2 triplet pair energy              -0.189958179380
  MP2 correlation energy               -0.569748616339

 !MP2 total energy                   -156.653438145539


 **********************************************************************************************************************************
 DATASETS  * FILE   NREC   LENGTH (MB)   RECORD NAMES
              1      20      305.38       500      610      700      900      950      970     1000      129      960     1100   
                                          VAR    BASINP    GEOM    SYMINP    ZMAT    AOBASIS   BASIS     P2S    ABASIS      S 
                                         1400     1410     1200     1210     1080     1600     1650     1300     1700     1380   
                                           T        V       H0       H01     AOSYM     SMH    MOLCAS    ERIS     OPER     JKOP   

              2       3        0.81       700     1000     2100   
                                         GEOM     BASIS     RHF  

 PROGRAMS   *        TOTAL       MP2       RHF       INT
 CPU TIMES  *         8.02      0.58      4.99      2.41
 REAL TIME  *         9.34 SEC
 DISK USED  *         1.07 GB      
 GA USED    *         0.00 MB       (max)       0.00 MB       (current)
 **********************************************************************************************************************************

        MP2             RHF-SCF 
   -156.65343815   -156.08368953
 **********************************************************************************************************************************
 Variable memory released
