
 Primary working directories    : /tmp/985636.44.gen4.q
 Secondary working directories  : /tmp/985636.44.gen4.q
 Wavefunction directory         : /home/vulcan/jj04645/wfu/
 Main file repository           : /tmp/985636.44.gen4.q/

 ARCHNAME  : Linux/x86_64
 FC        : /opt/intel/compilers_and_libraries_2016.1.150/linux/bin/intel64/ifort
 FCVERSION : 16.0.1
 BLASLIB   : -mkl
 id        : ccgc

 Nodes     nprocs
 n061         1
 ga_uses_ma=false, calling ma_init with nominal heap.
 GA-space will be limited to   8.0 MW (determined by -G option)

 Using customized tuning parameters: mindgm=10; mindgv=16; mindgc=4; mindgr=1; noblas=0; mincuda=1000; minvec=7
 default implementation of scratch files=df  

 ***,Optimization of tetrahydrothiopyran
 memory,1000,m
 gthresh,energy=1.0d-12,orbital=1.0d-10,oneint=1.0d-16,twoint=1.0d-16,optgrad=1.0d-6,compress=1.0d-13
 geomtyp=xyz
 
 bohr
 geometry = {
  S    0.3529581593    2.7040256949    0.0001104665
  C   -0.3304162877   -3.3691842331   -0.0023791962
  C   -0.6630709373    0.6720298691   -2.5852855828
  C   -0.6638039300    0.6699933982    2.5836162944
  C    0.4731784391   -1.9824515551   -2.4189118593
  C    0.4724928837   -1.9843562313    2.4154732361
  H   -2.7293186320    0.5738727190   -2.5895114939
  H   -2.7300527292    0.5718331795    2.5871788374
  H   -0.0736271632    1.6280110160   -4.3151098425
  H   -0.0748508929    1.6246111325    4.3143604082
  H    2.5352321213   -1.8373334622   -2.4853880476
  H    2.5345276130   -1.8392907952    2.4826485820
  H   -0.1265100135   -3.0745390379   -4.0712141749
  H   -0.1276640429   -3.0777452730    4.0667443584
  H    0.4650475874   -5.2759240289    0.0086613227
  H   -2.3928571917   -3.5833738091    0.0090066914
 }
 
 basis=VDZ
 {rhf;maxit,200}
 {ccsd(t);maxit,200}

 Variables initialized (661), CPU time= 0.01 sec
 Commands  initialized (458), CPU time= 0.00 sec, 486 directives.
 Default parameters read. Elapsed time= 0.05 sec

 Checking input...
 Passed
1


                                         ***  PROGRAM SYSTEM MOLPRO  ***
                         Copyright, University College Cardiff Consultants Limited, 2008

                                    Version 2010.1 linked May 16 2016 07:17:05


 **********************************************************************************************************************************
 LABEL *   Optimization of tetrahydrothiopyran                                           
 Linux-4.4.3/n061(x86_64) 64 bit mpp version                                             DATE: 26-Jan-24          TIME: 10:17:15  
 **********************************************************************************************************************************

 SHA1:             9e8077add272b0f3cad6f7df79ec5211205f459d
 **********************************************************************************************************************************

 THRESHOLDS:

 ZERO    =  1.00D-12  ONEINT  =  1.00D-16  TWOINT  =  1.00D-16  PREFAC  =  1.00D-14  LOCALI  =  1.00D-09  EORDER  =  1.00D-04
 ENERGY  =  1.00D-12  ETEST   =  0.00D+00  EDENS   =  0.00D+00  THRDEDEF=  1.00D-06  GRADIENT=  1.00D-02  STEP    =  1.00D-03
 ORBITAL =  1.00D-10  CIVEC   =  1.00D-05  COEFF   =  1.00D-04  PRINTCI =  5.00D-02  PUNCHCI =  9.90D+01  OPTGRAD =  1.00D-06
 OPTENERG=  1.00D-06  OPTSTEP =  3.00D-04  THRGRAD =  1.00D-10  COMPRESS=  1.00D-13  VARMIN  =  1.00D-07  VARMAX  =  1.00D-03
 THRDOUB =  0.00D+00  THRDIV  =  1.00D-05  THRRED  =  1.00D-07  THRPSP  =  1.00D+00  THRDC   =  1.00D-10  THRCS   =  1.00D-10
 THRNRM  =  1.00D-08  THREQ   =  0.00D+00  THRDE   =  1.00D+00  THRREF  =  1.00D-05  SPARFAC =  1.00D+00  THRDLP  =  1.00D-07
 THRDIA  =  1.00D-10  THRDLS  =  1.00D-07  THRGPS  =  0.00D+00  THRKEX  =  0.00D+00  THRDIS  =  2.00D-01  THRVAR  =  1.00D-10
 THRLOC  =  1.00D-06  THRGAP  =  1.00D-06  THRLOCT = -1.00D+00  THRGAPT = -1.00D+00  THRORB  =  1.00D-06  THRMLTP =  0.00D+00
 THRCPQCI=  1.00D-10  KEXTA   =  0.00D+00  THRCOARS=  0.00D+00  SYMTOL  =  1.00D-06  GRADTOL =  1.00D-06  THROVL  =  1.00D-08
 THRORTH =  1.00D-08  GRID    =  1.00D-06  GRIDMAX =  1.00D-03  DTMAX   =  0.00D+00

 SETTING GEOMTYP        =    XYZ
 ZUNIT=BOHR
 

 Variable memory set to 1000000000 words,  buffer space   230000 words

 SETTING BASIS          =    VDZ


 Recomputing integrals since basis changed


 Using spherical harmonics

 Library entry S      S cc-pVDZ              selected for orbital group  1
 Library entry S      P cc-pVDZ              selected for orbital group  1
 Library entry S      D cc-pVDZ              selected for orbital group  1
 Library entry C      S cc-pVDZ              selected for orbital group  2
 Library entry C      P cc-pVDZ              selected for orbital group  2
 Library entry C      D cc-pVDZ              selected for orbital group  2
 Library entry H      S cc-pVDZ              selected for orbital group  3
 Library entry H      P cc-pVDZ              selected for orbital group  3

1PROGRAM * SEWARD (Integral evaluation for generally contracted gaussian basis sets)     Author: Roland Lindh, 1990

 Geometry written to block  1 of record 700


 Point group  C1  



 ATOMIC COORDINATES

 NR  ATOM    CHARGE       X              Y              Z

   1  S      16.00    0.352958159    2.704025695    0.000110467
   2  C       6.00   -0.330416288   -3.369184233   -0.002379196
   3  C       6.00   -0.663070937    0.672029869   -2.585285583
   4  C       6.00   -0.663803930    0.669993398    2.583616294
   5  C       6.00    0.473178439   -1.982451555   -2.418911859
   6  C       6.00    0.472492884   -1.984356231    2.415473236
   7  H       1.00   -2.729318632    0.573872719   -2.589511494
   8  H       1.00   -2.730052729    0.571833180    2.587178837
   9  H       1.00   -0.073627163    1.628011016   -4.315109843
  10  H       1.00   -0.074850893    1.624611133    4.314360408
  11  H       1.00    2.535232121   -1.837333462   -2.485388048
  12  H       1.00    2.534527613   -1.839290795    2.482648582
  13  H       1.00   -0.126510013   -3.074539038   -4.071214175
  14  H       1.00   -0.127664043   -3.077745273    4.066744358
  15  H       1.00    0.465047587   -5.275924029    0.008661323
  16  H       1.00   -2.392857192   -3.583373809    0.009006691

 Bond lengths in Bohr (Angstrom)

  1- 3  3.441743002   1- 4  3.441743002   2- 5  2.899727938   2- 6  2.899727938   2-15  2.066044849
       ( 1.821291956)       ( 1.821291956)       ( 1.534469937)       ( 1.534469937)       ( 1.093303847)

  2-16  2.073564394   3- 5  2.892233478   3- 7  2.068582176   3- 9  2.062434456   4- 6  2.892233478
       ( 1.097283019)       ( 1.530504040)       ( 1.094646543)       ( 1.091393309)       ( 1.530504040)

  4- 8  2.068582176   4-10  2.062434456   5-11  2.068222361   5-13  2.069392242   6-12  2.068222361
       ( 1.094646543)       ( 1.091393309)       ( 1.094456136)       ( 1.095075211)       ( 1.094456136)

  6-14  2.069392242
       ( 1.095075211)

 Bond angles

  1-3-5  112.49959988   1-3-7  108.93070335   1-3-9  105.78400621   1-4-6  112.49959988

  1- 4- 8  108.93070335   1- 4-10  105.78400621   2- 5- 3  112.20875168   2- 5-11  109.67242099

  2- 5-13  109.43352877   2- 6- 4  112.20875168   2- 6-12  109.67242099   2- 6-14  109.43352877

  3- 1- 4   97.33913432   3- 5-11  108.99246655   3- 5-13  108.93978313   4- 6-12  108.99246655

  4- 6-14  108.93978313   5- 2- 6  112.93921862   5- 2-15  109.82256249   5- 2-16  109.24545613

  5- 3- 7  110.42528714   5- 3- 9  111.18527473   6- 2-15  109.24960471   6- 2-16  108.67249835

  6- 4- 8  110.42528714   6- 4-10  111.18527473   7- 3- 9  107.80381726   8- 4-10  107.80381726

 11- 5-13  107.47505701  12- 6-14  107.47505701  15- 2-16  106.71386770

 NUCLEAR CHARGE:                   56
 NUMBER OF PRIMITIVE AOS:         247
 NUMBER OF SYMMETRY AOS:          241
 NUMBER OF CONTRACTIONS:          138   ( 138A   )
 NUMBER OF CORE ORBITALS:          10   (  10A   )
 NUMBER OF VALENCE ORBITALS:       34   (  34A   )


 NUCLEAR REPULSION ENERGY  311.78758657


 Eigenvalues of metric

         1 0.288E-02 0.307E-02 0.428E-02 0.637E-02 0.708E-02 0.152E-01 0.157E-01 0.196E-01


 Contracted 2-electron integrals neglected if value below      1.0D-16
 AO integral compression algorithm  1   Integral accuracy      1.0D-16

     374.079 MB (compressed) written to integral file ( 94.1%)

     Node minimum: 374.079 MB, node maximum: 374.079 MB


 NUMBER OF SORTED TWO-ELECTRON INTEGRALS:   45998436.     BUFFER LENGTH:  32768
 NUMBER OF SEGMENTS:   3  SEGMENT LENGTH:   15998004      RECORD LENGTH: 524288

 Memory used in sort:      16.56 MW

 SORT1 READ    49669512. AND WROTE    45794513. INTEGRALS IN    132 RECORDS. CPU TIME:     0.50 SEC, REAL TIME:     0.76 SEC
 SORT2 READ    45794513. AND WROTE    45998436. INTEGRALS IN   1427 RECORDS. CPU TIME:     0.37 SEC, REAL TIME:     0.55 SEC

 FILE SIZES:   FILE 1:   349.4 MBYTE,  FILE 4:   553.7 MBYTE,   TOTAL:    903.1 MBYTE

 OPERATOR DM      FOR CENTER  0  COORDINATES:    0.000000    0.000000    0.000000


 **********************************************************************************************************************************
 DATASETS  * FILE   NREC   LENGTH (MB)   RECORD NAMES
              1      19      349.65       500      610      700      900      950      970     1000      129      960     1100   
                                          VAR    BASINP    GEOM    SYMINP    ZMAT    AOBASIS   BASIS     P2S    ABASIS      S 
                                         1400     1410     1200     1210     1080     1600     1650     1300     1700   
                                           T        V       H0       H01     AOSYM     SMH    MOLCAS    ERIS     OPER   

 PROGRAMS   *        TOTAL       INT
 CPU TIMES  *         5.21      5.16
 REAL TIME  *         6.01 SEC
 DISK USED  *         1.28 GB      
 GA USED    *         0.01 MB       (max)       0.00 MB       (current)
 **********************************************************************************************************************************

1PROGRAM * RHF-SCF (CLOSED SHELL)       Authors: W. Meyer, H.-J. Werner


 NUMBER OF ELECTRONS:      28+   28-    SPACE SYMMETRY=1    SPIN SYMMETRY: Singlet 
 CONVERGENCE THRESHOLDS:    1.00E-10 (Density)    1.00E-13 (Energy)
 MAX. NUMBER OF ITERATIONS:      200
 INTERPOLATION TYPE:            DIIS
 INTERPOLATION STEPS:              2 (START)      1 (STEP)
 LEVEL SHIFTS:                  0.00 (CLOSED)  0.00 (OPEN) 



 Orbital guess generated from atomic densities. Full valence occupancy:   44

 Molecular orbital dump at record        2100.2

 ITERATION    DDIFF          GRAD             ENERGY        2-EL.EN.            DIPOLE MOMENTS         DIIS
    1      0.000D+00      0.000D+00      -592.64406819   1056.120889   -0.40876   -0.80652    0.00051    0
    2      0.000D+00      0.395D-02      -592.70495095   1053.586156   -0.20813   -0.74001   -0.00011    1
    3      0.775D-02      0.132D-02      -592.71085952   1054.995006   -0.28114   -0.67858   -0.00027    2
    4      0.268D-02      0.536D-03      -592.71185676   1054.386426   -0.25343   -0.71134   -0.00032    3
    5      0.925D-03      0.766D-04      -592.71188216   1054.448020   -0.24965   -0.70288   -0.00034    4
    6      0.180D-03      0.263D-04      -592.71188462   1054.417296   -0.25134   -0.70321   -0.00034    5
    7      0.497D-04      0.619D-05      -592.71188482   1054.420557   -0.25067   -0.70309   -0.00034    6
    8      0.163D-04      0.173D-05      -592.71188484   1054.419686   -0.25066   -0.70296   -0.00034    7
    9      0.536D-05      0.451D-06      -592.71188485   1054.419572   -0.25064   -0.70291   -0.00034    7
   10      0.126D-05      0.162D-06      -592.71188485   1054.419609   -0.25063   -0.70291   -0.00034    7
   11      0.478D-06      0.343D-07      -592.71188485   1054.419595   -0.25063   -0.70291   -0.00034    7
   12      0.114D-06      0.687D-08      -592.71188485   1054.419600   -0.25063   -0.70291   -0.00034    7
   13      0.182D-07      0.286D-08      -592.71188485   1054.419597   -0.25063   -0.70291   -0.00034    7
   14      0.630D-08      0.845D-09      -592.71188485   1054.419598   -0.25063   -0.70291   -0.00034    7
   15      0.227D-08      0.273D-09      -592.71188485   1054.419598   -0.25063   -0.70291   -0.00034    7
   16      0.654D-09      0.858D-10      -592.71188485   1054.419598   -0.25063   -0.70291   -0.00034    8
   17      0.204D-09      0.192D-10      -592.71188485   1054.419598   -0.25063   -0.70291   -0.00034    7
   18      0.506D-10      0.548D-11      -592.71188485   1054.419598   -0.25063   -0.70291   -0.00034    0

 Final occupancy:  28

 !RHF STATE 1.1 Energy               -592.711884845591
 Nuclear energy                       311.78758657
 One-electron energy                -1431.70927039
 Two-electron energy                  527.20979898
 Virial quotient                       -1.00023574
 !RHF STATE 1.1 Dipole moment          -0.25063349    -0.70290975    -0.00034259
 Dipole moment /Debye                  -0.63700507    -1.78650136    -0.00087072

 Orbital energies:

         1.1          2.1          3.1          4.1          5.1          6.1          7.1          8.1          9.1         10.1
    -91.929990   -11.255397   -11.255273   -11.231542   -11.231258   -11.229516    -8.933777    -6.615667    -6.614237    -6.612039

        11.1         12.1         13.1         14.1         15.1         16.1         17.1         18.1         19.1         20.1
     -1.118433    -1.019293    -1.005849    -0.842330    -0.835698    -0.755696    -0.646076    -0.614081    -0.609568    -0.578253

        21.1         22.1         23.1         24.1         25.1         26.1         27.1         28.1         29.1         30.1
     -0.546736    -0.522950    -0.497849    -0.495291    -0.473090    -0.434605    -0.411597    -0.328747     0.176899     0.190045


 **********************************************************************************************************************************
 DATASETS  * FILE   NREC   LENGTH (MB)   RECORD NAMES
              1      19      349.65       500      610      700      900      950      970     1000      129      960     1100   
                                          VAR    BASINP    GEOM    SYMINP    ZMAT    AOBASIS   BASIS     P2S    ABASIS      S 
                                         1400     1410     1200     1210     1080     1600     1650     1300     1700   
                                           T        V       H0       H01     AOSYM     SMH    MOLCAS    ERIS     OPER   

              2       3        0.92       700     1000     2100   
                                         GEOM     BASIS     RHF  

 PROGRAMS   *        TOTAL       RHF       INT
 CPU TIMES  *        11.66      6.45      5.16
 REAL TIME  *        13.20 SEC
 DISK USED  *         1.28 GB      
 GA USED    *         0.01 MB       (max)       0.00 MB       (current)
 **********************************************************************************************************************************


1PROGRAM * CCSD (Closed-shell coupled cluster)     Authors: C. Hampel, H.-J. Werner, 1991, M. Deegan, P.J. Knowles, 1992


 Convergence thresholds:  THRVAR = 1.00D-08  THRDEN = 1.00D-12

 CCSD(T)     terms to be evaluated (factor= 1.000)


 Number of core orbitals:          10 (  10 )
 Number of closed-shell orbitals:  18 (  18 )
 Number of external orbitals:     110 ( 110 )

 Molecular orbitals read from record     2100.2  Type=RHF/CANONICAL (state 1.1)

 Number of N-1 electron functions:              18
 Number of N-2 electron functions:             171
 Number of singly external CSFs:              1980
 Number of doubly external CSFs:           1961190
 Total number of CSFs:                     1963171

 Length of J-op  integral file:               0.00 MB
 Length of K-op  integral file:               1.35 MB
 Length of 3-ext integral record:             0.00 MB

 Memory could be reduced to 32.58 Mwords without degradation in triples

 Integral transformation finished. Total CPU:   2.63 sec, npass=  1  Memory used:  30.89 MW

 Reference energy:                   -592.71188485

 MP2 singlet pair energy:              -0.53959829
 MP2 triplet pair energy:              -0.30426522
 MP2 correlation energy:               -0.84386351
 MP2 total energy:                   -593.55574836

 SCS-MP2 correlation energy:           -0.83683853   (PS=  1.200000  PT=  0.333333)
 SCS-MP2 total energy:               -593.54872337

 ITER.      SQ.NORM     CORR.ENERGY   TOTAL ENERGY   ENERGY CHANGE        DEN1      VAR(S)    VAR(P)  DIIS     TIME
   1      1.33999859    -0.91089997  -593.62278482    -0.06703646    -0.04305614  0.26D-02  0.55D-02  1  1    10.62
   2      1.36704323    -0.91625886  -593.62814370    -0.00535889    -0.02580135  0.69D-04  0.46D-03  2  2    18.70
   3      1.37239415    -0.91638805  -593.62827289    -0.00012919    -0.00304532  0.16D-04  0.28D-04  3  3    26.77
   4      1.37389396    -0.91644629  -593.62833114    -0.00005825    -0.00059625  0.77D-06  0.20D-05  4  4    34.85
   5      1.37413618    -0.91645297  -593.62833782    -0.00000668    -0.00007128  0.17D-06  0.17D-06  5  5    42.92
   6      1.37418213    -0.91644851  -593.62833336     0.00000447    -0.00001401  0.30D-07  0.14D-07  6  6    51.01
   7      1.37418974    -0.91644840  -593.62833324     0.00000011     0.00000064  0.53D-08  0.23D-08  6  2    59.08
   8      1.37419585    -0.91644808  -593.62833293     0.00000031    -0.00000125  0.73D-09  0.27D-09  6  1    67.18
   9      1.37419667    -0.91644802  -593.62833286     0.00000006     0.00000051  0.65D-10  0.44D-10  6  4    75.26
  10      1.37419756    -0.91644798  -593.62833283     0.00000003    -0.00000011  0.47D-11  0.35D-11  6  3    83.34
  11      1.37419757    -0.91644799  -593.62833283    -0.00000000     0.00000004  0.11D-11  0.54D-12  6  5    91.43
  12      1.37419753    -0.91644799  -593.62833283    -0.00000000     0.00000002  0.17D-12  0.77D-13  6  6    99.54
  13      1.37419748    -0.91644799  -593.62833284    -0.00000000     0.00000002  0.24D-13  0.11D-13  6  1   107.63
  14      1.37419747    -0.91644799  -593.62833284    -0.00000000     0.00000000  0.32D-14  0.12D-14  6  2   115.73
  15      1.37419747    -0.91644799  -593.62833284     0.00000000    -0.00000000  0.69D-15  0.31D-15  6  4   123.82
  16      1.37419747    -0.91644799  -593.62833284     0.00000000    -0.00000000  0.33D-16  0.24D-16  6  5   131.92
  17      1.37419747    -0.91644799  -593.62833284     0.00000000    -0.00000000  0.60D-17  0.25D-17  6  3   140.00
  18      1.37419747    -0.91644799  -593.62833284     0.00000000    -0.00000000  0.15D-17  0.43D-18  6  5   148.09
  19      1.37419747    -0.91644799  -593.62833284     0.00000000    -0.00000000  0.19D-18  0.67D-19  6  6   156.19
  20      1.37419747    -0.91644799  -593.62833284     0.00000000     0.00000000  0.15D-19  0.68D-20  6  1   164.28
  21      1.37419747    -0.91644799  -593.62833284    -0.00000000     0.00000000  0.24D-20  0.10D-20  6  2   172.37

 Norm of t1 vector:      0.07018703      S-energy:    -0.00000000      T1 diagnostic:  0.00827162
                                                                       D1 diagnostic:  0.02115828


 Total CPU time for triples:    122.80 sec


 RESULTS
 =======

  Reference energy                   -592.711884845594
  CCSD singlet pair energy             -0.634451128990
  CCSD triplet pair energy             -0.281996860524
  CCSD correlation energy              -0.916447989515

  Triples (T) contribution             -0.029900464095
  Total correlation energy             -0.946348453609

  CCSD total energy                  -593.628332835108
  CCSD[T] energy                     -593.658853982787
  CCSD-T energy                      -593.657921088802
 !CCSD(T) total energy               -593.658233299203

 Timing summary (sec):

 STEP                 CPU(USER)    SYS     CPU(TOT)    WALL
 Transformation          2.75      0.22      2.97      2.97
 CCSD iterations       169.62      2.97    172.59    172.67
 Triples               122.80      2.31    125.11    125.13

 Program statistics:

 Available memory in ccsd:               999998604
 Min. memory needed in ccsd:               5123362
 Max. memory used in ccsd:                 6867976
 Max. memory used in cckext:               6836871 (21 integral passes)



 **********************************************************************************************************************************
 DATASETS  * FILE   NREC   LENGTH (MB)   RECORD NAMES
              1      20      486.03       500      610      700      900      950      970     1000      129      960     1100   
                                          VAR    BASINP    GEOM    SYMINP    ZMAT    AOBASIS   BASIS     P2S    ABASIS      S 
                                         1400     1410     1200     1210     1080     1600     1650     1300     1700     1380   
                                           T        V       H0       H01     AOSYM     SMH    MOLCAS    ERIS     OPER     JKOP   

              2       3        0.92       700     1000     2100   
                                         GEOM     BASIS     RHF  

 PROGRAMS   *        TOTAL   CCSD(T)       RHF       INT
 CPU TIMES  *       306.84    295.17      6.45      5.16
 REAL TIME  *       314.03 SEC
 DISK USED  *         1.28 GB      
 GA USED    *         0.01 MB       (max)       0.00 MB       (current)
 **********************************************************************************************************************************

        CCSD(T)         RHF-SCF 
   -593.65823330   -592.71188485
 **********************************************************************************************************************************
 Variable memory released
