
 Primary working directories    : /tmp/1024370.496.gen6.q
 Secondary working directories  : /tmp/1024370.496.gen6.q
 Wavefunction directory         : /home/vulcan/mel64643/wfu/
 Main file repository           : /tmp/1024370.496.gen6.q/

 ARCHNAME  : Linux/x86_64
 FC        : /opt/intel/compilers_and_libraries_2016.1.150/linux/bin/intel64/ifort
 FCVERSION : 16.0.1
 BLASLIB   : -mkl
 id        : ccgc

 Nodes     nprocs
 n075         1
 ga_uses_ma=false, calling ma_init with nominal heap.
 GA-space will be limited to   8.0 MW (determined by -G option)

 Using customized tuning parameters: mindgm=10; mindgv=16; mindgc=4; mindgr=1; noblas=0; mincuda=1000; minvec=7
 default implementation of scratch files=df  

 ***,Optimization of formic acid
 memory,1000,m
 gthresh,energy=1.0d-12,orbital=1.0d-10,oneint=1.0d-16,twoint=1.0d-16,optgrad=1.0d-6,compress=1.0d-13
 geomtyp=xyz
 
 
 symmetry,nosym
 bohr
 geometry = {
 C       -0.8307583877      3.5005984008      0.0000000000
 O        1.6226760433      3.0942398659      0.0000000000
 O       -2.4812616604      1.8854228423      0.0000000000
 H       -1.2732982054      5.5198650585      0.0000000000
 H        1.9539574316      1.2420393572      0.0000000000
 C        0.8308006388     -3.5005706041      0.0000000000
 O       -1.6226637289     -3.0943702969      0.0000000000
 O        2.4812149091     -1.8853065864      0.0000000000
 H        1.2734522884     -5.5198057024      0.0000000000
 H       -1.9540623835     -1.2422013460      0.0000000000
 }
 
 basis=AVDZ, H=VDZ
 {rhf;maxit,200}
 
 bohr
 geometry = {
  C   -0.8359579203    3.4956605478   -0.0000000000
  O    1.6202882254    3.1066584625   -0.0000000000
  O   -2.4750003103    1.8688559595   -0.0000000000
  H   -1.2826772083    5.5140067032   -0.0000000000
  H    1.9646567765    1.2568464789   -0.0000000000
  C    0.8255674998   -3.5054137759    0.0000000000
  O   -1.6249629434   -3.0818731938   -0.0000000000
  O    2.4873633379   -1.9018615661    0.0000000000
  H    1.2640346129   -5.5255616555    0.0000000000
  H   -1.9432551248   -1.2274069716   -0.0000000000
 }
 
 basis=AVDZ, H=VDZ
 {rhf;maxit,200}
 {mp2}

 Variables initialized (661), CPU time= 0.00 sec
 Commands  initialized (458), CPU time= 0.01 sec, 486 directives.
 Default parameters read. Elapsed time= 0.04 sec

 Checking input...
 Passed
1


                                         ***  PROGRAM SYSTEM MOLPRO  ***
                         Copyright, University College Cardiff Consultants Limited, 2008

                                    Version 2010.1 linked May 16 2016 07:17:05


 **********************************************************************************************************************************
 LABEL *   Optimization of formic acid                                                   
 Linux-4.4.3/n075(x86_64) 64 bit mpp version                                             DATE: 28-Feb-24          TIME: 12:09:21  
 **********************************************************************************************************************************

 SHA1:             9e8077add272b0f3cad6f7df79ec5211205f459d
 **********************************************************************************************************************************

 THRESHOLDS:

 ZERO    =  1.00D-12  ONEINT  =  1.00D-16  TWOINT  =  1.00D-16  PREFAC  =  1.00D-14  LOCALI  =  1.00D-09  EORDER  =  1.00D-04
 ENERGY  =  1.00D-12  ETEST   =  0.00D+00  EDENS   =  0.00D+00  THRDEDEF=  1.00D-06  GRADIENT=  1.00D-02  STEP    =  1.00D-03
 ORBITAL =  1.00D-10  CIVEC   =  1.00D-05  COEFF   =  1.00D-04  PRINTCI =  5.00D-02  PUNCHCI =  9.90D+01  OPTGRAD =  1.00D-06
 OPTENERG=  1.00D-06  OPTSTEP =  3.00D-04  THRGRAD =  1.00D-10  COMPRESS=  1.00D-13  VARMIN  =  1.00D-07  VARMAX  =  1.00D-03
 THRDOUB =  0.00D+00  THRDIV  =  1.00D-05  THRRED  =  1.00D-07  THRPSP  =  1.00D+00  THRDC   =  1.00D-10  THRCS   =  1.00D-10
 THRNRM  =  1.00D-08  THREQ   =  0.00D+00  THRDE   =  1.00D+00  THRREF  =  1.00D-05  SPARFAC =  1.00D+00  THRDLP  =  1.00D-07
 THRDIA  =  1.00D-10  THRDLS  =  1.00D-07  THRGPS  =  0.00D+00  THRKEX  =  0.00D+00  THRDIS  =  2.00D-01  THRVAR  =  1.00D-10
 THRLOC  =  1.00D-06  THRGAP  =  1.00D-06  THRLOCT = -1.00D+00  THRGAPT = -1.00D+00  THRORB  =  1.00D-06  THRMLTP =  0.00D+00
 THRCPQCI=  1.00D-10  KEXTA   =  0.00D+00  THRCOARS=  0.00D+00  SYMTOL  =  1.00D-06  GRADTOL =  1.00D-06  THROVL  =  1.00D-08
 THRORTH =  1.00D-08  GRID    =  1.00D-06  GRIDMAX =  1.00D-03  DTMAX   =  0.00D+00

 SETTING GEOMTYP        =    XYZ

 Variable memory set to 1000000000 words,  buffer space   230000 words

 ZSYMEL=NOSYM
 ZUNIT=BOHR
 
 SETTING BASIS          =    AVDZ,H=VDZ


 Recomputing integrals since basis changed


 Using spherical harmonics

 Library entry C      S aug-cc-pVDZ          selected for orbital group  1
 Library entry C      P aug-cc-pVDZ          selected for orbital group  1
 Library entry C      D aug-cc-pVDZ          selected for orbital group  1
 Library entry O      S aug-cc-pVDZ          selected for orbital group  2
 Library entry O      P aug-cc-pVDZ          selected for orbital group  2
 Library entry O      D aug-cc-pVDZ          selected for orbital group  2
 Library entry H      S cc-pVDZ              selected for orbital group  3
 Library entry H      P cc-pVDZ              selected for orbital group  3

1PROGRAM * SEWARD (Integral evaluation for generally contracted gaussian basis sets)     Author: Roland Lindh, 1990

 Geometry written to block  1 of record 700


 Point group  C1  



 ATOMIC COORDINATES

 NR  ATOM    CHARGE       X              Y              Z

   1  C       6.00   -0.830758388    3.500598401    0.000000000
   2  O       8.00    1.622676043    3.094239866    0.000000000
   3  O       8.00   -2.481261660    1.885422842    0.000000000
   4  H       1.00   -1.273298205    5.519865058    0.000000000
   5  H       1.00    1.953957432    1.242039357    0.000000000
   6  C       6.00    0.830800639   -3.500570604    0.000000000
   7  O       8.00   -1.622663729   -3.094370297    0.000000000
   8  O       8.00    2.481214909   -1.885306586    0.000000000
   9  H       1.00    1.273452288   -5.519805702    0.000000000
  10  H       1.00   -1.954062383   -1.242201346    0.000000000

 Bond lengths in Bohr (Angstrom)

 1-2  2.486859016  1-3  2.309318761  1-4  2.067191168  2-5  1.881593496  6-7  2.486862701
     ( 1.315989113)     ( 1.222038856)     ( 1.093910453)     ( 0.995696394)     ( 1.315991063)

  6- 8  2.309317023   6- 9  2.067184284   7-10  1.881583081
       ( 1.222037937)       ( 1.093906810)       ( 0.995690883)

 Bond angles

  1-2-5  109.54503268   2-1-3  126.21535996   2-1-4  111.76586637   3-1-4  122.01877367

  6- 7-10  109.54500778   7- 6- 8  126.21595606   7- 6- 9  111.76537222   8- 6- 9  122.01867172

 NUCLEAR CHARGE:                   48
 NUMBER OF PRIMITIVE AOS:         250
 NUMBER OF SYMMETRY AOS:          238
 NUMBER OF CONTRACTIONS:          158   ( 158A   )
 NUMBER OF CORE ORBITALS:           6   (   6A   )
 NUMBER OF VALENCE ORBITALS:       28   (  28A   )


 NUCLEAR REPULSION ENERGY  235.53139134

 EXTRA SYMMETRY OF AOS IN SYMMETRY 1:   1 1 1 1 1 1 2 1 1 2   1 1 2 1 1 2 1 2 1 1   2 1 2 1 1 1 1 1 1 2   1 1 2 1 1 2 1 1 2 1
                                        2 1 1 2 1 2 1 1 1 1   1 1 2 1 1 2 1 1 2 1   1 2 1 2 1 1 2 1 2 1   1 1 1 2 1 1 1 1 2 1
                                        1 1 1 1 1 2 1 1 2 1   1 2 1 1 2 1 2 1 1 2   1 2 1 1 1 1 1 1 2 1   1 2 1 1 2 1 1 2 1 2
                                        1 1 2 1 2 1 1 1 1 1   1 2 1 1 2 1 1 2 1 1   2 1 2 1 1 2 1 2 1 1   1 1 2 1 1 1 1 2

 Eigenvalues of metric

         1 0.779E-03 0.127E-02 0.143E-02 0.198E-02 0.276E-02 0.420E-02 0.474E-02 0.695E-02


 Contracted 2-electron integrals neglected if value below      1.0D-16
 AO integral compression algorithm  1   Integral accuracy      1.0D-16

     364.380 MB (compressed) written to integral file ( 50.2%)

     Node minimum: 364.380 MB, node maximum: 364.380 MB


 NUMBER OF SORTED TWO-ELECTRON INTEGRALS:   78895641.     BUFFER LENGTH:  32768
 NUMBER OF SEGMENTS:   5  SEGMENT LENGTH:   15999503      RECORD LENGTH: 524288

 Memory used in sort:      16.56 MW

 SORT1 READ    90699450. AND WROTE    40406666. INTEGRALS IN    118 RECORDS. CPU TIME:     0.60 SEC, REAL TIME:     0.84 SEC
 SORT2 READ    40406666. AND WROTE    78895641. INTEGRALS IN   1390 RECORDS. CPU TIME:     0.55 SEC, REAL TIME:     0.73 SEC

 FILE SIZES:   FILE 1:   319.4 MBYTE,  FILE 4:   495.0 MBYTE,   TOTAL:    814.4 MBYTE

 OPERATOR DM      FOR CENTER  0  COORDINATES:    0.000000    0.000000    0.000000


 **********************************************************************************************************************************
 DATASETS  * FILE   NREC   LENGTH (MB)   RECORD NAMES
              1      19      319.74       500      610      700      900      950      970     1000      129      960     1100   
                                          VAR    BASINP    GEOM    SYMINP    ZMAT    AOBASIS   BASIS     P2S    ABASIS      S 
                                         1400     1410     1200     1210     1080     1600     1650     1300     1700   
                                           T        V       H0       H01     AOSYM     SMH    MOLCAS    ERIS     OPER   

 PROGRAMS   *        TOTAL       INT
 CPU TIMES  *         4.13      4.09
 REAL TIME  *         4.94 SEC
 DISK USED  *         1.18 GB      
 GA USED    *         0.00 MB       (max)       0.00 MB       (current)
 **********************************************************************************************************************************

1PROGRAM * RHF-SCF (CLOSED SHELL)       Authors: W. Meyer, H.-J. Werner


 NUMBER OF ELECTRONS:      24+   24-    SPACE SYMMETRY=1    SPIN SYMMETRY: Singlet 
 CONVERGENCE THRESHOLDS:    1.00E-10 (Density)    1.00E-13 (Energy)
 MAX. NUMBER OF ITERATIONS:      200
 INTERPOLATION TYPE:            DIIS
 INTERPOLATION STEPS:              2 (START)      1 (STEP)
 LEVEL SHIFTS:                  0.00 (CLOSED)  0.00 (OPEN) 



 Orbital guess generated from atomic densities. Full valence occupancy:   34

 Molecular orbital dump at record        2100.2

 ITERATION    DDIFF          GRAD             ENERGY        2-EL.EN.            DIPOLE MOMENTS         DIIS
    1      0.000D+00      0.000D+00      -377.47440594    746.307342    0.00004   -0.00016   -0.00000    0
    2      0.000D+00      0.724D-02      -377.56263072    743.508123    0.00003   -0.00016    0.00000    1
    3      0.137D-01      0.456D-02      -377.60997717    745.783070    0.00004   -0.00015    0.00000    2
    4      0.513D-02      0.651D-03      -377.61158629    745.385452    0.00004   -0.00014   -0.00000    3
    5      0.997D-03      0.276D-03      -377.61186912    745.422736    0.00004   -0.00014    0.00000    4
    6      0.415D-03      0.775D-04      -377.61191288    745.474432    0.00004   -0.00014   -0.00000    5
    7      0.139D-03      0.345D-04      -377.61192338    745.456409    0.00004   -0.00014   -0.00000    6
    8      0.802D-04      0.109D-04      -377.61192462    745.461924    0.00004   -0.00014   -0.00000    7
    9      0.296D-04      0.358D-05      -377.61192474    745.460591    0.00004   -0.00014   -0.00000    8
   10      0.964D-05      0.983D-06      -377.61192475    745.460824    0.00004   -0.00014   -0.00000    7
   11      0.268D-05      0.289D-06      -377.61192475    745.460747    0.00004   -0.00014    0.00000    8
   12      0.782D-06      0.891D-07      -377.61192475    745.460780    0.00004   -0.00014    0.00000    8
   13      0.222D-06      0.361D-07      -377.61192475    745.460760    0.00004   -0.00014   -0.00000    8
   14      0.654D-07      0.117D-07      -377.61192475    745.460764    0.00004   -0.00014   -0.00000    8
   15      0.273D-07      0.395D-08      -377.61192475    745.460765    0.00004   -0.00014   -0.00000    8
   16      0.755D-08      0.123D-08      -377.61192475    745.460764    0.00004   -0.00014   -0.00000    8
   17      0.218D-08      0.311D-09      -377.61192475    745.460764    0.00004   -0.00014    0.00000    8
   18      0.577D-09      0.964D-10      -377.61192475    745.460764    0.00004   -0.00014    0.00000    8
   19      0.197D-09      0.302D-10      -377.61192475    745.460764    0.00004   -0.00014   -0.00000    8
   20      0.637D-10      0.879D-11      -377.61192475    745.460764    0.00004   -0.00014   -0.00000    7
   21      0.196D-10      0.346D-11      -377.61192475    745.460764    0.00004   -0.00014    0.00000    8
   22      0.595D-11      0.123D-11      -377.61192475    745.460764    0.00004   -0.00014    0.00000    8
   23      0.266D-11      0.245D-12      -377.61192475    745.460764    0.00004   -0.00014    0.00000    7
   24      0.953D-12      0.998D-13      -377.61192475    745.460764    0.00004   -0.00014    0.00000    8
   25      0.606D-12      0.718D-13      -377.61192475    745.460764    0.00004   -0.00014    0.00000    8
   26      0.586D-12      0.435D-13      -377.61192475    745.460764    0.00004   -0.00014    0.00000    0

 Final occupancy:  24

 !RHF STATE 1.1 Energy               -377.611924750321
 Nuclear energy                       235.53139134
 One-electron energy                 -985.87369819
 Two-electron energy                  372.73038210
 Virial quotient                       -1.00164129
 !RHF STATE 1.1 Dipole moment           0.00003665    -0.00014001     0.00000000
 Dipole moment /Debye                   0.00009315    -0.00035585     0.00000000

 Orbital energies:

         1.1          2.1          3.1          4.1          5.1          6.1          7.1          8.1          9.1         10.1
    -20.626259   -20.626246   -20.587610   -20.587601   -11.419905   -11.419895    -1.490281    -1.477612    -1.392143    -1.378189

        11.1         12.1         13.1         14.1         15.1         16.1         17.1         18.1         19.1         20.1
     -0.921868    -0.886170    -0.771403    -0.735450    -0.726765    -0.698118    -0.645608    -0.635276    -0.622433    -0.581949

        21.1         22.1         23.1         24.1         25.1         26.1
     -0.506858    -0.498049    -0.495132    -0.475647     0.069507     0.070575


 **********************************************************************************************************************************
 DATASETS  * FILE   NREC   LENGTH (MB)   RECORD NAMES
              1      19      319.74       500      610      700      900      950      970     1000      129      960     1100   
                                          VAR    BASINP    GEOM    SYMINP    ZMAT    AOBASIS   BASIS     P2S    ABASIS      S 
                                         1400     1410     1200     1210     1080     1600     1650     1300     1700   
                                           T        V       H0       H01     AOSYM     SMH    MOLCAS    ERIS     OPER   

              2       3        0.94       700     1000     2100   
                                         GEOM     BASIS     RHF  

 PROGRAMS   *        TOTAL       RHF       INT
 CPU TIMES  *        17.93     13.80      4.09
 REAL TIME  *        19.52 SEC
 DISK USED  *         1.18 GB      
 GA USED    *         0.00 MB       (max)       0.00 MB       (current)
 **********************************************************************************************************************************
 ZUNIT=BOHR
 
 SETTING BASIS          =    AVDZ,H=VDZ


 Recomputing integrals since geometry and symmetry changed


 Using spherical harmonics

 Library entry C      S aug-cc-pVDZ          selected for orbital group  1
 Library entry C      P aug-cc-pVDZ          selected for orbital group  1
 Library entry C      D aug-cc-pVDZ          selected for orbital group  1
 Library entry O      S aug-cc-pVDZ          selected for orbital group  2
 Library entry O      P aug-cc-pVDZ          selected for orbital group  2
 Library entry O      D aug-cc-pVDZ          selected for orbital group  2
 Library entry H      S cc-pVDZ              selected for orbital group  3
 Library entry H      P cc-pVDZ              selected for orbital group  3

1PROGRAM * SEWARD (Integral evaluation for generally contracted gaussian basis sets)     Author: Roland Lindh, 1990

 Geometry written to block  1 of record 701


 Point group  Cs  



 ATOMIC COORDINATES

 NR  ATOM    CHARGE       X              Y              Z

   1  C       6.00   -0.835957920    3.495660548    0.000000000
   2  O       8.00    1.620288225    3.106658462    0.000000000
   3  O       8.00   -2.475000310    1.868855960    0.000000000
   4  H       1.00   -1.282677208    5.514006703    0.000000000
   5  H       1.00    1.964656777    1.256846479    0.000000000
   6  C       6.00    0.825567500   -3.505413776    0.000000000
   7  O       8.00   -1.624962943   -3.081873194    0.000000000
   8  O       8.00    2.487363338   -1.901861566    0.000000000
   9  H       1.00    1.264034613   -5.525561655    0.000000000
  10  H       1.00   -1.943255125   -1.227406972    0.000000000

 Bond lengths in Bohr (Angstrom)

 1-2  2.486859013  1-3  2.309318758  1-4  2.067191168  2-5  1.881593493  6-7  2.486862698
     ( 1.315989112)     ( 1.222038855)     ( 1.093910453)     ( 0.995696393)     ( 1.315991062)

  6- 8  2.309317020   6- 9  2.067184284   7-10  1.881583079
       ( 1.222037935)       ( 1.093906810)       ( 0.995690882)

 Bond angles

  1-2-5  109.54503268   2-1-3  126.21535996   2-1-4  111.47938748   3-1-4  122.30525257

  6- 7-10  109.54500778   7- 6- 8  126.21595606   7- 6- 9  112.05185112   8- 6- 9  121.73219282

 NUCLEAR CHARGE:                   48
 NUMBER OF PRIMITIVE AOS:         250
 NUMBER OF SYMMETRY AOS:          238
 NUMBER OF CONTRACTIONS:          158   ( 112A'  +  46A"  )
 NUMBER OF CORE ORBITALS:           6   (   6A'  +   0A"  )
 NUMBER OF VALENCE ORBITALS:       28   (  22A'  +   6A"  )

 SYMMETRY CHANGED: INITIALIZING OCCUPATION


 NUCLEAR REPULSION ENERGY  235.53414636


 Eigenvalues of metric

         1 0.779E-03 0.127E-02 0.143E-02 0.198E-02 0.276E-02 0.420E-02 0.474E-02 0.694E-02
         2 0.270E-01 0.379E-01 0.473E-01 0.520E-01 0.617E-01 0.743E-01 0.105E+00 0.138E+00


 Contracted 2-electron integrals neglected if value below      1.0D-16
 AO integral compression algorithm  1   Integral accuracy      1.0D-16

     353.370 MB (compressed) written to integral file ( 94.6%)

     Node minimum: 353.370 MB, node maximum: 353.370 MB


 NUMBER OF SORTED TWO-ELECTRON INTEGRALS:   41131481.     BUFFER LENGTH:  32768
 NUMBER OF SEGMENTS:   3  SEGMENT LENGTH:   15997996      RECORD LENGTH: 524288

 Memory used in sort:      16.56 MW

 SORT1 READ    46708508. AND WROTE    40803254. INTEGRALS IN    118 RECORDS. CPU TIME:     0.45 SEC, REAL TIME:     0.72 SEC
 SORT2 READ    40803254. AND WROTE    41131481. INTEGRALS IN   1348 RECORDS. CPU TIME:     0.37 SEC, REAL TIME:     0.54 SEC

 FILE SIZES:   FILE 1:   320.1 MBYTE,  FILE 4:   495.0 MBYTE,   TOTAL:    815.1 MBYTE

 OPERATOR DM      FOR CENTER  0  COORDINATES:    0.000000    0.000000    0.000000


 **********************************************************************************************************************************
 DATASETS  * FILE   NREC   LENGTH (MB)   RECORD NAMES
              1      20      320.29       500      610      700      701      900      950      970     1001      129      960   
                                          VAR    BASINP    GEOM     GEOM    SYMINP    ZMAT    AOBASIS   BASIS     P2S    ABASIS    
                                         1100     1400     1410     1200     1210     1080     1600     1650     1300     1700   
                                           S        T        V       H0       H01     AOSYM     SMH    MOLCAS    ERIS     OPER   

              2       5        1.81       700     1000     2100      701     1001   
                                         GEOM     BASIS     RHF     GEOM     BASIS   

 PROGRAMS   *        TOTAL       INT       RHF       INT
 CPU TIMES  *        21.83      3.90     13.80      4.09
 REAL TIME  *        24.09 SEC
 DISK USED  *         1.18 GB      
 GA USED    *         0.00 MB       (max)       0.00 MB       (current)
 **********************************************************************************************************************************

1PROGRAM * RHF-SCF (CLOSED SHELL)       Authors: W. Meyer, H.-J. Werner


 NUMBER OF ELECTRONS:      24+   24-
 CONVERGENCE THRESHOLDS:    1.00E-10 (Density)    1.00E-13 (Energy)
 MAX. NUMBER OF ITERATIONS:      200
 INTERPOLATION TYPE:            DIIS
 INTERPOLATION STEPS:              2 (START)      1 (STEP)
 LEVEL SHIFTS:                  0.00 (CLOSED)  0.00 (OPEN) 



 Orbital guess generated from atomic densities. Full valence occupancy:   28   6

 Molecular orbital dump at record        2101.2

 Initial alpha occupancy:  20   4
 Initial beta  occupancy:  20   4
 Wave function symmetry:    1

 ITERATION    DDIFF          GRAD             ENERGY        2-EL.EN.            DIPOLE MOMENTS         DIIS
    1      0.000D+00      0.000D+00      -377.47436357    746.313099   -0.00927    0.03879    0.00000    0
    2      0.000D+00      0.943D-02      -377.56259436    743.513436   -0.00351    0.03559    0.00000    1
    3      0.179D-01      0.593D-02      -377.60994175    745.788545   -0.00799    0.03410    0.00000    2
    4      0.668D-02      0.847D-03      -377.61155078    745.390886   -0.00700    0.03327    0.00000    3
    5      0.130D-02      0.359D-03      -377.61183357    745.428197   -0.00737    0.03297    0.00000    4
    6      0.540D-03      0.101D-03      -377.61187733    745.479886   -0.00726    0.03283    0.00000    5
    7      0.181D-03      0.449D-04      -377.61188783    745.461867   -0.00728    0.03279    0.00000    6
    8      0.104D-03      0.141D-04      -377.61188907    745.467380   -0.00725    0.03279    0.00000    7
    9      0.386D-04      0.466D-05      -377.61188918    745.466048   -0.00727    0.03278    0.00000    8
   10      0.125D-04      0.128D-05      -377.61188919    745.466281   -0.00726    0.03279    0.00000    7
   11      0.349D-05      0.380D-06      -377.61188919    745.466205   -0.00727    0.03278    0.00000    8
   12      0.101D-05      0.133D-06      -377.61188919    745.466233   -0.00726    0.03278    0.00000    8
   13      0.283D-06      0.500D-07      -377.61188919    745.466218   -0.00726    0.03278    0.00000    8
   14      0.854D-07      0.148D-07      -377.61188919    745.466220   -0.00726    0.03278    0.00000    8
   15      0.294D-07      0.614D-08      -377.61188919    745.466222   -0.00726    0.03278    0.00000    8
   16      0.111D-07      0.164D-08      -377.61188919    745.466221   -0.00726    0.03278    0.00000    8
   17      0.272D-08      0.487D-09      -377.61188919    745.466221   -0.00726    0.03278    0.00000    8
   18      0.911D-09      0.192D-09      -377.61188919    745.466221   -0.00726    0.03278    0.00000    8
   19      0.340D-09      0.849D-10      -377.61188919    745.466221   -0.00726    0.03278    0.00000    8
   20      0.162D-09      0.419D-10      -377.61188919    745.466221   -0.00726    0.03278    0.00000    8
   21      0.852D-10      0.114D-10      -377.61188919    745.466221   -0.00726    0.03278    0.00000    8
   22      0.311D-10      0.341D-11      -377.61188919    745.466221   -0.00726    0.03278    0.00000    8
   23      0.830D-11      0.148D-11      -377.61188919    745.466221   -0.00726    0.03278    0.00000    8
   24      0.340D-11      0.340D-12      -377.61188919    745.466221   -0.00726    0.03278    0.00000    8
   25      0.130D-11      0.158D-12      -377.61188919    745.466221   -0.00726    0.03278    0.00000    9
   26      0.112D-11      0.795D-13      -377.61188919    745.466221   -0.00726    0.03278    0.00000    9
   27      0.563D-12      0.515D-13      -377.61188919    745.466221   -0.00726    0.03278    0.00000    9
   28      0.351D-12      0.539D-13      -377.61188919    745.466221   -0.00726    0.03278    0.00000    9
   29      0.319D-12      0.538D-13      -377.61188919    745.466221   -0.00726    0.03278    0.00000    9
   30      0.144D-12      0.446D-13      -377.61188919    745.466221   -0.00726    0.03278    0.00000    9
   31      0.171D-12      0.452D-13      -377.61188919    745.466221   -0.00726    0.03278    0.00000    9
   32      0.115D-12      0.467D-13      -377.61188919    745.466221   -0.00726    0.03278    0.00000    9
   33      0.100D-12      0.402D-13      -377.61188919    745.466221   -0.00726    0.03278    0.00000    0

 Final occupancy:  20   4

 !RHF STATE 1.1 Energy               -377.611889193421
 Nuclear energy                       235.53414636
 One-electron energy                 -985.87914600
 Two-electron energy                  372.73311044
 Virial quotient                       -1.00164046
 !RHF STATE 1.1 Dipole moment          -0.00726037     0.03278243     0.00000000
 Dipole moment /Debye                  -0.01845280     0.08331916     0.00000000

 Orbital energies:

         1.1          2.1          3.1          4.1          5.1          6.1          7.1          8.1          9.1         10.1
    -20.627649   -20.624838   -20.588680   -20.586526   -11.421043   -11.418757    -1.490396    -1.477501    -1.392259    -1.378079

        11.1         12.1         13.1         14.1         15.1         16.1         17.1         18.1         19.1         20.1
     -0.921924    -0.886137    -0.771447    -0.735576    -0.726638    -0.698080    -0.622460    -0.581927    -0.498080    -0.475594

        21.1         22.1
      0.069390     0.070692

         1.2          2.2          3.2          4.2          5.2          6.2
     -0.645731    -0.635151    -0.506990    -0.495000     0.080699     0.093018


 **********************************************************************************************************************************
 DATASETS  * FILE   NREC   LENGTH (MB)   RECORD NAMES
              1      20      320.29       500      610      700      701      900      950      970     1001      129      960   
                                          VAR    BASINP    GEOM     GEOM    SYMINP    ZMAT    AOBASIS   BASIS     P2S    ABASIS    
                                         1100     1400     1410     1200     1210     1080     1600     1650     1300     1700   
                                           S        T        V       H0       H01     AOSYM     SMH    MOLCAS    ERIS     OPER   

              2       6        2.14       700     1000     2100      701     1001     2101   
                                         GEOM     BASIS     RHF     GEOM     BASIS     RHF  

 PROGRAMS   *        TOTAL       RHF       INT       RHF       INT
 CPU TIMES  *        28.38      6.55      3.90     13.80      4.09
 REAL TIME  *        31.68 SEC
 DISK USED  *         1.18 GB      
 GA USED    *         0.00 MB       (max)       0.00 MB       (current)
 **********************************************************************************************************************************


1PROGRAM * MP2 (Closed-shell)     Authors: C. Hampel, H.-J. Werner, 1991, M. Deegan, P.J. Knowles, 1992


 Convergence thresholds:  THRVAR = 1.00D-08  THRDEN = 1.00D-12

 Number of core orbitals:           6 (   6   0 )
 Number of closed-shell orbitals:  18 (  14   4 )
 Number of external orbitals:     134 (  92  42 )

 Molecular orbitals read from record     2101.2  Type=RHF/CANONICAL (state 1.1)

 Number of N-1 electron functions:              18
 Number of N-2 electron functions:             171
 Number of singly external CSFs:              1456
 Number of doubly external CSFs:           1518142
 Total number of CSFs:                     1519599

 Length of J-op  integral file:               0.00 MB
 Length of K-op  integral file:               1.05 MB

 Integral transformation finished. Total CPU:   0.51 sec, npass=  1  Memory used:   2.48 MW

 Memory needed for MP2:                      0.07 MW

 SCS-MP2 correlation energy:           -1.026302055294   (PS=  1.200000  PT=  0.333333)
 SCS-MP2 total energy:               -378.638191248716


  Reference energy                   -377.611889193422
  MP2 singlet pair energy              -0.631995020865
  MP2 triplet pair energy              -0.430566477197
  MP2 correlation energy               -1.062561498062

 !MP2 total energy                   -378.674450691484


 **********************************************************************************************************************************
 DATASETS  * FILE   NREC   LENGTH (MB)   RECORD NAMES
              1      21      348.07       500      610      700      701      900      950      970     1001      129      960   
                                          VAR    BASINP    GEOM     GEOM    SYMINP    ZMAT    AOBASIS   BASIS     P2S    ABASIS    
                                         1100     1400     1410     1200     1210     1080     1600     1650     1300     1700   
                                           S        T        V       H0       H01     AOSYM     SMH    MOLCAS    ERIS     OPER   
                                         1380   
                                         JKOP   

              2       6        2.14       700     1000     2100      701     1001     2101   
                                         GEOM     BASIS     RHF     GEOM     BASIS     RHF  

 PROGRAMS   *        TOTAL       MP2       RHF       INT       RHF       INT
 CPU TIMES  *        28.95      0.57      6.55      3.90     13.80      4.09
 REAL TIME  *        32.34 SEC
 DISK USED  *         1.18 GB      
 GA USED    *         0.00 MB       (max)       0.00 MB       (current)
 **********************************************************************************************************************************

        MP2             RHF-SCF         RHF-SCF 
   -378.67445069   -377.61188919   -377.61192475
 **********************************************************************************************************************************
 Variable memory released
