
 Primary working directories    : /tmp/1047041.890.gen6.q
 Secondary working directories  : /tmp/1047041.890.gen6.q
 Wavefunction directory         : /home/vulcan/mel64643/wfu/
 Main file repository           : /tmp/1047041.890.gen6.q/

 ARCHNAME  : Linux/x86_64
 FC        : /opt/intel/compilers_and_libraries_2016.1.150/linux/bin/intel64/ifort
 FCVERSION : 16.0.1
 BLASLIB   : -mkl
 id        : ccgc

 Nodes     nprocs
 n086         1
 ga_uses_ma=false, calling ma_init with nominal heap.
 GA-space will be limited to   8.0 MW (determined by -G option)

 Using customized tuning parameters: mindgm=10; mindgv=16; mindgc=4; mindgr=1; noblas=0; mincuda=1000; minvec=7
 default implementation of scratch files=df  

 ***,Optimization of ben_hcn
 memory,1000,m
 gthresh,energy=1.0d-12,orbital=1.0d-10,oneint=1.0d-16,twoint=1.0d-16,optgrad=1.0d-6,compress=1.0d-13
 geomtyp=xyz
 
 
 
 bohr
 geometry = {
  C   -1.8839847914    1.3694731904    2.2860974326
  C   -1.8626096477    2.6902802541   -0.0037799196
  C   -1.8743125872    1.3676094027   -2.2926360020
  C   -1.9187994768   -1.2754820458   -2.2915553688
  C   -1.9516058107   -2.5959137009   -0.0018327913
  C   -1.9284508483   -1.2736377244    2.2869556209
  H   -1.8602286967    2.3938418190    4.0593104421
  H   -1.8313526823    4.7380255716   -0.0045588758
  H   -1.8428984180    2.3905250287   -4.0665629628
  H   -1.9214223312   -2.3002013506   -4.0646916549
  H   -1.9882875111   -4.6435190661   -0.0010690279
  H   -1.9386084523   -2.2969436378    4.0608858830
  N    6.6328230664   -0.1991359370    0.0073964472
  C    4.4431056129   -0.0762817523    0.0102005932
  H    2.4134338215    0.0378834962    0.0129406982
 }
 
 basis=aug-cc-pvdz, H=cc-pvdz
 {rhf;maxit,200}
 {ccsd(t)}

 Variables initialized (661), CPU time= 0.01 sec
 Commands  initialized (458), CPU time= 0.00 sec, 486 directives.
 Default parameters read. Elapsed time= 0.04 sec

 Checking input...
 Passed
1


                                         ***  PROGRAM SYSTEM MOLPRO  ***
                         Copyright, University College Cardiff Consultants Limited, 2008

                                    Version 2010.1 linked May 16 2016 07:17:05


 **********************************************************************************************************************************
 LABEL *   Optimization of ben_hcn                                                       
 Linux-4.4.3/n086(x86_64) 64 bit mpp version                                             DATE: 08-Mar-24          TIME: 15:26:51  
 **********************************************************************************************************************************

 SHA1:             9e8077add272b0f3cad6f7df79ec5211205f459d
 **********************************************************************************************************************************

 THRESHOLDS:

 ZERO    =  1.00D-12  ONEINT  =  1.00D-16  TWOINT  =  1.00D-16  PREFAC  =  1.00D-14  LOCALI  =  1.00D-09  EORDER  =  1.00D-04
 ENERGY  =  1.00D-12  ETEST   =  0.00D+00  EDENS   =  0.00D+00  THRDEDEF=  1.00D-06  GRADIENT=  1.00D-02  STEP    =  1.00D-03
 ORBITAL =  1.00D-10  CIVEC   =  1.00D-05  COEFF   =  1.00D-04  PRINTCI =  5.00D-02  PUNCHCI =  9.90D+01  OPTGRAD =  1.00D-06
 OPTENERG=  1.00D-06  OPTSTEP =  3.00D-04  THRGRAD =  1.00D-10  COMPRESS=  1.00D-13  VARMIN  =  1.00D-07  VARMAX  =  1.00D-03
 THRDOUB =  0.00D+00  THRDIV  =  1.00D-05  THRRED  =  1.00D-07  THRPSP  =  1.00D+00  THRDC   =  1.00D-10  THRCS   =  1.00D-10
 THRNRM  =  1.00D-08  THREQ   =  0.00D+00  THRDE   =  1.00D+00  THRREF  =  1.00D-05  SPARFAC =  1.00D+00  THRDLP  =  1.00D-07
 THRDIA  =  1.00D-10  THRDLS  =  1.00D-07  THRGPS  =  0.00D+00  THRKEX  =  0.00D+00  THRDIS  =  2.00D-01  THRVAR  =  1.00D-10
 THRLOC  =  1.00D-06  THRGAP  =  1.00D-06  THRLOCT = -1.00D+00  THRGAPT = -1.00D+00  THRORB  =  1.00D-06  THRMLTP =  0.00D+00
 THRCPQCI=  1.00D-10  KEXTA   =  0.00D+00  THRCOARS=  0.00D+00  SYMTOL  =  1.00D-06  GRADTOL =  1.00D-06  THROVL  =  1.00D-08
 THRORTH =  1.00D-08  GRID    =  1.00D-06  GRIDMAX =  1.00D-03  DTMAX   =  0.00D+00

 SETTING GEOMTYP        =    XYZ
 ZUNIT=BOHR
 

 Variable memory set to 1000000000 words,  buffer space   230000 words

 SETTING BASIS          =    AUG-CC-PVDZ,H=CC-PVDZ


 Recomputing integrals since basis changed


 Using spherical harmonics

 Library entry C      S aug-cc-pVDZ          selected for orbital group  1
 Library entry C      P aug-cc-pVDZ          selected for orbital group  1
 Library entry C      D aug-cc-pVDZ          selected for orbital group  1
 Library entry H      S cc-pVDZ              selected for orbital group  2
 Library entry H      P cc-pVDZ              selected for orbital group  2
 Library entry N      S aug-cc-pVDZ          selected for orbital group  3
 Library entry N      P aug-cc-pVDZ          selected for orbital group  3
 Library entry N      D aug-cc-pVDZ          selected for orbital group  3

1PROGRAM * SEWARD (Integral evaluation for generally contracted gaussian basis sets)     Author: Roland Lindh, 1990

 Geometry written to block  1 of record 700


 Point group  C1  



 ATOMIC COORDINATES

 NR  ATOM    CHARGE       X              Y              Z

   1  C       6.00   -1.883984791    1.369473190    2.286097433
   2  C       6.00   -1.862609648    2.690280254   -0.003779920
   3  C       6.00   -1.874312587    1.367609403   -2.292636002
   4  C       6.00   -1.918799477   -1.275482046   -2.291555369
   5  C       6.00   -1.951605811   -2.595913701   -0.001832791
   6  C       6.00   -1.928450848   -1.273637724    2.286955621
   7  H       1.00   -1.860228697    2.393841819    4.059310442
   8  H       1.00   -1.831352682    4.738025572   -0.004558876
   9  H       1.00   -1.842898418    2.390525029   -4.066562963
  10  H       1.00   -1.921422331   -2.300201351   -4.064691655
  11  H       1.00   -1.988287511   -4.643519066   -0.001069028
  12  H       1.00   -1.938608452   -2.296943638    4.060885883
  13  N       7.00    6.632823066   -0.199135937    0.007396447
  14  C       6.00    4.443105613   -0.076281752    0.010200593
  15  H       1.00    2.413433821    0.037883496    0.012940698

 Bond lengths in Bohr (Angstrom)

 1-2  2.643582131  1-6  2.643485062  1-7  2.047969682  2-3  2.643569047  2-8  2.047984006
     ( 1.398923414)     ( 1.398872047)     ( 1.083738880)     ( 1.398916490)     ( 1.083746461)

  3- 4  2.643466031   3- 9  2.047964865   4- 5  2.643377668   4-10  2.047942583   5- 6  2.643388414
       ( 1.398861976)       ( 1.083736332)       ( 1.398815216)       ( 1.083724540)       ( 1.398820903)

  5-11  2.047934047   6-12  2.047946958  13-14  2.193162908  14-15  2.032881894
       ( 1.083720023)       ( 1.083726856)       ( 1.160571826)       ( 1.075754767)

 Bond angles

  1- 2- 3  119.99726034   1- 2- 8  120.00148297   1- 6- 5  120.00102795   1- 6-12  119.99787933

  2-1-6  119.99829822   2-1-7  119.99940333   2-3-4  119.99900349   2-3-9  119.99935148

  3- 2- 8  120.00100643   3- 4- 5  120.00109718   3- 4-10  119.99748351   4- 3- 9  120.00135956

  4- 5- 6  120.00207232   4- 5-11  119.99931044   5- 4-10  120.00109368   5- 6-12  120.00077449

  6- 1- 7  120.00202695   6- 5-11  119.99826567  13-14-15  179.99091354

 NUCLEAR CHARGE:                   56
 NUMBER OF PRIMITIVE AOS:         345
 NUMBER OF SYMMETRY AOS:          329
 NUMBER OF CONTRACTIONS:          219   ( 219A   )
 NUMBER OF CORE ORBITALS:           8   (   8A   )
 NUMBER OF VALENCE ORBITALS:       39   (  39A   )


 NUCLEAR REPULSION ENERGY  303.29398585


 Eigenvalues of metric

         1 0.865E-05 0.186E-04 0.229E-04 0.534E-04 0.630E-04 0.631E-04 0.927E-04 0.932E-04


 Contracted 2-electron integrals neglected if value below      1.0D-16
 AO integral compression algorithm  1   Integral accuracy      1.0D-16

     2339.373 MB (compressed) written to integral file ( 91.2%)

     Node minimum: 2339.373 MB, node maximum: 2339.373 MB


 NUMBER OF SORTED TWO-ELECTRON INTEGRALS:  290176095.     BUFFER LENGTH:  32768
 NUMBER OF SEGMENTS:  19  SEGMENT LENGTH:   15999762      RECORD LENGTH: 524288

 Memory used in sort:      16.56 MW

 SORT1 READ   320642736. AND WROTE   287584420. INTEGRALS IN    832 RECORDS. CPU TIME:     2.94 SEC, REAL TIME:     4.56 SEC
 SORT2 READ   287584420. AND WROTE   290176095. INTEGRALS IN   8924 RECORDS. CPU TIME:     2.02 SEC, REAL TIME:     3.11 SEC

 FILE SIZES:   FILE 1:  2150.3 MBYTE,  FILE 4:  3489.7 MBYTE,   TOTAL:   5640.0 MBYTE

 OPERATOR DM      FOR CENTER  0  COORDINATES:    0.000000    0.000000    0.000000


 **********************************************************************************************************************************
 DATASETS  * FILE   NREC   LENGTH (MB)   RECORD NAMES
              1      19     2150.89       500      610      700      900      950      970     1000      129      960     1100   
                                          VAR    BASINP    GEOM    SYMINP    ZMAT    AOBASIS   BASIS     P2S    ABASIS      S 
                                         1400     1410     1200     1210     1080     1600     1650     1300     1700   
                                           T        V       H0       H01     AOSYM     SMH    MOLCAS    ERIS     OPER   

 PROGRAMS   *        TOTAL       INT
 CPU TIMES  *        15.89     15.85
 REAL TIME  *        19.79 SEC
 DISK USED  *         7.98 GB      
 GA USED    *         0.01 MB       (max)       0.00 MB       (current)
 **********************************************************************************************************************************

1PROGRAM * RHF-SCF (CLOSED SHELL)       Authors: W. Meyer, H.-J. Werner


 NUMBER OF ELECTRONS:      28+   28-    SPACE SYMMETRY=1    SPIN SYMMETRY: Singlet 
 CONVERGENCE THRESHOLDS:    1.00E-10 (Density)    1.00E-13 (Energy)
 MAX. NUMBER OF ITERATIONS:      200
 INTERPOLATION TYPE:            DIIS
 INTERPOLATION STEPS:              2 (START)      1 (STEP)
 LEVEL SHIFTS:                  0.00 (CLOSED)  0.00 (OPEN) 



 Orbital guess generated from atomic densities. Full valence occupancy:   47

 Molecular orbital dump at record        2100.2

 ITERATION    DDIFF          GRAD             ENERGY        2-EL.EN.            DIPOLE MOMENTS         DIIS
    1      0.000D+00      0.000D+00      -323.54118728    821.928260   -1.90574    0.10279    0.00209    0
    2      0.000D+00      0.292D-02      -323.59762550    818.908753   -1.37143    0.04982   -0.00070    1
    3      0.782D-02      0.180D-02      -323.61440062    820.052037   -1.73386    0.07900    0.00058    2
    4      0.261D-02      0.575D-03      -323.61673514    820.256220   -1.64321    0.07182    0.00027    3
    5      0.963D-03      0.133D-03      -323.61686443    819.996235   -1.66712    0.07252    0.00024    4
    6      0.223D-03      0.229D-04      -323.61687058    820.023098   -1.66850    0.07248    0.00023    5
    7      0.845D-04      0.437D-05      -323.61687079    820.018214   -1.66885    0.07241    0.00022    6
    8      0.108D-04      0.124D-05      -323.61687080    820.019213   -1.66917    0.07247    0.00023    7
    9      0.346D-05      0.270D-06      -323.61687080    820.019245   -1.66913    0.07242    0.00022    6
   10      0.818D-06      0.720D-07      -323.61687080    820.019224   -1.66914    0.07245    0.00023    6
   11      0.187D-06      0.365D-07      -323.61687080    820.019239   -1.66914    0.07244    0.00022    7
   12      0.844D-07      0.711D-08      -323.61687080    820.019234   -1.66913    0.07244    0.00022    7
   13      0.239D-07      0.265D-08      -323.61687080    820.019237   -1.66913    0.07244    0.00022    7
   14      0.658D-08      0.809D-09      -323.61687080    820.019235   -1.66913    0.07244    0.00022    7
   15      0.223D-08      0.341D-09      -323.61687080    820.019236   -1.66913    0.07244    0.00022    8
   16      0.907D-09      0.149D-09      -323.61687080    820.019236   -1.66913    0.07244    0.00022    8
   17      0.428D-09      0.851D-10      -323.61687080    820.019236   -1.66913    0.07244    0.00022    8
   18      0.283D-09      0.384D-10      -323.61687080    820.019236   -1.66913    0.07244    0.00022    9
   19      0.252D-09      0.102D-10      -323.61687080    820.019236   -1.66913    0.07244    0.00022    8
   20      0.184D-09      0.316D-11      -323.61687080    820.019236   -1.66913    0.07244    0.00022    9
   21      0.114D-09      0.153D-11      -323.61687080    820.019236   -1.66913    0.07244    0.00022    9
   22      0.113D-09      0.896D-12      -323.61687080    820.019236   -1.66913    0.07244    0.00022    9
   23      0.148D-09      0.570D-12      -323.61687080    820.019236   -1.66913    0.07244    0.00022    9
   24      0.555D-10      0.649D-12      -323.61687080    820.019236   -1.66913    0.07244    0.00022    9
   25      0.480D-10      0.520D-12      -323.61687080    820.019236   -1.66913    0.07244    0.00022    9
   26      0.305D-10      0.556D-12      -323.61687080    820.019236   -1.66913    0.07244    0.00022    9
   27      0.321D-10      0.532D-12      -323.61687080    820.019236   -1.66913    0.07244    0.00022    9
   28      0.185D-10      0.495D-12      -323.61687080    820.019236   -1.66913    0.07244    0.00022    9
   29      0.150D-10      0.458D-12      -323.61687080    820.019236   -1.66913    0.07244    0.00022    9
   30      0.207D-10      0.444D-12      -323.61687080    820.019236   -1.66913    0.07244    0.00022    9
   31      0.119D-10      0.427D-12      -323.61687080    820.019236   -1.66913    0.07244    0.00022    9
   32      0.174D-10      0.435D-12      -323.61687080    820.019236   -1.66913    0.07244    0.00022    9
   33      0.185D-10      0.418D-12      -323.61687080    820.019236   -1.66913    0.07244    0.00022    9
   34      0.187D-10      0.529D-12      -323.61687080    820.019236   -1.66913    0.07244    0.00022    9
   35      0.171D-10      0.564D-12      -323.61687080    820.019236   -1.66913    0.07244    0.00022    9
   36      0.543D-11      0.462D-12      -323.61687080    820.019236   -1.66913    0.07244    0.00022    9
   37      0.889D-11      0.456D-12      -323.61687080    820.019236   -1.66913    0.07244    0.00022    9
   38      0.869D-11      0.439D-12      -323.61687080    820.019236   -1.66913    0.07244    0.00022    9
   39      0.137D-10      0.484D-12      -323.61687080    820.019236   -1.66913    0.07244    0.00022    9
   40      0.205D-10      0.491D-12      -323.61687080    820.019236   -1.66913    0.07244    0.00022    9
   41      0.201D-10      0.465D-12      -323.61687080    820.019236   -1.66913    0.07244    0.00022    9
   42      0.319D-10      0.544D-12      -323.61687080    820.019236   -1.66913    0.07244    0.00022    9
   43      0.209D-10      0.494D-12      -323.61687080    820.019236   -1.66913    0.07244    0.00022    9
   44      0.168D-10      0.441D-12      -323.61687080    820.019236   -1.66913    0.07244    0.00022    9
   45      0.184D-10      0.433D-12      -323.61687080    820.019236   -1.66913    0.07244    0.00022    9
   46      0.119D-10      0.399D-12      -323.61687080    820.019236   -1.66913    0.07244    0.00022    9
   47      0.144D-10      0.366D-12      -323.61687080    820.019236   -1.66913    0.07244    0.00022    9
   48      0.129D-10      0.430D-12      -323.61687080    820.019236   -1.66913    0.07244    0.00022    9
   49      0.158D-10      0.372D-12      -323.61687080    820.019236   -1.66913    0.07244    0.00022    9
   50      0.154D-10      0.609D-12      -323.61687080    820.019236   -1.66913    0.07244    0.00022    9
   51      0.177D-10      0.478D-12      -323.61687080    820.019236   -1.66913    0.07244    0.00022    9
   52      0.136D-10      0.453D-12      -323.61687080    820.019236   -1.66913    0.07244    0.00022    9
   53      0.133D-10      0.495D-12      -323.61687080    820.019236   -1.66913    0.07244    0.00022    9
   54      0.990D-11      0.422D-12      -323.61687080    820.019236   -1.66913    0.07244    0.00022    9
   55      0.130D-10      0.398D-12      -323.61687080    820.019236   -1.66913    0.07244    0.00022    9
   56      0.911D-11      0.439D-12      -323.61687080    820.019236   -1.66913    0.07244    0.00022    9
   57      0.226D-10      0.422D-12      -323.61687080    820.019236   -1.66913    0.07244    0.00022    9
   58      0.134D-10      0.424D-12      -323.61687080    820.019236   -1.66913    0.07244    0.00022    9
   59      0.197D-10      0.411D-12      -323.61687080    820.019236   -1.66913    0.07244    0.00022    9
   60      0.175D-10      0.440D-12      -323.61687080    820.019236   -1.66913    0.07244    0.00022    9
   61      0.109D-10      0.484D-12      -323.61687080    820.019236   -1.66913    0.07244    0.00022    9
   62      0.196D-10      0.467D-12      -323.61687080    820.019236   -1.66913    0.07244    0.00022    9
   63      0.658D-11      0.442D-12      -323.61687080    820.019236   -1.66913    0.07244    0.00022    9
   64      0.117D-10      0.406D-12      -323.61687080    820.019236   -1.66913    0.07244    0.00022    9
   65      0.133D-10      0.477D-12      -323.61687080    820.019236   -1.66913    0.07244    0.00022    9
   66      0.117D-10      0.397D-12      -323.61687080    820.019236   -1.66913    0.07244    0.00022    9
   67      0.118D-10      0.478D-12      -323.61687080    820.019236   -1.66913    0.07244    0.00022    9
   68      0.175D-10      0.373D-12      -323.61687080    820.019236   -1.66913    0.07244    0.00022    9
   69      0.234D-10      0.465D-12      -323.61687080    820.019236   -1.66913    0.07244    0.00022    9
   70      0.175D-10      0.527D-12      -323.61687080    820.019236   -1.66913    0.07244    0.00022    9
   71      0.189D-10      0.432D-12      -323.61687080    820.019236   -1.66913    0.07244    0.00022    9
   72      0.116D-10      0.521D-12      -323.61687080    820.019236   -1.66913    0.07244    0.00022    9
   73      0.176D-10      0.421D-12      -323.61687080    820.019236   -1.66913    0.07244    0.00022    0

 Final occupancy:  28

 !RHF STATE 1.1 Energy               -323.616870802806
 Nuclear energy                       303.29398585
 One-electron energy                -1036.92047441
 Two-electron energy                  410.00961776
 Virial quotient                       -1.00173491
 !RHF STATE 1.1 Dipole moment          -1.66913346     0.07244270     0.00022431
 Dipole moment /Debye                  -4.24223622     0.18411891     0.00057010

 Orbital energies:

         1.1          2.1          3.1          4.1          5.1          6.1          7.1          8.1          9.1         10.1
    -15.591542   -11.284166   -11.266306   -11.265752   -11.265745   -11.264575   -11.264560   -11.263974    -1.218251    -1.173972

        11.1         12.1         13.1         14.1         15.1         16.1         17.1         18.1         19.1         20.1
     -1.037839    -1.037837    -0.845767    -0.845766    -0.787902    -0.729403    -0.664922    -0.639242    -0.608613    -0.608609

        21.1         22.1         23.1         24.1         25.1         26.1         27.1         28.1         29.1         30.1
     -0.565071    -0.520419    -0.514902    -0.514871    -0.475591    -0.475583    -0.359732    -0.359706     0.055858     0.060065


 **********************************************************************************************************************************
 DATASETS  * FILE   NREC   LENGTH (MB)   RECORD NAMES
              1      19     2150.89       500      610      700      900      950      970     1000      129      960     1100   
                                          VAR    BASINP    GEOM    SYMINP    ZMAT    AOBASIS   BASIS     P2S    ABASIS      S 
                                         1400     1410     1200     1210     1080     1600     1650     1300     1700   
                                           T        V       H0       H01     AOSYM     SMH    MOLCAS    ERIS     OPER   

              2       3        1.49       700     1000     2100   
                                         GEOM     BASIS     RHF  

 PROGRAMS   *        TOTAL       RHF       INT
 CPU TIMES  *       155.05    139.16     15.85
 REAL TIME  *       173.13 SEC
 DISK USED  *         7.98 GB      
 GA USED    *         0.01 MB       (max)       0.00 MB       (current)
 **********************************************************************************************************************************


1PROGRAM * CCSD (Closed-shell coupled cluster)     Authors: C. Hampel, H.-J. Werner, 1991, M. Deegan, P.J. Knowles, 1992


 Convergence thresholds:  THRVAR = 1.00D-08  THRDEN = 1.00D-12

 CCSD(T)     terms to be evaluated (factor= 1.000)


 Number of core orbitals:           8 (   8 )
 Number of closed-shell orbitals:  20 (  20 )
 Number of external orbitals:     191 ( 191 )

 Molecular orbitals read from record     2100.2  Type=RHF/CANONICAL (state 1.1)

 Number of N-1 electron functions:              20
 Number of N-2 electron functions:             210
 Number of singly external CSFs:              3820
 Number of doubly external CSFs:           7298110
 Total number of CSFs:                     7301931

 Length of J-op  integral file:               0.00 MB
 Length of K-op  integral file:               3.32 MB
 Length of 3-ext integral record:             0.00 MB

 Memory could be reduced to 174.82 Mwords without degradation in triples

 Integral transformation finished. Total CPU:  14.17 sec, npass=  1  Memory used: 128.13 MW

 Reference energy:                   -323.61687080

 MP2 singlet pair energy:              -0.67340174
 MP2 triplet pair energy:              -0.43521327
 MP2 correlation energy:               -1.10861501
 MP2 total energy:                   -324.72548581

 SCS-MP2 correlation energy:           -1.07888145   (PS=  1.200000  PT=  0.333333)
 SCS-MP2 total energy:               -324.69575226

 ITER.      SQ.NORM     CORR.ENERGY   TOTAL ENERGY   ENERGY CHANGE        DEN1      VAR(S)    VAR(P)  DIIS     TIME
   1      1.42883715    -1.14470798  -324.76157879    -0.03609298    -0.00288881  0.51D-02  0.99D-02  1  1    60.58
   2      1.46318143    -1.15058675  -324.76745755    -0.00587876    -0.03104219  0.83D-04  0.13D-02  2  2   107.25
   3      1.47648905    -1.15103590  -324.76790670    -0.00044915    -0.00656584  0.41D-04  0.12D-03  3  3   153.93
   4      1.48218514    -1.15128571  -324.76815651    -0.00024981    -0.00178687  0.23D-05  0.15D-04  4  4   200.64
   5      1.48371661    -1.15132163  -324.76819243    -0.00003592    -0.00036637  0.26D-06  0.14D-05  5  5   247.38
   6      1.48402373    -1.15131307  -324.76818387     0.00000856    -0.00005052  0.24D-07  0.91D-07  6  6   294.12
   7      1.48405854    -1.15131647  -324.76818727    -0.00000341    -0.00000227  0.34D-08  0.80D-08  6  2   340.89
   8      1.48406323    -1.15131683  -324.76818763    -0.00000035    -0.00000043  0.41D-09  0.83D-09  6  1   387.64
   9      1.48406345    -1.15131699  -324.76818780    -0.00000017     0.00000079  0.63D-10  0.78D-10  6  3   434.38
  10      1.48406382    -1.15131705  -324.76818786    -0.00000006     0.00000002  0.10D-10  0.99D-11  6  4   481.13
  11      1.48406354    -1.15131709  -324.76818789    -0.00000004     0.00000022  0.17D-11  0.14D-11  6  5   527.88
  12      1.48406338    -1.15131710  -324.76818790    -0.00000001     0.00000008  0.25D-12  0.27D-12  6  6   574.63
  13      1.48406325    -1.15131711  -324.76818791    -0.00000000     0.00000005  0.14D-13  0.52D-13  6  2   621.39
  14      1.48406318    -1.15131711  -324.76818791    -0.00000000     0.00000002  0.23D-14  0.93D-14  6  1   668.13
  15      1.48406316    -1.15131711  -324.76818791     0.00000000     0.00000001  0.47D-15  0.13D-14  6  3   714.88
  16      1.48406315    -1.15131711  -324.76818791    -0.00000000     0.00000000  0.10D-15  0.19D-15  6  4   761.61
  17      1.48406314    -1.15131711  -324.76818791    -0.00000000     0.00000000  0.19D-16  0.28D-16  6  5   808.33
  18      1.48406314    -1.15131711  -324.76818791    -0.00000000     0.00000000  0.37D-17  0.36D-17  6  6   855.06
  19      1.48406314    -1.15131711  -324.76818791    -0.00000000     0.00000000  0.84D-18  0.61D-18  6  2   901.78
  20      1.48406314    -1.15131711  -324.76818791    -0.00000000     0.00000000  0.18D-18  0.13D-18  6  1   948.58
  21      1.48406314    -1.15131711  -324.76818791    -0.00000000     0.00000000  0.63D-19  0.38D-19  6  3   995.32
  22      1.48406314    -1.15131711  -324.76818791     0.00000000     0.00000000  0.30D-19  0.17D-19  6  4  1042.06

 Norm of t1 vector:      0.09778285      S-energy:     0.00000000      T1 diagnostic:  0.01093246
                                                                       D1 diagnostic:  0.02771591

 Doubles amplitudes (print threshold =  0.500E-01):

         I         J         SYM. A    SYM. B    A         B      T(IJ, AB)

        19        19         1         1         8         8     -0.06181361
        20        20         1         1         7         7     -0.06189260


 Total CPU time for triples:   1002.67 sec


 RESULTS
 =======

  Reference energy                   -323.616870802808
  CCSD singlet pair energy             -0.770111822217
  CCSD triplet pair energy             -0.381205283870
  CCSD correlation energy              -1.151317106087

  Triples (T) contribution             -0.054027572492
  Total correlation energy             -1.205344678578

  CCSD total energy                  -324.768187908894
  CCSD[T] energy                     -324.823548800623
  CCSD-T energy                      -324.821609839901
 !CCSD(T) total energy               -324.822215481386

 Timing summary (sec):

 STEP                 CPU(USER)    SYS     CPU(TOT)    WALL
 Transformation         14.63      0.97     15.60     15.61
 CCSD iterations      1027.44     14.15   1041.59   1041.80
 Triples              1002.67     13.07   1015.74   1015.89

 Program statistics:

 Available memory in ccsd:               999998300
 Min. memory needed in ccsd:              17709720
 Max. memory used in ccsd:                24415330
 Max. memory used in cckext:              20754978 (22 integral passes)



 **********************************************************************************************************************************
 DATASETS  * FILE   NREC   LENGTH (MB)   RECORD NAMES
              1      20     2833.05       500      610      700      900      950      970     1000      129      960     1100   
                                          VAR    BASINP    GEOM    SYMINP    ZMAT    AOBASIS   BASIS     P2S    ABASIS      S 
                                         1400     1410     1200     1210     1080     1600     1650     1300     1700     1380   
                                           T        V       H0       H01     AOSYM     SMH    MOLCAS    ERIS     OPER     JKOP   

              2       3        1.49       700     1000     2100   
                                         GEOM     BASIS     RHF  

 PROGRAMS   *        TOTAL   CCSD(T)       RHF       INT
 CPU TIMES  *      2199.80   2044.75    139.16     15.85
 REAL TIME  *      2246.55 SEC
 DISK USED  *         7.98 GB      
 GA USED    *         0.01 MB       (max)       0.00 MB       (current)
 **********************************************************************************************************************************

        CCSD(T)         RHF-SCF 
   -324.82221548   -323.61687080
 **********************************************************************************************************************************
 Variable memory released
