
 Primary working directories    : /tmp/942028.41.gen4.q
 Secondary working directories  : /tmp/942028.41.gen4.q
 Wavefunction directory         : /home/vulcan/mel64643/wfu/
 Main file repository           : /tmp/942028.41.gen4.q/

 ARCHNAME  : Linux/x86_64
 FC        : /opt/intel/compilers_and_libraries_2016.1.150/linux/bin/intel64/ifort
 FCVERSION : 16.0.1
 BLASLIB   : -mkl
 id        : ccgc

 Nodes     nprocs
 n040         1
 ga_uses_ma=false, calling ma_init with nominal heap.
 GA-space will be limited to   8.0 MW (determined by -G option)

 Using customized tuning parameters: mindgm=10; mindgv=16; mindgc=4; mindgr=1; noblas=0; mincuda=1000; minvec=7
 default implementation of scratch files=df  

 ***,Optimization of h2o_2
 memory,1000,m
 gthresh,energy=1.0d-12,orbital=1.0d-10,oneint=1.0d-16,twoint=1.0d-16,optgrad=1.0d-6,compress=1.0d-13
 geomtyp=xyz
 
 bohr
 geometry = {
  O   -2.8137107268   -0.2055119484    0.0000000000
  H   -3.5610798314    1.4413874035   -0.0000000000
  H   -1.0051121417    0.1093950152    0.0000000000
  O    2.6843072873    0.2019663318    0.0000000000
  H    3.3302917103   -0.7036415241   -1.4388270840
  H    3.3302917103   -0.7036415241    1.4388270840
 }
 
 basis=aug-cc-pvdz
 {rhf;maxit,200}
 {ccsd(t);maxit,200}

 Variables initialized (661), CPU time= 0.00 sec
 Commands  initialized (458), CPU time= 0.00 sec, 486 directives.
 Default parameters read. Elapsed time= 0.06 sec

 Checking input...
 Passed
1


                                         ***  PROGRAM SYSTEM MOLPRO  ***
                         Copyright, University College Cardiff Consultants Limited, 2008

                                    Version 2010.1 linked May 16 2016 07:17:05


 **********************************************************************************************************************************
 LABEL *   Optimization of h2o_2                                                         
 Linux-4.4.3/n040(x86_64) 64 bit mpp version                                             DATE: 21-Oct-23          TIME: 20:34:04  
 **********************************************************************************************************************************

 SHA1:             9e8077add272b0f3cad6f7df79ec5211205f459d
 **********************************************************************************************************************************

 THRESHOLDS:

 ZERO    =  1.00D-12  ONEINT  =  1.00D-16  TWOINT  =  1.00D-16  PREFAC  =  1.00D-14  LOCALI  =  1.00D-09  EORDER  =  1.00D-04
 ENERGY  =  1.00D-12  ETEST   =  0.00D+00  EDENS   =  0.00D+00  THRDEDEF=  1.00D-06  GRADIENT=  1.00D-02  STEP    =  1.00D-03
 ORBITAL =  1.00D-10  CIVEC   =  1.00D-05  COEFF   =  1.00D-04  PRINTCI =  5.00D-02  PUNCHCI =  9.90D+01  OPTGRAD =  1.00D-06
 OPTENERG=  1.00D-06  OPTSTEP =  3.00D-04  THRGRAD =  1.00D-10  COMPRESS=  1.00D-13  VARMIN  =  1.00D-07  VARMAX  =  1.00D-03
 THRDOUB =  0.00D+00  THRDIV  =  1.00D-05  THRRED  =  1.00D-07  THRPSP  =  1.00D+00  THRDC   =  1.00D-10  THRCS   =  1.00D-10
 THRNRM  =  1.00D-08  THREQ   =  0.00D+00  THRDE   =  1.00D+00  THRREF  =  1.00D-05  SPARFAC =  1.00D+00  THRDLP  =  1.00D-07
 THRDIA  =  1.00D-10  THRDLS  =  1.00D-07  THRGPS  =  0.00D+00  THRKEX  =  0.00D+00  THRDIS  =  2.00D-01  THRVAR  =  1.00D-10
 THRLOC  =  1.00D-06  THRGAP  =  1.00D-06  THRLOCT = -1.00D+00  THRGAPT = -1.00D+00  THRORB  =  1.00D-06  THRMLTP =  0.00D+00
 THRCPQCI=  1.00D-10  KEXTA   =  0.00D+00  THRCOARS=  0.00D+00  SYMTOL  =  1.00D-06  GRADTOL =  1.00D-06  THROVL  =  1.00D-08
 THRORTH =  1.00D-08  GRID    =  1.00D-06  GRIDMAX =  1.00D-03  DTMAX   =  0.00D+00

 SETTING GEOMTYP        =    XYZ
 ZUNIT=BOHR
 

 Variable memory set to 1000000000 words,  buffer space   230000 words

 SETTING BASIS          =    AUG-CC-PVDZ


 Recomputing integrals since basis changed


 Using spherical harmonics

 Library entry O      S aug-cc-pVDZ          selected for orbital group  1
 Library entry O      P aug-cc-pVDZ          selected for orbital group  1
 Library entry O      D aug-cc-pVDZ          selected for orbital group  1
 Library entry H      S aug-cc-pVDZ          selected for orbital group  2
 Library entry H      P aug-cc-pVDZ          selected for orbital group  2

1PROGRAM * SEWARD (Integral evaluation for generally contracted gaussian basis sets)     Author: Roland Lindh, 1990

 Geometry written to block  1 of record 700


 Point group  Cs  



 ATOMIC COORDINATES

 NR  ATOM    CHARGE       X              Y              Z

   1  O       8.00   -2.813710727   -0.205511948    0.000000000
   2  H       1.00   -3.561079831    1.441387404    0.000000000
   3  H       1.00   -1.005112142    0.109395015    0.000000000
   4  O       8.00    2.684307287    0.201966332    0.000000000
   5  H       1.00    3.330291710   -0.703641524   -1.438827084
   6  H       1.00    3.330291710   -0.703641524    1.438827084

 Bond lengths in Bohr (Angstrom)

 1-2  1.808545840  1-3  1.835809151  4-5  1.818693168  4-6  1.818693168
     ( 0.957041240)     ( 0.971468363)     ( 0.962410975)     ( 0.962410975)

 Bond angles

  2-1-3  104.53160044   5-4-6  104.58292386

 NUCLEAR CHARGE:                   20
 NUMBER OF PRIMITIVE AOS:         118
 NUMBER OF SYMMETRY AOS:          114
 NUMBER OF CONTRACTIONS:           82   (  55A'  +  27A"  )
 NUMBER OF CORE ORBITALS:           2   (   2A'  +   0A"  )
 NUMBER OF VALENCE ORBITALS:       12   (   9A'  +   3A"  )


 NUCLEAR REPULSION ENERGY   36.53654397


 Eigenvalues of metric

         1 0.166E-02 0.207E-02 0.262E-02 0.616E-02 0.883E-02 0.116E-01 0.153E-01 0.228E-01
         2 0.293E-02 0.163E-01 0.197E-01 0.629E-01 0.736E-01 0.119E+00 0.138E+00 0.160E+00


 Contracted 2-electron integrals neglected if value below      1.0D-16
 AO integral compression algorithm  1   Integral accuracy      1.0D-16

     30.409 MB (compressed) written to integral file ( 97.4%)

     Node minimum: 30.409 MB, node maximum: 30.409 MB


 NUMBER OF SORTED TWO-ELECTRON INTEGRALS:    3004561.     BUFFER LENGTH:  32768
 NUMBER OF SEGMENTS:   1  SEGMENT LENGTH:    3004561      RECORD LENGTH: 524288

 Memory used in sort:       3.56 MW

 SORT1 READ     3917200. AND WROTE     2966142. INTEGRALS IN      9 RECORDS. CPU TIME:     0.04 SEC, REAL TIME:     0.06 SEC
 SORT2 READ     2966142. AND WROTE     3004561. INTEGRALS IN    116 RECORDS. CPU TIME:     0.06 SEC, REAL TIME:     0.07 SEC

 FILE SIZES:   FILE 1:    26.3 MBYTE,  FILE 4:    37.8 MBYTE,   TOTAL:     64.1 MBYTE

 OPERATOR DM      FOR CENTER  0  COORDINATES:    0.000000    0.000000    0.000000


 **********************************************************************************************************************************
 DATASETS  * FILE   NREC   LENGTH (MB)   RECORD NAMES
              1      19       26.33       500      610      700      900      950      970     1000      129      960     1100   
                                          VAR    BASINP    GEOM    SYMINP    ZMAT    AOBASIS   BASIS     P2S    ABASIS      S 
                                         1400     1410     1200     1210     1080     1600     1650     1300     1700   
                                           T        V       H0       H01     AOSYM     SMH    MOLCAS    ERIS     OPER   

 PROGRAMS   *        TOTAL       INT
 CPU TIMES  *         0.54      0.48
 REAL TIME  *         0.75 SEC
 DISK USED  *        95.12 MB      
 GA USED    *         0.00 MB       (max)       0.00 MB       (current)
 **********************************************************************************************************************************

1PROGRAM * RHF-SCF (CLOSED SHELL)       Authors: W. Meyer, H.-J. Werner


 NUMBER OF ELECTRONS:      10+   10-
 CONVERGENCE THRESHOLDS:    1.00E-10 (Density)    1.00E-13 (Energy)
 MAX. NUMBER OF ITERATIONS:      200
 INTERPOLATION TYPE:            DIIS
 INTERPOLATION STEPS:              2 (START)      1 (STEP)
 LEVEL SHIFTS:                  0.00 (CLOSED)  0.00 (OPEN) 



 Orbital guess generated from atomic densities. Full valence occupancy:   11   3

 Molecular orbital dump at record        2100.2

 Initial alpha occupancy:   8   2
 Initial beta  occupancy:   8   2
 Wave function symmetry:    1

 ITERATION    DDIFF          GRAD             ENERGY        2-EL.EN.            DIPOLE MOMENTS         DIIS
    1      0.000D+00      0.000D+00      -152.02125605    191.236146    1.36753    0.08290    0.00000    0
    2      0.000D+00      0.127D-01      -152.07068758    184.741544    1.00742    0.01681    0.00000    1
    3      0.239D-01      0.723D-02      -152.08773762    187.536262    1.07015    0.04610    0.00000    2
    4      0.807D-02      0.797D-03      -152.08811953    187.320865    1.05544    0.04398    0.00000    3
    5      0.137D-02      0.190D-03      -152.08814871    187.341717    1.05136    0.04552    0.00000    4
    6      0.363D-03      0.416D-04      -152.08815032    187.344288    1.05058    0.04489    0.00000    5
    7      0.834D-04      0.195D-04      -152.08815053    187.343294    1.05035    0.04530    0.00000    6
    8      0.274D-04      0.389D-05      -152.08815055    187.343248    1.05024    0.04526    0.00000    7
    9      0.965D-05      0.599D-06      -152.08815055    187.343257    1.05022    0.04527    0.00000    6
   10      0.131D-05      0.118D-06      -152.08815055    187.343253    1.05022    0.04527    0.00000    6
   11      0.267D-06      0.289D-07      -152.08815055    187.343258    1.05022    0.04527    0.00000    6
   12      0.587D-07      0.899D-08      -152.08815055    187.343255    1.05022    0.04527    0.00000    6
   13      0.219D-07      0.325D-08      -152.08815055    187.343257    1.05022    0.04527    0.00000    6
   14      0.621D-08      0.898D-09      -152.08815055    187.343256    1.05022    0.04527    0.00000    7
   15      0.198D-08      0.255D-09      -152.08815055    187.343256    1.05022    0.04527    0.00000    7
   16      0.430D-09      0.119D-09      -152.08815055    187.343256    1.05022    0.04527    0.00000    7
   17      0.210D-09      0.322D-10      -152.08815055    187.343256    1.05022    0.04527    0.00000    7
   18      0.745D-10      0.790D-11      -152.08815055    187.343256    1.05022    0.04527    0.00000    0

 Final occupancy:   8   2

 !RHF STATE 1.1 Energy               -152.088150546634
 Nuclear energy                        36.53654397
 One-electron energy                 -282.29632267
 Two-electron energy                   93.67162816
 Virial quotient                       -1.00166342
 !RHF STATE 1.1 Dipole moment           1.05021528     0.04526706     0.00000000
 Dipole moment /Debye                   2.66920615     0.11504985     0.00000000

 Orbital energies:

         1.1          2.1          3.1          4.1          5.1          6.1          7.1          8.1          9.1         10.1
    -20.603139   -20.546538    -1.381556    -1.324270    -0.694530    -0.614464    -0.559700    -0.529999     0.028341     0.055955

         1.2          2.2          3.2          4.2
     -0.741873    -0.480466     0.055289     0.211172


 **********************************************************************************************************************************
 DATASETS  * FILE   NREC   LENGTH (MB)   RECORD NAMES
              1      19       26.33       500      610      700      900      950      970     1000      129      960     1100   
                                          VAR    BASINP    GEOM    SYMINP    ZMAT    AOBASIS   BASIS     P2S    ABASIS      S 
                                         1400     1410     1200     1210     1080     1600     1650     1300     1700   
                                           T        V       H0       H01     AOSYM     SMH    MOLCAS    ERIS     OPER   

              2       3        0.42       700     1000     2100   
                                         GEOM     BASIS     RHF  

 PROGRAMS   *        TOTAL       RHF       INT
 CPU TIMES  *         0.86      0.32      0.48
 REAL TIME  *         1.14 SEC
 DISK USED  *        95.12 MB      
 GA USED    *         0.00 MB       (max)       0.00 MB       (current)
 **********************************************************************************************************************************


1PROGRAM * CCSD (Closed-shell coupled cluster)     Authors: C. Hampel, H.-J. Werner, 1991, M. Deegan, P.J. Knowles, 1992


 Convergence thresholds:  THRVAR = 1.00D-08  THRDEN = 1.00D-12

 CCSD(T)     terms to be evaluated (factor= 1.000)


 Number of core orbitals:           2 (   2   0 )
 Number of closed-shell orbitals:   8 (   6   2 )
 Number of external orbitals:      72 (  47  25 )

 Molecular orbitals read from record     2100.2  Type=RHF/CANONICAL (state 1.1)

 Number of N-1 electron functions:               8
 Number of N-2 electron functions:              36
 Number of singly external CSFs:               332
 Number of doubly external CSFs:             85168
 Total number of CSFs:                       85501

 Length of J-op  integral file:               0.00 MB
 Length of K-op  integral file:               0.29 MB
 Length of 3-ext integral record:             0.00 MB

 Memory could be reduced to 2.51 Mwords without degradation in triples

 Integral transformation finished. Total CPU:   0.07 sec, npass=  1  Memory used:   0.88 MW

 Reference energy:                   -152.08815055

 MP2 singlet pair energy:              -0.27225683
 MP2 triplet pair energy:              -0.16970237
 MP2 correlation energy:               -0.44195920
 MP2 total energy:                   -152.53010974

 SCS-MP2 correlation energy:           -0.43230078   (PS=  1.200000  PT=  0.333333)
 SCS-MP2 total energy:               -152.52045132

 ITER.      SQ.NORM     CORR.ENERGY   TOTAL ENERGY   ENERGY CHANGE        DEN1      VAR(S)    VAR(P)  DIIS     TIME
   1      1.12160698    -0.45558910  -152.54373965    -0.01362990    -0.00397784  0.25D-02  0.17D-02  1  1     0.19
   2      1.12998103    -0.45685730  -152.54500785    -0.00126820    -0.00891714  0.17D-04  0.28D-03  2  2     0.31
   3      1.13295446    -0.45711380  -152.54526435    -0.00025650    -0.00167769  0.35D-04  0.10D-04  3  3     0.43
   4      1.13388850    -0.45704901  -152.54519956     0.00006479    -0.00040735  0.17D-05  0.10D-05  4  4     0.55
   5      1.13414512    -0.45703428  -152.54518482     0.00001473    -0.00008260  0.22D-06  0.69D-07  5  5     0.67
   6      1.13419597    -0.45703116  -152.54518171     0.00000312    -0.00000666  0.23D-07  0.67D-08  6  6     0.79
   7      1.13420857    -0.45702962  -152.54518017     0.00000154    -0.00000123  0.20D-08  0.12D-08  6  2     0.91
   8      1.13421172    -0.45702957  -152.54518011     0.00000005    -0.00000008  0.24D-09  0.13D-09  6  1     1.03
   9      1.13421232    -0.45702954  -152.54518009     0.00000002     0.00000027  0.27D-10  0.15D-10  6  4     1.15
  10      1.13421272    -0.45702950  -152.54518005     0.00000004    -0.00000007  0.53D-11  0.14D-11  6  3     1.27
  11      1.13421269    -0.45702951  -152.54518006    -0.00000001     0.00000004  0.11D-11  0.25D-12  6  5     1.39
  12      1.13421266    -0.45702952  -152.54518006    -0.00000000     0.00000001  0.22D-12  0.54D-13  6  6     1.50
  13      1.13421262    -0.45702952  -152.54518007    -0.00000000     0.00000001  0.29D-13  0.95D-14  6  1     1.62
  14      1.13421261    -0.45702952  -152.54518007    -0.00000000     0.00000000  0.44D-14  0.12D-14  6  2     1.74
  15      1.13421261    -0.45702952  -152.54518007     0.00000000    -0.00000000  0.62D-15  0.24D-15  6  3     1.86
  16      1.13421261    -0.45702952  -152.54518007     0.00000000    -0.00000000  0.66D-16  0.30D-16  6  4     1.98
  17      1.13421261    -0.45702952  -152.54518007     0.00000000    -0.00000000  0.75D-17  0.36D-17  6  5     2.10
  18      1.13421261    -0.45702952  -152.54518007     0.00000000    -0.00000000  0.12D-17  0.80D-18  6  4     2.21
  19      1.13421261    -0.45702952  -152.54518007     0.00000000    -0.00000000  0.96D-19  0.61D-19  6  1     2.33
  20      1.13421261    -0.45702952  -152.54518007    -0.00000000     0.00000000  0.21D-19  0.68D-20  6  6     2.44
  21      1.13421261    -0.45702952  -152.54518007    -0.00000000     0.00000000  0.43D-20  0.12D-20  6  2     2.56

 Norm of t1 vector:      0.07020362      S-energy:    -0.00000000      T1 diagnostic:  0.01241036
                                                                       D1 diagnostic:  0.02771169


 Total CPU time for triples:      1.02 sec


 RESULTS
 =======

  Reference energy                   -152.088150546634
  CCSD singlet pair energy             -0.306638774098
  CCSD triplet pair energy             -0.150390747540
  CCSD correlation energy              -0.457029521640

  Triples (T) contribution             -0.010951326107
  Total correlation energy             -0.467980847748

  CCSD total energy                  -152.545180068274
  CCSD[T] energy                     -152.556940449596
  CCSD-T energy                      -152.555793150871
 !CCSD(T) total energy               -152.556131394381

 Timing summary (sec):

 STEP                 CPU(USER)    SYS     CPU(TOT)    WALL
 Transformation          0.08      0.01      0.09      0.10
 CCSD iterations         2.48      0.15      2.63      2.67
 Triples                 1.02      0.02      1.04      1.04

 Program statistics:

 Available memory in ccsd:               999999644
 Min. memory needed in ccsd:                276138
 Max. memory used in ccsd:                  344222
 Max. memory used in cckext:                390441 (21 integral passes)



 **********************************************************************************************************************************
 DATASETS  * FILE   NREC   LENGTH (MB)   RECORD NAMES
              1      20       34.07       500      610      700      900      950      970     1000      129      960     1100   
                                          VAR    BASINP    GEOM    SYMINP    ZMAT    AOBASIS   BASIS     P2S    ABASIS      S 
                                         1400     1410     1200     1210     1080     1600     1650     1300     1700     1380   
                                           T        V       H0       H01     AOSYM     SMH    MOLCAS    ERIS     OPER     JKOP   

              2       3        0.42       700     1000     2100   
                                         GEOM     BASIS     RHF  

 PROGRAMS   *        TOTAL   CCSD(T)       RHF       INT
 CPU TIMES  *         4.46      3.60      0.32      0.48
 REAL TIME  *         4.99 SEC
 DISK USED  *        95.12 MB      
 GA USED    *         0.00 MB       (max)       0.00 MB       (current)
 **********************************************************************************************************************************

        CCSD(T)         RHF-SCF 
   -152.55613139   -152.08815055
 **********************************************************************************************************************************
 Variable memory released
