
 Primary working directories    : /tmp/916840.19.gen6.q
 Secondary working directories  : /tmp/916840.19.gen6.q
 Wavefunction directory         : /home/vulcan/lo21740/wfu/
 Main file repository           : /tmp/916840.19.gen6.q/

 ARCHNAME  : Linux/x86_64
 FC        : /opt/intel/compilers_and_libraries_2016.1.150/linux/bin/intel64/ifort
 FCVERSION : 16.0.1
 BLASLIB   : -mkl
 id        : ccgc

 Nodes     nprocs
 n083         1
 ga_uses_ma=false, calling ma_init with nominal heap.
 GA-space will be limited to   8.0 MW (determined by -G option)

 Using customized tuning parameters: mindgm=10; mindgv=16; mindgc=4; mindgr=1; noblas=0; mincuda=1000; minvec=7
 default implementation of scratch files=df  

 ***,Optimization of h2o_2
 memory,1000,m
 gthresh,energy=1.0d-12,orbital=1.0d-10,oneint=1.0d-16,twoint=1.0d-16,optgrad=1.0d-6,compress=1.0d-13
 geomtyp=xyz
 
 bohr
 geometry = {
  O   -2.8075026066   -0.2049758785   -0.0034966088
  H   -3.5543038557    1.4421795335   -0.0012612274
  H   -1.0127307346    0.1068817064   -0.0004164184
  O    2.6767168787    0.1981723692    0.0048272346
  H    3.3213837307   -0.7010013274   -1.4386186996
  H    3.3414245954   -0.7013026492    1.4389657195
 }
 
 basis=aug-cc-pvdz, H=cc-pvdz
 {rhf;maxit,200}
 {ccsd(t);maxit,200}

 Variables initialized (661), CPU time= 0.00 sec
 Commands  initialized (458), CPU time= 0.00 sec, 486 directives.
 Default parameters read. Elapsed time= 0.04 sec

 Checking input...
 Passed
1


                                         ***  PROGRAM SYSTEM MOLPRO  ***
                         Copyright, University College Cardiff Consultants Limited, 2008

                                    Version 2010.1 linked May 16 2016 07:17:05


 **********************************************************************************************************************************
 LABEL *   Optimization of h2o_2                                                         
 Linux-4.4.3/n083(x86_64) 64 bit mpp version                                             DATE: 18-Jul-23          TIME: 11:09:26  
 **********************************************************************************************************************************

 SHA1:             9e8077add272b0f3cad6f7df79ec5211205f459d
 **********************************************************************************************************************************

 THRESHOLDS:

 ZERO    =  1.00D-12  ONEINT  =  1.00D-16  TWOINT  =  1.00D-16  PREFAC  =  1.00D-14  LOCALI  =  1.00D-09  EORDER  =  1.00D-04
 ENERGY  =  1.00D-12  ETEST   =  0.00D+00  EDENS   =  0.00D+00  THRDEDEF=  1.00D-06  GRADIENT=  1.00D-02  STEP    =  1.00D-03
 ORBITAL =  1.00D-10  CIVEC   =  1.00D-05  COEFF   =  1.00D-04  PRINTCI =  5.00D-02  PUNCHCI =  9.90D+01  OPTGRAD =  1.00D-06
 OPTENERG=  1.00D-06  OPTSTEP =  3.00D-04  THRGRAD =  1.00D-10  COMPRESS=  1.00D-13  VARMIN  =  1.00D-07  VARMAX  =  1.00D-03
 THRDOUB =  0.00D+00  THRDIV  =  1.00D-05  THRRED  =  1.00D-07  THRPSP  =  1.00D+00  THRDC   =  1.00D-10  THRCS   =  1.00D-10
 THRNRM  =  1.00D-08  THREQ   =  0.00D+00  THRDE   =  1.00D+00  THRREF  =  1.00D-05  SPARFAC =  1.00D+00  THRDLP  =  1.00D-07
 THRDIA  =  1.00D-10  THRDLS  =  1.00D-07  THRGPS  =  0.00D+00  THRKEX  =  0.00D+00  THRDIS  =  2.00D-01  THRVAR  =  1.00D-10
 THRLOC  =  1.00D-06  THRGAP  =  1.00D-06  THRLOCT = -1.00D+00  THRGAPT = -1.00D+00  THRORB  =  1.00D-06  THRMLTP =  0.00D+00
 THRCPQCI=  1.00D-10  KEXTA   =  0.00D+00  THRCOARS=  0.00D+00  SYMTOL  =  1.00D-06  GRADTOL =  1.00D-06  THROVL  =  1.00D-08
 THRORTH =  1.00D-08  GRID    =  1.00D-06  GRIDMAX =  1.00D-03  DTMAX   =  0.00D+00

 SETTING GEOMTYP        =    XYZ
 ZUNIT=BOHR
 

 Variable memory set to 1000000000 words,  buffer space   230000 words

 SETTING BASIS          =    AUG-CC-PVDZ,H=CC-PVDZ


 Recomputing integrals since basis changed


 Using spherical harmonics

 Library entry O      S aug-cc-pVDZ          selected for orbital group  1
 Library entry O      P aug-cc-pVDZ          selected for orbital group  1
 Library entry O      D aug-cc-pVDZ          selected for orbital group  1
 Library entry H      S cc-pVDZ              selected for orbital group  2
 Library entry H      P cc-pVDZ              selected for orbital group  2

1PROGRAM * SEWARD (Integral evaluation for generally contracted gaussian basis sets)     Author: Roland Lindh, 1990

 Geometry written to block  1 of record 700


 Point group  C1  



 ATOMIC COORDINATES

 NR  ATOM    CHARGE       X              Y              Z

   1  O       8.00   -2.807502607   -0.204975879   -0.003496609
   2  H       1.00   -3.554303856    1.442179534   -0.001261227
   3  H       1.00   -1.012730735    0.106881706   -0.000416418
   4  O       8.00    2.676716879    0.198172369    0.004827235
   5  H       1.00    3.321383731   -0.701001327   -1.438618700
   6  H       1.00    3.341424595   -0.701302649    1.438965720

 Bond lengths in Bohr (Angstrom)

 1-2  1.808545840  1-3  1.821667015  4-5  1.818693171  4-6  1.818693171
     ( 0.957041240)     ( 0.963984667)     ( 0.962410976)     ( 0.962410976)

 Bond angles

  2-1-3  104.53160046   5-4-6  104.58292637

 NUCLEAR CHARGE:                   20
 NUMBER OF PRIMITIVE AOS:         102
 NUMBER OF SYMMETRY AOS:           98
 NUMBER OF CONTRACTIONS:           66   (  66A   )
 NUMBER OF CORE ORBITALS:           2   (   2A   )
 NUMBER OF VALENCE ORBITALS:       12   (  12A   )


 NUCLEAR REPULSION ENERGY   36.60563900


 Eigenvalues of metric

         1 0.609E-02 0.778E-02 0.120E-01 0.129E-01 0.165E-01 0.165E-01 0.207E-01 0.284E-01


 Contracted 2-electron integrals neglected if value below      1.0D-16
 AO integral compression algorithm  1   Integral accuracy      1.0D-16

     22.544 MB (compressed) written to integral file ( 89.0%)

     Node minimum: 22.544 MB, node maximum: 22.544 MB


 NUMBER OF SORTED TWO-ELECTRON INTEGRALS:    2445366.     BUFFER LENGTH:  32768
 NUMBER OF SEGMENTS:   1  SEGMENT LENGTH:    2445366      RECORD LENGTH: 524288

 Memory used in sort:       3.00 MW

 SORT1 READ     3139200. AND WROTE     2377602. INTEGRALS IN      7 RECORDS. CPU TIME:     0.02 SEC, REAL TIME:     0.04 SEC
 SORT2 READ     2377602. AND WROTE     2445366. INTEGRALS IN     86 RECORDS. CPU TIME:     0.04 SEC, REAL TIME:     0.05 SEC

 FILE SIZES:   FILE 1:    20.5 MBYTE,  FILE 4:    29.4 MBYTE,   TOTAL:     49.9 MBYTE

 OPERATOR DM      FOR CENTER  0  COORDINATES:    0.000000    0.000000    0.000000


 **********************************************************************************************************************************
 DATASETS  * FILE   NREC   LENGTH (MB)   RECORD NAMES
              1      19       20.54       500      610      700      900      950      970     1000      129      960     1100   
                                          VAR    BASINP    GEOM    SYMINP    ZMAT    AOBASIS   BASIS     P2S    ABASIS      S 
                                         1400     1410     1200     1210     1080     1600     1650     1300     1700   
                                           T        V       H0       H01     AOSYM     SMH    MOLCAS    ERIS     OPER   

 PROGRAMS   *        TOTAL       INT
 CPU TIMES  *         0.27      0.24
 REAL TIME  *         0.50 SEC
 DISK USED  *        73.05 MB      
 GA USED    *         0.00 MB       (max)       0.00 MB       (current)
 **********************************************************************************************************************************

1PROGRAM * RHF-SCF (CLOSED SHELL)       Authors: W. Meyer, H.-J. Werner


 NUMBER OF ELECTRONS:      10+   10-    SPACE SYMMETRY=1    SPIN SYMMETRY: Singlet 
 CONVERGENCE THRESHOLDS:    1.00E-10 (Density)    1.00E-13 (Energy)
 MAX. NUMBER OF ITERATIONS:      200
 INTERPOLATION TYPE:            DIIS
 INTERPOLATION STEPS:              2 (START)      1 (STEP)
 LEVEL SHIFTS:                  0.00 (CLOSED)  0.00 (OPEN) 



 Orbital guess generated from atomic densities. Full valence occupancy:   14

 Molecular orbital dump at record        2100.2

 ITERATION    DDIFF          GRAD             ENERGY        2-EL.EN.            DIPOLE MOMENTS         DIIS
    1      0.000D+00      0.000D+00      -152.02089337    191.374523    1.36879    0.08987   -0.00175    0
    2      0.000D+00      0.119D-01      -152.07042585    184.909677    1.02390    0.03190   -0.00061    1
    3      0.225D-01      0.665D-02      -152.08717838    187.683591    1.08306    0.05643   -0.00083    2
    4      0.766D-02      0.747D-03      -152.08756782    187.461527    1.06947    0.05474   -0.00081    3
    5      0.127D-02      0.178D-03      -152.08759702    187.482838    1.06558    0.05572   -0.00078    4
    6      0.355D-03      0.358D-04      -152.08759848    187.485216    1.06478    0.05525   -0.00078    5
    7      0.863D-04      0.147D-04      -152.08759861    187.484391    1.06458    0.05555   -0.00078    6
    8      0.211D-04      0.361D-05      -152.08759863    187.484374    1.06447    0.05551   -0.00078    7
    9      0.922D-05      0.518D-06      -152.08759863    187.484380    1.06445    0.05551   -0.00078    6
   10      0.123D-05      0.980D-07      -152.08759863    187.484377    1.06445    0.05551   -0.00078    6
   11      0.234D-06      0.255D-07      -152.08759863    187.484380    1.06445    0.05551   -0.00078    6
   12      0.533D-07      0.737D-08      -152.08759863    187.484379    1.06445    0.05551   -0.00078    6
   13      0.184D-07      0.230D-08      -152.08759863    187.484380    1.06445    0.05551   -0.00078    6
   14      0.429D-08      0.779D-09      -152.08759863    187.484380    1.06445    0.05551   -0.00078    7
   15      0.147D-08      0.208D-09      -152.08759863    187.484380    1.06445    0.05551   -0.00078    7
   16      0.390D-09      0.105D-09      -152.08759863    187.484380    1.06445    0.05551   -0.00078    7
   17      0.159D-09      0.275D-10      -152.08759863    187.484380    1.06445    0.05551   -0.00078    8
   18      0.748D-10      0.297D-11      -152.08759863    187.484380    1.06445    0.05551   -0.00078    0

 Final occupancy:  10

 !RHF STATE 1.1 Energy               -152.087598628469
 Nuclear energy                        36.60563900
 One-electron energy                 -282.43542749
 Two-electron energy                   93.74218986
 Virial quotient                       -1.00157401
 !RHF STATE 1.1 Dipole moment           1.06444823     0.05551003    -0.00077718
 Dipole moment /Debye                   2.70538033     0.14108318    -0.00197527

 Orbital energies:

         1.1          2.1          3.1          4.1          5.1          6.1          7.1          8.1          9.1         10.1
    -20.602565   -20.545451    -1.381100    -1.325344    -0.741515    -0.695799    -0.614192    -0.559446    -0.529936    -0.480177

        11.1         12.1
      0.112459     0.152745


 **********************************************************************************************************************************
 DATASETS  * FILE   NREC   LENGTH (MB)   RECORD NAMES
              1      19       20.54       500      610      700      900      950      970     1000      129      960     1100   
                                          VAR    BASINP    GEOM    SYMINP    ZMAT    AOBASIS   BASIS     P2S    ABASIS      S 
                                         1400     1410     1200     1210     1080     1600     1650     1300     1700   
                                           T        V       H0       H01     AOSYM     SMH    MOLCAS    ERIS     OPER   

              2       3        0.44       700     1000     2100   
                                         GEOM     BASIS     RHF  

 PROGRAMS   *        TOTAL       RHF       INT
 CPU TIMES  *         0.54      0.27      0.24
 REAL TIME  *         0.82 SEC
 DISK USED  *        73.05 MB      
 GA USED    *         0.00 MB       (max)       0.00 MB       (current)
 **********************************************************************************************************************************


1PROGRAM * CCSD (Closed-shell coupled cluster)     Authors: C. Hampel, H.-J. Werner, 1991, M. Deegan, P.J. Knowles, 1992


 Convergence thresholds:  THRVAR = 1.00D-08  THRDEN = 1.00D-12

 CCSD(T)     terms to be evaluated (factor= 1.000)


 Number of core orbitals:           2 (   2 )
 Number of closed-shell orbitals:   8 (   8 )
 Number of external orbitals:      56 (  56 )

 Molecular orbitals read from record     2100.2  Type=RHF/CANONICAL (state 1.1)

 Number of N-1 electron functions:               8
 Number of N-2 electron functions:              36
 Number of singly external CSFs:               448
 Number of doubly external CSFs:            100576
 Total number of CSFs:                      101025

 Length of J-op  integral file:               0.00 MB
 Length of K-op  integral file:               0.33 MB
 Length of 3-ext integral record:             0.00 MB

 Memory could be reduced to 2.44 Mwords without degradation in triples

 Integral transformation finished. Total CPU:   0.05 sec, npass=  1  Memory used:   1.72 MW

 Reference energy:                   -152.08759863

 MP2 singlet pair energy:              -0.26997527
 MP2 triplet pair energy:              -0.16850443
 MP2 correlation energy:               -0.43847971
 MP2 total energy:                   -152.52607833

 SCS-MP2 correlation energy:           -0.42881753   (PS=  1.200000  PT=  0.333333)
 SCS-MP2 total energy:               -152.51641616

 ITER.      SQ.NORM     CORR.ENERGY   TOTAL ENERGY   ENERGY CHANGE        DEN1      VAR(S)    VAR(P)  DIIS     TIME
   1      1.12042364    -0.45218656  -152.53978519    -0.01370685    -0.00451025  0.23D-02  0.17D-02  1  1     0.16
   2      1.12846593    -0.45351587  -152.54111450    -0.00132931    -0.00866310  0.16D-04  0.26D-03  2  2     0.27
   3      1.13124569    -0.45376802  -152.54136665    -0.00025215    -0.00157863  0.34D-04  0.91D-05  3  3     0.38
   4      1.13212193    -0.45370915  -152.54130778     0.00005887    -0.00038159  0.14D-05  0.86D-06  4  4     0.50
   5      1.13235399    -0.45369743  -152.54129606     0.00001172    -0.00007166  0.19D-06  0.53D-07  5  5     0.61
   6      1.13240074    -0.45369383  -152.54129245     0.00000360    -0.00000651  0.18D-07  0.49D-08  6  6     0.72
   7      1.13241214    -0.45369244  -152.54129107     0.00000139    -0.00000108  0.13D-08  0.89D-09  6  2     0.83
   8      1.13241468    -0.45369243  -152.54129105     0.00000001    -0.00000005  0.15D-09  0.73D-10  6  1     0.94
   9      1.13241521    -0.45369238  -152.54129101     0.00000005     0.00000018  0.12D-10  0.87D-11  6  4     1.05
  10      1.13241548    -0.45369236  -152.54129099     0.00000002    -0.00000004  0.19D-11  0.68D-12  6  3     1.16
  11      1.13241544    -0.45369237  -152.54129100    -0.00000001     0.00000004  0.32D-12  0.96D-13  6  5     1.28
  12      1.13241541    -0.45369237  -152.54129100    -0.00000000     0.00000001  0.60D-13  0.14D-13  6  6     1.39
  13      1.13241539    -0.45369237  -152.54129100    -0.00000000     0.00000001  0.76D-14  0.26D-14  6  1     1.51
  14      1.13241538    -0.45369237  -152.54129100    -0.00000000     0.00000000  0.13D-14  0.34D-15  6  2     1.62
  15      1.13241538    -0.45369237  -152.54129100    -0.00000000     0.00000000  0.25D-15  0.55D-16  6  4     1.73
  16      1.13241538    -0.45369237  -152.54129100    -0.00000000    -0.00000000  0.33D-16  0.11D-16  6  3     1.84
  17      1.13241538    -0.45369237  -152.54129100     0.00000000    -0.00000000  0.28D-17  0.17D-17  6  6     1.96
  18      1.13241538    -0.45369237  -152.54129100    -0.00000000     0.00000000  0.29D-18  0.13D-18  6  5     2.07
  19      1.13241538    -0.45369237  -152.54129100     0.00000000    -0.00000000  0.69D-19  0.22D-19  6  2     2.18
  20      1.13241538    -0.45369237  -152.54129100     0.00000000    -0.00000000  0.11D-19  0.37D-20  6  1     2.29

 Norm of t1 vector:      0.06772562      S-energy:    -0.00000000      T1 diagnostic:  0.01197231
                                                                       D1 diagnostic:  0.02655939


 Total CPU time for triples:      0.73 sec


 RESULTS
 =======

  Reference energy                   -152.087598628469
  CCSD singlet pair energy             -0.304282267955
  CCSD triplet pair energy             -0.149410102962
  CCSD correlation energy              -0.453692370920

  Triples (T) contribution             -0.010242177695
  Total correlation energy             -0.463934548615

  CCSD total energy                  -152.541290999388
  CCSD[T] energy                     -152.552257309494
  CCSD-T energy                      -152.551248542050
 !CCSD(T) total energy               -152.551533177084

 Timing summary (sec):

 STEP                 CPU(USER)    SYS     CPU(TOT)    WALL
 Transformation          0.06      0.01      0.07      0.07
 CCSD iterations         2.23      0.10      2.33      2.37
 Triples                 0.73      0.01      0.74      0.74

 Program statistics:

 Available memory in ccsd:               999999644
 Min. memory needed in ccsd:                333849
 Max. memory used in ccsd:                  413833
 Max. memory used in cckext:                383006 (20 integral passes)



 **********************************************************************************************************************************
 DATASETS  * FILE   NREC   LENGTH (MB)   RECORD NAMES
              1      20       28.24       500      610      700      900      950      970     1000      129      960     1100   
                                          VAR    BASINP    GEOM    SYMINP    ZMAT    AOBASIS   BASIS     P2S    ABASIS      S 
                                         1400     1410     1200     1210     1080     1600     1650     1300     1700     1380   
                                           T        V       H0       H01     AOSYM     SMH    MOLCAS    ERIS     OPER     JKOP   

              2       3        0.44       700     1000     2100   
                                         GEOM     BASIS     RHF  

 PROGRAMS   *        TOTAL   CCSD(T)       RHF       INT
 CPU TIMES  *         3.58      3.04      0.27      0.24
 REAL TIME  *         4.03 SEC
 DISK USED  *        73.05 MB      
 GA USED    *         0.00 MB       (max)       0.00 MB       (current)
 **********************************************************************************************************************************

        CCSD(T)         RHF-SCF 
   -152.55153318   -152.08759863
 **********************************************************************************************************************************
 Variable memory released
