
 Primary working directories    : /tmp/1065196.48.gen4.q
 Secondary working directories  : /tmp/1065196.48.gen4.q
 Wavefunction directory         : /home/vulcan/jj04645/wfu/
 Main file repository           : /tmp/1065196.48.gen4.q/

 ARCHNAME  : Linux/x86_64
 FC        : /opt/intel/compilers_and_libraries_2016.1.150/linux/bin/intel64/ifort
 FCVERSION : 16.0.1
 BLASLIB   : -mkl
 id        : ccgc

 Nodes     nprocs
 n045         1
 ga_uses_ma=false, calling ma_init with nominal heap.
 GA-space will be limited to   8.0 MW (determined by -G option)

 Using customized tuning parameters: mindgm=10; mindgv=16; mindgc=4; mindgr=1; noblas=0; mincuda=1000; minvec=7
 default implementation of scratch files=df  

 ***,Optimization of t-butanol
 memory,1000,m
 gthresh,energy=1.0d-12,orbital=1.0d-10,oneint=1.0d-16,twoint=1.0d-16,optgrad=1.0d-6,compress=1.0d-13
 geomtyp=xyz
 
 bohr
 geometry = {
  C    0.0053142707   -0.0573590864    0.0001089304
  O   -0.0207166871    2.6654189007    0.0007382323
  C   -2.7677302566   -0.8309180189    0.0000853711
  C    1.3363242986   -1.0169269692   -2.3775427993
  C    1.3365897499   -1.0180233638    2.3771692386
  H    1.7121547057    3.2190711117    0.0007691550
  H   -2.9468613416   -2.8868966376    0.0044173371
  H   -3.7069888010   -0.0920257624   -1.6811166078
  H   -3.7090411124   -0.0847713889    1.6769298944
  H    1.3118287342   -3.0803373500   -2.4599589989
  H    3.3107270288   -0.4015005922   -2.3999794653
  H    0.4022302046   -0.2724493706   -4.0591323096
  H    1.3121033349   -3.0814715347    2.4586365557
  H    3.3109949888   -0.4026073488    2.3996692676
  H    0.4026834440   -0.2743213877    4.0592061987
 }
 
 basis=VDZ
 {rhf;maxit,200}
 {ccsd(t);maxit,200}

 Variables initialized (661), CPU time= 0.00 sec
 Commands  initialized (458), CPU time= 0.01 sec, 486 directives.
 Default parameters read. Elapsed time= 0.06 sec

 Checking input...
 Passed
1


                                         ***  PROGRAM SYSTEM MOLPRO  ***
                         Copyright, University College Cardiff Consultants Limited, 2008

                                    Version 2010.1 linked May 16 2016 07:17:05


 **********************************************************************************************************************************
 LABEL *   Optimization of t-butanol                                                     
 Linux-4.4.3/n045(x86_64) 64 bit mpp version                                             DATE: 20-May-24          TIME: 10:17:50  
 **********************************************************************************************************************************

 SHA1:             9e8077add272b0f3cad6f7df79ec5211205f459d
 **********************************************************************************************************************************

 THRESHOLDS:

 ZERO    =  1.00D-12  ONEINT  =  1.00D-16  TWOINT  =  1.00D-16  PREFAC  =  1.00D-14  LOCALI  =  1.00D-09  EORDER  =  1.00D-04
 ENERGY  =  1.00D-12  ETEST   =  0.00D+00  EDENS   =  0.00D+00  THRDEDEF=  1.00D-06  GRADIENT=  1.00D-02  STEP    =  1.00D-03
 ORBITAL =  1.00D-10  CIVEC   =  1.00D-05  COEFF   =  1.00D-04  PRINTCI =  5.00D-02  PUNCHCI =  9.90D+01  OPTGRAD =  1.00D-06
 OPTENERG=  1.00D-06  OPTSTEP =  3.00D-04  THRGRAD =  1.00D-10  COMPRESS=  1.00D-13  VARMIN  =  1.00D-07  VARMAX  =  1.00D-03
 THRDOUB =  0.00D+00  THRDIV  =  1.00D-05  THRRED  =  1.00D-07  THRPSP  =  1.00D+00  THRDC   =  1.00D-10  THRCS   =  1.00D-10
 THRNRM  =  1.00D-08  THREQ   =  0.00D+00  THRDE   =  1.00D+00  THRREF  =  1.00D-05  SPARFAC =  1.00D+00  THRDLP  =  1.00D-07
 THRDIA  =  1.00D-10  THRDLS  =  1.00D-07  THRGPS  =  0.00D+00  THRKEX  =  0.00D+00  THRDIS  =  2.00D-01  THRVAR  =  1.00D-10
 THRLOC  =  1.00D-06  THRGAP  =  1.00D-06  THRLOCT = -1.00D+00  THRGAPT = -1.00D+00  THRORB  =  1.00D-06  THRMLTP =  0.00D+00
 THRCPQCI=  1.00D-10  KEXTA   =  0.00D+00  THRCOARS=  0.00D+00  SYMTOL  =  1.00D-06  GRADTOL =  1.00D-06  THROVL  =  1.00D-08
 THRORTH =  1.00D-08  GRID    =  1.00D-06  GRIDMAX =  1.00D-03  DTMAX   =  0.00D+00

 SETTING GEOMTYP        =    XYZ
 ZUNIT=BOHR
 

 Variable memory set to 1000000000 words,  buffer space   230000 words

 SETTING BASIS          =    VDZ


 Recomputing integrals since basis changed


 Using spherical harmonics

 Library entry C      S cc-pVDZ              selected for orbital group  1
 Library entry C      P cc-pVDZ              selected for orbital group  1
 Library entry C      D cc-pVDZ              selected for orbital group  1
 Library entry O      S cc-pVDZ              selected for orbital group  2
 Library entry O      P cc-pVDZ              selected for orbital group  2
 Library entry O      D cc-pVDZ              selected for orbital group  2
 Library entry H      S cc-pVDZ              selected for orbital group  4
 Library entry H      P cc-pVDZ              selected for orbital group  4

1PROGRAM * SEWARD (Integral evaluation for generally contracted gaussian basis sets)     Author: Roland Lindh, 1990

 Geometry written to block  1 of record 700


 Point group  C1  



 ATOMIC COORDINATES

 NR  ATOM    CHARGE       X              Y              Z

   1  C       6.00    0.005314271   -0.057359086    0.000108930
   2  O       8.00   -0.020716687    2.665418901    0.000738232
   3  C       6.00   -2.767730257   -0.830918019    0.000085371
   4  C       6.00    1.336324299   -1.016926969   -2.377542799
   5  C       6.00    1.336589750   -1.018023364    2.377169239
   6  H       1.00    1.712154706    3.219071112    0.000769155
   7  H       1.00   -2.946861342   -2.886896638    0.004417337
   8  H       1.00   -3.706988801   -0.092025762   -1.681116608
   9  H       1.00   -3.709041112   -0.084771389    1.676929894
  10  H       1.00    1.311828734   -3.080337350   -2.459958999
  11  H       1.00    3.310727029   -0.401500592   -2.399979465
  12  H       1.00    0.402230205   -0.272449371   -4.059132310
  13  H       1.00    1.312103335   -3.081471535    2.458636556
  14  H       1.00    3.310994989   -0.402607349    2.399669268
  15  H       1.00    0.402683444   -0.274321388    4.059206199

 Bond lengths in Bohr (Angstrom)

 1-2  2.722902491  1-3  2.878918091  1-4  2.888872784  1-5  2.888872784  2-6  1.819168501
     ( 1.440897940)     ( 1.523457840)     ( 1.528725637)     ( 1.528725637)     ( 0.962662510)

  3- 7  2.063771982   3- 8  2.062670229   3- 9  2.062670230   4-10  2.065200925   4-11  2.068216423
       ( 1.092101097)       ( 1.091518075)       ( 1.091518075)       ( 1.092857262)       ( 1.094452994)

  4-12  2.062649256   5-13  2.065200925   5-14  2.068216422   5-15  2.062649256
       ( 1.091506976)       ( 1.092857262)       ( 1.094452994)       ( 1.091506976)

 Bond angles

  1-2-6  107.17091859   1-3-7  110.56617456   1-3-8  110.02120033   1-3-9  110.02120394

  1- 4-10  111.05427787   1- 4-11  110.48289357   1- 4-12  110.02622484   1- 5-13  111.05427787

  1- 5-14  110.48289357   1- 5-15  110.02622484   2- 1- 3  105.03903602   2- 1- 4  109.67835924

  2-1-5  109.67835923   3-1-4  110.76498583   3-1-5  110.76498583   4-1-5  110.75948302

  7- 3- 8  108.60578510   7- 3- 9  108.60578880   8- 3- 9  108.97853861  10- 4-11  107.95054620

 10- 4-12  108.82712326  11- 4-12  108.42572227  13- 5-14  107.95054620  13- 5-15  108.82712326

 14- 5-15  108.42572227

 NUCLEAR CHARGE:                   42
 NUMBER OF PRIMITIVE AOS:         205
 NUMBER OF SYMMETRY AOS:          200
 NUMBER OF CONTRACTIONS:          120   ( 120A   )
 NUMBER OF CORE ORBITALS:           5   (   5A   )
 NUMBER OF VALENCE ORBITALS:       30   (  30A   )


 NUCLEAR REPULSION ENERGY  199.50197355


 Eigenvalues of metric

         1 0.261E-02 0.489E-02 0.491E-02 0.838E-02 0.169E-01 0.191E-01 0.192E-01 0.239E-01


 Contracted 2-electron integrals neglected if value below      1.0D-16
 AO integral compression algorithm  1   Integral accuracy      1.0D-16

     220.987 MB (compressed) written to integral file ( 96.7%)

     Node minimum: 220.987 MB, node maximum: 220.987 MB


 NUMBER OF SORTED TWO-ELECTRON INTEGRALS:   26357430.     BUFFER LENGTH:  32768
 NUMBER OF SEGMENTS:   2  SEGMENT LENGTH:   15997996      RECORD LENGTH: 524288

 Memory used in sort:      16.56 MW

 SORT1 READ    28587749. AND WROTE    26317961. INTEGRALS IN     76 RECORDS. CPU TIME:     0.31 SEC, REAL TIME:     0.46 SEC
 SORT2 READ    26317961. AND WROTE    26357430. INTEGRALS IN    843 RECORDS. CPU TIME:     0.24 SEC, REAL TIME:     0.37 SEC

 FILE SIZES:   FILE 1:   206.4 MBYTE,  FILE 4:   318.8 MBYTE,   TOTAL:    525.2 MBYTE

 OPERATOR DM      FOR CENTER  0  COORDINATES:    0.000000    0.000000    0.000000


 **********************************************************************************************************************************
 DATASETS  * FILE   NREC   LENGTH (MB)   RECORD NAMES
              1      19      206.60       500      610      700      900      950      970     1000      129      960     1100   
                                          VAR    BASINP    GEOM    SYMINP    ZMAT    AOBASIS   BASIS     P2S    ABASIS      S 
                                         1400     1410     1200     1210     1080     1600     1650     1300     1700   
                                           T        V       H0       H01     AOSYM     SMH    MOLCAS    ERIS     OPER   

 PROGRAMS   *        TOTAL       INT
 CPU TIMES  *         3.49      3.44
 REAL TIME  *         4.06 SEC
 DISK USED  *       747.17 MB      
 GA USED    *         0.01 MB       (max)       0.00 MB       (current)
 **********************************************************************************************************************************

1PROGRAM * RHF-SCF (CLOSED SHELL)       Authors: W. Meyer, H.-J. Werner


 NUMBER OF ELECTRONS:      21+   21-    SPACE SYMMETRY=1    SPIN SYMMETRY: Singlet 
 CONVERGENCE THRESHOLDS:    1.00E-10 (Density)    1.00E-13 (Energy)
 MAX. NUMBER OF ITERATIONS:      200
 INTERPOLATION TYPE:            DIIS
 INTERPOLATION STEPS:              2 (START)      1 (STEP)
 LEVEL SHIFTS:                  0.00 (CLOSED)  0.00 (OPEN) 



 Orbital guess generated from atomic densities. Full valence occupancy:   35

 Molecular orbital dump at record        2100.2

 ITERATION    DDIFF          GRAD             ENERGY        2-EL.EN.            DIPOLE MOMENTS         DIIS
    1      0.000D+00      0.000D+00      -232.08650976    560.821744    0.88971   -0.64143   -0.00017    0
    2      0.000D+00      0.617D-02      -232.16281956    555.610104    0.40928   -0.33228   -0.00009    1
    3      0.122D-01      0.266D-02      -232.17358668    557.600226    0.53059   -0.44046   -0.00011    2
    4      0.390D-02      0.737D-03      -232.17489540    557.378944    0.50381   -0.40369   -0.00011    3
    5      0.141D-02      0.193D-03      -232.17497350    557.313282    0.50302   -0.41585   -0.00011    4
    6      0.309D-03      0.358D-04      -232.17497656    557.333715    0.50241   -0.41418   -0.00011    5
    7      0.900D-04      0.659D-05      -232.17497670    557.328047    0.50235   -0.41434   -0.00011    6
    8      0.185D-04      0.211D-05      -232.17497671    557.329624    0.50235   -0.41444   -0.00011    7
    9      0.398D-05      0.676D-06      -232.17497671    557.329282    0.50232   -0.41445   -0.00011    7
   10      0.154D-05      0.189D-06      -232.17497671    557.329335    0.50233   -0.41447   -0.00011    7
   11      0.498D-06      0.388D-07      -232.17497671    557.329324    0.50233   -0.41447   -0.00011    7
   12      0.122D-06      0.120D-07      -232.17497671    557.329332    0.50233   -0.41447   -0.00011    7
   13      0.241D-07      0.520D-08      -232.17497671    557.329330    0.50233   -0.41447   -0.00011    7
   14      0.102D-07      0.170D-08      -232.17497671    557.329330    0.50233   -0.41447   -0.00011    8
   15      0.303D-08      0.449D-09      -232.17497671    557.329330    0.50233   -0.41447   -0.00011    8
   16      0.108D-08      0.111D-09      -232.17497671    557.329330    0.50233   -0.41447   -0.00011    7
   17      0.258D-09      0.304D-10      -232.17497671    557.329330    0.50233   -0.41447   -0.00011    7
   18      0.799D-10      0.866D-11      -232.17497671    557.329330    0.50233   -0.41447   -0.00011    8
   19      0.175D-10      0.234D-11      -232.17497671    557.329330    0.50233   -0.41447   -0.00011    8
   20      0.650D-11      0.771D-12      -232.17497671    557.329330    0.50233   -0.41447   -0.00011    7
   21      0.188D-11      0.254D-12      -232.17497671    557.329330    0.50233   -0.41447   -0.00011    0

 Final occupancy:  21

 !RHF STATE 1.1 Energy               -232.174976713554
 Nuclear energy                       199.50197355
 One-electron energy                 -710.34161511
 Two-electron energy                  278.66466485
 Virial quotient                       -1.00093976
 !RHF STATE 1.1 Dipole moment           0.50232693    -0.41446986    -0.00010952
 Dipole moment /Debye                   1.27670409    -1.05340830    -0.00027836

 Orbital energies:

         1.1          2.1          3.1          4.1          5.1          6.1          7.1          8.1          9.1         10.1
    -20.544961   -11.282575   -11.220699   -11.220681   -11.214632    -1.350115    -1.064681    -0.940042    -0.938137    -0.766076

        11.1         12.1         13.1         14.1         15.1         16.1         17.1         18.1         19.1         20.1
     -0.664859    -0.620378    -0.617982    -0.573515    -0.554090    -0.527238    -0.514901    -0.504574    -0.500202    -0.458469

        21.1         22.1         23.1
     -0.427335     0.166821     0.220225


 **********************************************************************************************************************************
 DATASETS  * FILE   NREC   LENGTH (MB)   RECORD NAMES
              1      19      206.60       500      610      700      900      950      970     1000      129      960     1100   
                                          VAR    BASINP    GEOM    SYMINP    ZMAT    AOBASIS   BASIS     P2S    ABASIS      S 
                                         1400     1410     1200     1210     1080     1600     1650     1300     1700   
                                           T        V       H0       H01     AOSYM     SMH    MOLCAS    ERIS     OPER   

              2       3        0.80       700     1000     2100   
                                         GEOM     BASIS     RHF  

 PROGRAMS   *        TOTAL       RHF       INT
 CPU TIMES  *         7.82      4.33      3.44
 REAL TIME  *         8.95 SEC
 DISK USED  *       747.17 MB      
 GA USED    *         0.01 MB       (max)       0.00 MB       (current)
 **********************************************************************************************************************************


1PROGRAM * CCSD (Closed-shell coupled cluster)     Authors: C. Hampel, H.-J. Werner, 1991, M. Deegan, P.J. Knowles, 1992


 Convergence thresholds:  THRVAR = 1.00D-08  THRDEN = 1.00D-12

 CCSD(T)     terms to be evaluated (factor= 1.000)


 Number of core orbitals:           5 (   5 )
 Number of closed-shell orbitals:  16 (  16 )
 Number of external orbitals:      99 (  99 )

 Molecular orbitals read from record     2100.2  Type=RHF/CANONICAL (state 1.1)

 Number of N-1 electron functions:              16
 Number of N-2 electron functions:             136
 Number of singly external CSFs:              1584
 Number of doubly external CSFs:           1255320
 Total number of CSFs:                     1256905

 Length of J-op  integral file:               0.00 MB
 Length of K-op  integral file:               1.03 MB
 Length of 3-ext integral record:             0.00 MB

 Memory could be reduced to 21.47 Mwords without degradation in triples

 Integral transformation finished. Total CPU:   1.70 sec, npass=  1  Memory used:  18.35 MW

 Reference energy:                   -232.17497671

 MP2 singlet pair energy:              -0.49771378
 MP2 triplet pair energy:              -0.27475150
 MP2 correlation energy:               -0.77246528
 MP2 total energy:                   -232.94744200

 SCS-MP2 correlation energy:           -0.76821303   (PS=  1.200000  PT=  0.333333)
 SCS-MP2 total energy:               -232.94318974

 ITER.      SQ.NORM     CORR.ENERGY   TOTAL ENERGY   ENERGY CHANGE        DEN1      VAR(S)    VAR(P)  DIIS     TIME
   1      1.27378258    -0.82966117  -233.00463789    -0.05719589    -0.03602854  0.25D-02  0.44D-02  1  1     7.08
   2      1.29499829    -0.83398584  -233.00896256    -0.00432467    -0.02222457  0.67D-04  0.43D-03  2  2    12.52
   3      1.29954429    -0.83419724  -233.00917395    -0.00021140    -0.00278729  0.25D-04  0.25D-04  3  3    17.97
   4      1.30081950    -0.83420283  -233.00917954    -0.00000559    -0.00060606  0.65D-06  0.21D-05  4  4    23.43
   5      1.30105321    -0.83421181  -233.00918852    -0.00000898    -0.00008172  0.19D-06  0.15D-06  5  5    28.89
   6      1.30109489    -0.83420851  -233.00918523     0.00000330    -0.00001328  0.26D-07  0.14D-07  6  6    34.35
   7      1.30110196    -0.83420727  -233.00918399     0.00000124    -0.00000072  0.39D-08  0.18D-08  6  1    39.81
   8      1.30110560    -0.83420728  -233.00918400    -0.00000001    -0.00000042  0.70D-09  0.22D-09  6  2    45.27
   9      1.30110618    -0.83420722  -233.00918393     0.00000007     0.00000058  0.65D-10  0.40D-10  6  4    50.73
  10      1.30110677    -0.83420720  -233.00918392     0.00000001    -0.00000001  0.51D-11  0.39D-11  6  3    56.19
  11      1.30110675    -0.83420721  -233.00918392    -0.00000000     0.00000005  0.81D-12  0.48D-12  6  5    61.65
  12      1.30110668    -0.83420721  -233.00918392    -0.00000000     0.00000003  0.15D-12  0.68D-13  6  6    67.09
  13      1.30110663    -0.83420721  -233.00918393    -0.00000000     0.00000003  0.11D-13  0.10D-13  6  2    72.56
  14      1.30110661    -0.83420721  -233.00918393    -0.00000000     0.00000001  0.18D-14  0.63D-15  6  1    78.01
  15      1.30110661    -0.83420721  -233.00918393    -0.00000000     0.00000000  0.22D-15  0.13D-15  6  4    83.47
  16      1.30110661    -0.83420721  -233.00918393     0.00000000    -0.00000000  0.35D-16  0.21D-16  6  3    88.92
  17      1.30110661    -0.83420721  -233.00918393     0.00000000    -0.00000000  0.34D-17  0.26D-17  6  5    94.37
  18      1.30110661    -0.83420721  -233.00918393    -0.00000000    -0.00000000  0.89D-18  0.35D-18  6  6    99.83
  19      1.30110661    -0.83420721  -233.00918393    -0.00000000    -0.00000000  0.22D-18  0.65D-19  6  2   105.29
  20      1.30110661    -0.83420721  -233.00918393    -0.00000000     0.00000000  0.33D-19  0.12D-19  6  1   110.75
  21      1.30110661    -0.83420721  -233.00918393    -0.00000000     0.00000000  0.41D-20  0.21D-20  6  4   116.21
  22      1.30110661    -0.83420721  -233.00918393     0.00000000    -0.00000000  0.70D-21  0.33D-21  6  3   121.67

 Norm of t1 vector:      0.06621006      S-energy:    -0.00000000      T1 diagnostic:  0.00827626
                                                                       D1 diagnostic:  0.02185962


 Total CPU time for triples:     78.31 sec


 RESULTS
 =======

  Reference energy                   -232.174976713554
  CCSD singlet pair energy             -0.581184485799
  CCSD triplet pair energy             -0.253022726348
  CCSD correlation energy              -0.834207212147

  Triples (T) contribution             -0.023284509775
  Total correlation energy             -0.857491721923

  CCSD total energy                  -233.009183925701
  CCSD[T] energy                     -233.033168251531
  CCSD-T energy                      -233.032131189123
 !CCSD(T) total energy               -233.032468435477

 Timing summary (sec):

 STEP                 CPU(USER)    SYS     CPU(TOT)    WALL
 Transformation          1.79      0.15      1.94      1.94
 CCSD iterations       119.88      2.10    121.98    122.08
 Triples                78.31      1.27     79.58     79.59

 Program statistics:

 Available memory in ccsd:               999998876
 Min. memory needed in ccsd:               3310297
 Max. memory used in ccsd:                 4412497
 Max. memory used in cckext:               4149679 (22 integral passes)



 **********************************************************************************************************************************
 DATASETS  * FILE   NREC   LENGTH (MB)   RECORD NAMES
              1      20      293.26       500      610      700      900      950      970     1000      129      960     1100   
                                          VAR    BASINP    GEOM    SYMINP    ZMAT    AOBASIS   BASIS     P2S    ABASIS      S 
                                         1400     1410     1200     1210     1080     1600     1650     1300     1700     1380   
                                           T        V       H0       H01     AOSYM     SMH    MOLCAS    ERIS     OPER     JKOP   

              2       3        0.80       700     1000     2100   
                                         GEOM     BASIS     RHF  

 PROGRAMS   *        TOTAL   CCSD(T)       RHF       INT
 CPU TIMES  *       207.81    199.99      4.33      3.44
 REAL TIME  *       212.62 SEC
 DISK USED  *       747.17 MB      
 GA USED    *         0.01 MB       (max)       0.00 MB       (current)
 **********************************************************************************************************************************

        CCSD(T)         RHF-SCF 
   -233.03246844   -232.17497671
 **********************************************************************************************************************************
 Variable memory released
