
 Primary working directories    : /tmp/943420.477.gen6.q
 Secondary working directories  : /tmp/943420.477.gen6.q
 Wavefunction directory         : /home/vulcan/mel64643/wfu/
 Main file repository           : /tmp/943420.477.gen6.q/

 ARCHNAME  : Linux/x86_64
 FC        : /opt/intel/compilers_and_libraries_2016.1.150/linux/bin/intel64/ifort
 FCVERSION : 16.0.1
 BLASLIB   : -mkl
 id        : ccgc

 Nodes     nprocs
 n085         1
 ga_uses_ma=false, calling ma_init with nominal heap.
 GA-space will be limited to   8.0 MW (determined by -G option)

 Using customized tuning parameters: mindgm=10; mindgv=16; mindgc=4; mindgr=1; noblas=0; mincuda=1000; minvec=7
 default implementation of scratch files=df  

 ***,Optimization of nh3_nitrosmethane
 memory,1000,m
 gthresh,energy=1.0d-12,orbital=1.0d-10,oneint=1.0d-16,twoint=1.0d-16,optgrad=1.0d-6,compress=1.0d-13
 geomtyp=xyz
 
 bohr
 geometry = {
  N   -5.2248208555   -0.1837575303    0.0003810426
  H   -6.2994102705    0.2309658416   -1.5338282933
  H   -3.7606744997    1.0595576817    0.0000045530
  H   -6.2990166347    0.2314314865    1.5347400881
  H   -0.9267790984   -2.3986322992   -0.0044558909
  H    1.8867205403   -3.4458319024   -1.6616378174
  H    1.8881631547   -3.4277789711    1.6615624592
  C    1.1337170721   -2.4694480840   -0.0049655490
  N    2.2647755664    0.0980966574    0.0042552715
  O    0.7014435154    1.7824541288    0.0039441363
 }
 
 basis=aug-cc-pvdz, H=cc-pvdz
 {rhf;maxit,200}
 {ccsd(t);maxit,200}

 Variables initialized (661), CPU time= 0.01 sec
 Commands  initialized (458), CPU time= 0.00 sec, 486 directives.
 Default parameters read. Elapsed time= 0.04 sec

 Checking input...
 Passed
1


                                         ***  PROGRAM SYSTEM MOLPRO  ***
                         Copyright, University College Cardiff Consultants Limited, 2008

                                    Version 2010.1 linked May 16 2016 07:17:05


 **********************************************************************************************************************************
 LABEL *   Optimization of nh3_nitrosmethane                                             
 Linux-4.4.3/n085(x86_64) 64 bit mpp version                                             DATE: 26-Oct-23          TIME: 08:15:34  
 **********************************************************************************************************************************

 SHA1:             9e8077add272b0f3cad6f7df79ec5211205f459d
 **********************************************************************************************************************************

 THRESHOLDS:

 ZERO    =  1.00D-12  ONEINT  =  1.00D-16  TWOINT  =  1.00D-16  PREFAC  =  1.00D-14  LOCALI  =  1.00D-09  EORDER  =  1.00D-04
 ENERGY  =  1.00D-12  ETEST   =  0.00D+00  EDENS   =  0.00D+00  THRDEDEF=  1.00D-06  GRADIENT=  1.00D-02  STEP    =  1.00D-03
 ORBITAL =  1.00D-10  CIVEC   =  1.00D-05  COEFF   =  1.00D-04  PRINTCI =  5.00D-02  PUNCHCI =  9.90D+01  OPTGRAD =  1.00D-06
 OPTENERG=  1.00D-06  OPTSTEP =  3.00D-04  THRGRAD =  1.00D-10  COMPRESS=  1.00D-13  VARMIN  =  1.00D-07  VARMAX  =  1.00D-03
 THRDOUB =  0.00D+00  THRDIV  =  1.00D-05  THRRED  =  1.00D-07  THRPSP  =  1.00D+00  THRDC   =  1.00D-10  THRCS   =  1.00D-10
 THRNRM  =  1.00D-08  THREQ   =  0.00D+00  THRDE   =  1.00D+00  THRREF  =  1.00D-05  SPARFAC =  1.00D+00  THRDLP  =  1.00D-07
 THRDIA  =  1.00D-10  THRDLS  =  1.00D-07  THRGPS  =  0.00D+00  THRKEX  =  0.00D+00  THRDIS  =  2.00D-01  THRVAR  =  1.00D-10
 THRLOC  =  1.00D-06  THRGAP  =  1.00D-06  THRLOCT = -1.00D+00  THRGAPT = -1.00D+00  THRORB  =  1.00D-06  THRMLTP =  0.00D+00
 THRCPQCI=  1.00D-10  KEXTA   =  0.00D+00  THRCOARS=  0.00D+00  SYMTOL  =  1.00D-06  GRADTOL =  1.00D-06  THROVL  =  1.00D-08
 THRORTH =  1.00D-08  GRID    =  1.00D-06  GRIDMAX =  1.00D-03  DTMAX   =  0.00D+00

 SETTING GEOMTYP        =    XYZ
 ZUNIT=BOHR
 

 Variable memory set to 1000000000 words,  buffer space   230000 words

 SETTING BASIS          =    AUG-CC-PVDZ,H=CC-PVDZ


 Recomputing integrals since basis changed


 Using spherical harmonics

 Library entry N      S aug-cc-pVDZ          selected for orbital group  1
 Library entry N      P aug-cc-pVDZ          selected for orbital group  1
 Library entry N      D aug-cc-pVDZ          selected for orbital group  1
 Library entry H      S cc-pVDZ              selected for orbital group  2
 Library entry H      P cc-pVDZ              selected for orbital group  2
 Library entry C      S aug-cc-pVDZ          selected for orbital group  3
 Library entry C      P aug-cc-pVDZ          selected for orbital group  3
 Library entry C      D aug-cc-pVDZ          selected for orbital group  3
 Library entry O      S aug-cc-pVDZ          selected for orbital group  5
 Library entry O      P aug-cc-pVDZ          selected for orbital group  5
 Library entry O      D aug-cc-pVDZ          selected for orbital group  5

1PROGRAM * SEWARD (Integral evaluation for generally contracted gaussian basis sets)     Author: Roland Lindh, 1990

 Geometry written to block  1 of record 700


 Point group  C1  



 ATOMIC COORDINATES

 NR  ATOM    CHARGE       X              Y              Z

   1  N       7.00   -5.224820855   -0.183757530    0.000381043
   2  H       1.00   -6.299410271    0.230965842   -1.533828293
   3  H       1.00   -3.760674500    1.059557682    0.000004553
   4  H       1.00   -6.299016635    0.231431487    1.534740088
   5  H       1.00   -0.926779098   -2.398632299   -0.004455891
   6  H       1.00    1.886720540   -3.445831902   -1.661637817
   7  H       1.00    1.888163155   -3.427778971    1.661562459
   8  C       6.00    1.133717072   -2.469448084   -0.004965549
   9  N       7.00    2.264775566    0.098096657    0.004255272
  10  O       8.00    0.701443515    1.782454129    0.003944136

 Bond lengths in Bohr (Angstrom)

 1-2  1.918472354  1-3  1.920822066  1-4  1.918472354  5-8  2.061712784  6-8  2.065164059
     ( 1.015211846)     ( 1.016455260)     ( 1.015211846)     ( 1.091011417)     ( 1.092837753)

  7- 8  2.065164057   8- 9  2.805648649   9-10  2.298057286
       ( 1.092837752)       ( 1.484685321)       ( 1.216079541)

 Bond angles

  2-1-3  106.67095379   2-1-4  106.21107418   3-1-4  106.67095379   5-8-6  112.38597714

  5-8-7  112.38598258   5-8-9  111.80596050   6-8-7  107.14270731   6-8-9  106.75670132

  7- 8- 9  105.94641959   8- 9-10  113.35946296

 NUCLEAR CHARGE:                   34
 NUMBER OF PRIMITIVE AOS:         190
 NUMBER OF SYMMETRY AOS:          182
 NUMBER OF CONTRACTIONS:          122   ( 122A   )
 NUMBER OF CORE ORBITALS:           4   (   4A   )
 NUMBER OF VALENCE ORBITALS:       22   (  22A   )


 NUCLEAR REPULSION ENERGY  117.38800386


 Eigenvalues of metric

         1 0.465E-03 0.142E-02 0.195E-02 0.432E-02 0.525E-02 0.749E-02 0.802E-02 0.853E-02


 Contracted 2-electron integrals neglected if value below      1.0D-16
 AO integral compression algorithm  1   Integral accuracy      1.0D-16

     236.192 MB (compressed) written to integral file ( 87.8%)

     Node minimum: 236.192 MB, node maximum: 236.192 MB


 NUMBER OF SORTED TWO-ELECTRON INTEGRALS:   28151256.     BUFFER LENGTH:  32768
 NUMBER OF SEGMENTS:   2  SEGMENT LENGTH:   15997996      RECORD LENGTH: 524288

 Memory used in sort:      16.56 MW

 SORT1 READ    33603370. AND WROTE    27858903. INTEGRALS IN     81 RECORDS. CPU TIME:     0.29 SEC, REAL TIME:     0.47 SEC
 SORT2 READ    27858903. AND WROTE    28151256. INTEGRALS IN    901 RECORDS. CPU TIME:     0.27 SEC, REAL TIME:     0.35 SEC

 FILE SIZES:   FILE 1:   203.1 MBYTE,  FILE 4:   339.8 MBYTE,   TOTAL:    542.8 MBYTE

 OPERATOR DM      FOR CENTER  0  COORDINATES:    0.000000    0.000000    0.000000


 **********************************************************************************************************************************
 DATASETS  * FILE   NREC   LENGTH (MB)   RECORD NAMES
              1      19      203.26       500      610      700      900      950      970     1000      129      960     1100   
                                          VAR    BASINP    GEOM    SYMINP    ZMAT    AOBASIS   BASIS     P2S    ABASIS      S 
                                         1400     1410     1200     1210     1080     1600     1650     1300     1700   
                                           T        V       H0       H01     AOSYM     SMH    MOLCAS    ERIS     OPER   

 PROGRAMS   *        TOTAL       INT
 CPU TIMES  *         1.81      1.77
 REAL TIME  *         2.37 SEC
 DISK USED  *       779.83 MB      
 GA USED    *         0.00 MB       (max)       0.00 MB       (current)
 **********************************************************************************************************************************

1PROGRAM * RHF-SCF (CLOSED SHELL)       Authors: W. Meyer, H.-J. Werner


 NUMBER OF ELECTRONS:      17+   17-    SPACE SYMMETRY=1    SPIN SYMMETRY: Singlet 
 CONVERGENCE THRESHOLDS:    1.00E-10 (Density)    1.00E-13 (Energy)
 MAX. NUMBER OF ITERATIONS:      200
 INTERPOLATION TYPE:            DIIS
 INTERPOLATION STEPS:              2 (START)      1 (STEP)
 LEVEL SHIFTS:                  0.00 (CLOSED)  0.00 (OPEN) 



 Orbital guess generated from atomic densities. Full valence occupancy:   26

 Molecular orbital dump at record        2100.2

 ITERATION    DDIFF          GRAD             ENERGY        2-EL.EN.            DIPOLE MOMENTS         DIIS
    1      0.000D+00      0.000D+00      -224.96499163    393.086087    0.07256   -0.57729   -0.00133    0
    2      0.000D+00      0.710D-02      -225.02577476    392.714182   -0.58027   -0.37612   -0.00415    1
    3      0.132D-01      0.496D-02      -225.05964024    393.259268   -0.23515   -0.55543   -0.00331    2
    4      0.572D-02      0.994D-03      -225.06191023    393.094191   -0.31313   -0.45798   -0.00339    3
    5      0.146D-02      0.393D-03      -225.06233478    393.106028   -0.31089   -0.48738   -0.00348    4
    6      0.638D-03      0.953D-04      -225.06237724    393.133146   -0.31624   -0.48452   -0.00349    5
    7      0.218D-03      0.364D-04      -225.06238331    393.117103   -0.31786   -0.48462   -0.00349    6
    8      0.865D-04      0.148D-04      -225.06238431    393.123596   -0.31887   -0.48454   -0.00349    7
    9      0.332D-04      0.633D-05      -225.06238452    393.122422   -0.31915   -0.48424   -0.00349    8
   10      0.184D-04      0.194D-05      -225.06238455    393.122137   -0.31923   -0.48406   -0.00349    8
   11      0.563D-05      0.651D-06      -225.06238455    393.122243   -0.31924   -0.48397   -0.00349    8
   12      0.184D-05      0.198D-06      -225.06238455    393.122207   -0.31924   -0.48394   -0.00349    8
   13      0.687D-06      0.630D-07      -225.06238455    393.122201   -0.31925   -0.48394   -0.00349    8
   14      0.168D-06      0.331D-07      -225.06238455    393.122204   -0.31925   -0.48394   -0.00349    9
   15      0.827D-07      0.895D-08      -225.06238455    393.122204   -0.31925   -0.48394   -0.00349    8
   16      0.245D-07      0.670D-08      -225.06238455    393.122204   -0.31925   -0.48394   -0.00349    7
   17      0.441D-07      0.337D-08      -225.06238455    393.122204   -0.31925   -0.48394   -0.00349    8
   18      0.319D-07      0.106D-08      -225.06238455    393.122204   -0.31925   -0.48394   -0.00349    9
   19      0.745D-08      0.258D-09      -225.06238455    393.122204   -0.31925   -0.48394   -0.00349    9
   20      0.923D-09      0.849D-10      -225.06238455    393.122204   -0.31925   -0.48394   -0.00349    9
   21      0.233D-09      0.280D-10      -225.06238455    393.122204   -0.31925   -0.48394   -0.00349    9
   22      0.703D-10      0.101D-10      -225.06238455    393.122204   -0.31925   -0.48394   -0.00349    8
   23      0.259D-10      0.441D-11      -225.06238455    393.122204   -0.31925   -0.48394   -0.00349    9
   24      0.113D-10      0.194D-11      -225.06238455    393.122204   -0.31925   -0.48394   -0.00349    0

 Final occupancy:  17

 !RHF STATE 1.1 Energy               -225.062384548789
 Nuclear energy                       117.38800386
 One-electron energy                 -539.01149026
 Two-electron energy                  196.56110185
 Virial quotient                       -1.00219792
 !RHF STATE 1.1 Dipole moment          -0.31924632    -0.48393581    -0.00348837
 Dipole moment /Debye                  -0.81139007    -1.22996157    -0.00886598

 Orbital energies:

         1.1          2.1          3.1          4.1          5.1          6.1          7.1          8.1          9.1         10.1
    -20.640349   -15.714774   -15.548897   -11.271294    -1.515141    -1.140053    -1.076257    -0.862428    -0.691635    -0.676000

        11.1         12.1         13.1         14.1         15.1         16.1         17.1         18.1         19.1
     -0.635819    -0.623889    -0.623279    -0.556367    -0.534083    -0.428179    -0.406200     0.077432     0.084474


 **********************************************************************************************************************************
 DATASETS  * FILE   NREC   LENGTH (MB)   RECORD NAMES
              1      19      203.26       500      610      700      900      950      970     1000      129      960     1100   
                                          VAR    BASINP    GEOM    SYMINP    ZMAT    AOBASIS   BASIS     P2S    ABASIS      S 
                                         1400     1410     1200     1210     1080     1600     1650     1300     1700   
                                           T        V       H0       H01     AOSYM     SMH    MOLCAS    ERIS     OPER   

              2       3        0.72       700     1000     2100   
                                         GEOM     BASIS     RHF  

 PROGRAMS   *        TOTAL       RHF       INT
 CPU TIMES  *         6.21      4.40      1.77
 REAL TIME  *         7.27 SEC
 DISK USED  *       779.83 MB      
 GA USED    *         0.00 MB       (max)       0.00 MB       (current)
 **********************************************************************************************************************************


1PROGRAM * CCSD (Closed-shell coupled cluster)     Authors: C. Hampel, H.-J. Werner, 1991, M. Deegan, P.J. Knowles, 1992


 Convergence thresholds:  THRVAR = 1.00D-08  THRDEN = 1.00D-12

 CCSD(T)     terms to be evaluated (factor= 1.000)


 Number of core orbitals:           4 (   4 )
 Number of closed-shell orbitals:  13 (  13 )
 Number of external orbitals:     105 ( 105 )

 Molecular orbitals read from record     2100.2  Type=RHF/CANONICAL (state 1.1)

 Number of N-1 electron functions:              13
 Number of N-2 electron functions:              91
 Number of singly external CSFs:              1365
 Number of doubly external CSFs:            932295
 Total number of CSFs:                      933661

 Length of J-op  integral file:               0.00 MB
 Length of K-op  integral file:               1.06 MB
 Length of 3-ext integral record:             0.00 MB

 Memory could be reduced to 20.68 Mwords without degradation in triples

 Integral transformation finished. Total CPU:   0.99 sec, npass=  1  Memory used:  15.40 MW

 Reference energy:                   -225.06238455

 MP2 singlet pair energy:              -0.44859742
 MP2 triplet pair energy:              -0.26464875
 MP2 correlation energy:               -0.71324618
 MP2 total energy:                   -225.77563073

 SCS-MP2 correlation energy:           -0.70298725   (PS=  1.200000  PT=  0.333333)
 SCS-MP2 total energy:               -225.76537179

 ITER.      SQ.NORM     CORR.ENERGY   TOTAL ENERGY   ENERGY CHANGE        DEN1      VAR(S)    VAR(P)  DIIS     TIME
   1      1.24160365    -0.74723020  -225.80961474    -0.03398402    -0.01021940  0.52D-02  0.49D-02  1  1     3.19
   2      1.26338297    -0.75031751  -225.81270206    -0.00308732    -0.02110792  0.17D-03  0.87D-03  2  2     5.43
   3      1.27338828    -0.75102244  -225.81340699    -0.00070492    -0.00461162  0.12D-03  0.62D-04  3  3     7.65
   4      1.27754317    -0.75098777  -225.81337232     0.00003466    -0.00137329  0.11D-04  0.11D-04  4  4     9.88
   5      1.27919674    -0.75100576  -225.81339030    -0.00001798    -0.00036063  0.19D-05  0.17D-05  5  5    12.13
   6      1.27965664    -0.75097493  -225.81335948     0.00003082    -0.00005486  0.15D-06  0.33D-06  6  6    14.36
   7      1.27975718    -0.75097212  -225.81335667     0.00000281    -0.00000376  0.33D-07  0.86D-07  6  2    16.60
   8      1.27978088    -0.75097287  -225.81335742    -0.00000075    -0.00000032  0.43D-08  0.20D-07  6  1    18.85
   9      1.27978115    -0.75097226  -225.81335681     0.00000061     0.00000435  0.26D-08  0.32D-08  6  4    21.08
  10      1.27978348    -0.75097305  -225.81335760    -0.00000079    -0.00000121  0.52D-09  0.44D-09  6  3    23.31
  11      1.27978140    -0.75097326  -225.81335781    -0.00000021     0.00000043  0.17D-09  0.78D-10  6  5    25.55
  12      1.27977989    -0.75097333  -225.81335788    -0.00000007     0.00000032  0.40D-10  0.17D-10  6  6    27.79
  13      1.27977828    -0.75097345  -225.81335800    -0.00000012     0.00000040  0.59D-11  0.40D-11  6  1    30.04
  14      1.27977759    -0.75097347  -225.81335801    -0.00000001     0.00000018  0.16D-11  0.59D-12  6  2    32.28
  15      1.27977734    -0.75097347  -225.81335802    -0.00000001     0.00000005  0.46D-12  0.11D-12  6  4    34.50
  16      1.27977727    -0.75097348  -225.81335803    -0.00000000     0.00000001  0.25D-12  0.40D-13  6  3    36.74
  17      1.27977725    -0.75097348  -225.81335803     0.00000000    -0.00000000  0.14D-12  0.18D-13  6  6    38.97
  18      1.27977725    -0.75097348  -225.81335803    -0.00000000    -0.00000000  0.77D-13  0.92D-14  6  5    41.21
  19      1.27977726    -0.75097348  -225.81335803     0.00000000    -0.00000000  0.34D-13  0.54D-14  6  2    43.45
  20      1.27977725    -0.75097348  -225.81335803    -0.00000000     0.00000000  0.93D-14  0.23D-14  6  1    45.69
  21      1.27977726    -0.75097348  -225.81335803     0.00000000    -0.00000000  0.12D-14  0.73D-15  6  3    47.93
  22      1.27977726    -0.75097348  -225.81335803     0.00000000     0.00000000  0.18D-15  0.16D-15  6  4    50.16
  23      1.27977726    -0.75097348  -225.81335803    -0.00000000    -0.00000000  0.24D-16  0.33D-16  6  5    52.40
  24      1.27977726    -0.75097348  -225.81335803     0.00000000    -0.00000000  0.68D-17  0.96D-17  6  6    54.64
  25      1.27977726    -0.75097348  -225.81335803     0.00000000    -0.00000000  0.19D-17  0.31D-17  6  2    56.88
  26      1.27977726    -0.75097348  -225.81335803    -0.00000000     0.00000000  0.40D-18  0.11D-17  6  4    59.13
  27      1.27977726    -0.75097348  -225.81335803    -0.00000000     0.00000000  0.19D-18  0.15D-18  6  1    61.37
  28      1.27977726    -0.75097348  -225.81335803    -0.00000000     0.00000000  0.10D-18  0.31D-19  6  3    63.61

 Norm of t1 vector:      0.11117454      S-energy:    -0.00000000      T1 diagnostic:  0.01541714
                                                                       D1 diagnostic:  0.04947504

 Doubles amplitudes (print threshold =  0.500E-01):

         I         J         SYM. A    SYM. B    A         B      T(IJ, AB)

        11        11         1         1         2         2     -0.05732540


 Total CPU time for triples:     32.48 sec


 RESULTS
 =======

  Reference energy                   -225.062384548788
  CCSD singlet pair energy             -0.516889992566
  CCSD triplet pair energy             -0.234083483908
  CCSD correlation energy              -0.750973476474

  Triples (T) contribution             -0.026303549499
  Total correlation energy             -0.777277025973

  CCSD total energy                  -225.813358025263
  CCSD[T] energy                     -225.841270072309
  CCSD-T energy                      -225.839169546088
 !CCSD(T) total energy               -225.839661574762

 Timing summary (sec):

 STEP                 CPU(USER)    SYS     CPU(TOT)    WALL
 Transformation          1.02      0.11      1.13      1.13
 CCSD iterations        62.59      1.79     64.38     64.44
 Triples                32.48      0.69     33.17     33.17

 Program statistics:

 Available memory in ccsd:               999999224
 Min. memory needed in ccsd:               2510565
 Max. memory used in ccsd:                 3320127
 Max. memory used in cckext:               2903072 (28 integral passes)



 **********************************************************************************************************************************
 DATASETS  * FILE   NREC   LENGTH (MB)   RECORD NAMES
              1      20      280.66       500      610      700      900      950      970     1000      129      960     1100   
                                          VAR    BASINP    GEOM    SYMINP    ZMAT    AOBASIS   BASIS     P2S    ABASIS      S 
                                         1400     1410     1200     1210     1080     1600     1650     1300     1700     1380   
                                           T        V       H0       H01     AOSYM     SMH    MOLCAS    ERIS     OPER     JKOP   

              2       3        0.72       700     1000     2100   
                                         GEOM     BASIS     RHF  

 PROGRAMS   *        TOTAL   CCSD(T)       RHF       INT
 CPU TIMES  *       102.31     96.10      4.40      1.77
 REAL TIME  *       106.06 SEC
 DISK USED  *       779.83 MB      
 GA USED    *         0.00 MB       (max)       0.00 MB       (current)
 **********************************************************************************************************************************

        CCSD(T)         RHF-SCF 
   -225.83966157   -225.06238455
 **********************************************************************************************************************************
 Variable memory released
