
 Primary working directories    : /tmp/1221486.41.gen6.q
 Secondary working directories  : /tmp/1221486.41.gen6.q
 Wavefunction directory         : /home/vulcan/mel64643/wfu/
 Main file repository           : /tmp/1221486.41.gen6.q/

 ARCHNAME  : Linux/x86_64
 FC        : /opt/intel/compilers_and_libraries_2016.1.150/linux/bin/intel64/ifort
 FCVERSION : 16.0.1
 BLASLIB   : -mkl
 id        : ccgc

 Nodes     nprocs
 n079         1
 ga_uses_ma=false, calling ma_init with nominal heap.
 GA-space will be limited to   8.0 MW (determined by -G option)

 Using customized tuning parameters: mindgm=10; mindgv=16; mindgc=4; mindgr=1; noblas=0; mincuda=1000; minvec=7
 default implementation of scratch files=df  

 ***,Optimization of min3
 memory,1000,m
 gthresh,energy=1.0d-12,orbital=1.0d-10,oneint=1.0d-16,twoint=1.0d-16,optgrad=1.0d-6,compress=1.0d-13
 geomtyp=xyz
 
 
 
  bohr
  geometry = {
  H    0.0529896029    2.8453502515    0.0000000000
  C    0.1835379269    0.7808171819    0.0000000000
  O    2.1230963791   -0.4083566285    0.0000000000
  O   -2.1525033231   -0.2349948161    0.0000000000
  H   -1.9151857304   -2.0426153200    0.0000000000
 }
 
 basis=aug-cc-pvdz
 {rhf;maxit,200}
 {mp2}

 Variables initialized (661), CPU time= 0.00 sec
 Commands  initialized (458), CPU time= 0.01 sec, 486 directives.
 Default parameters read. Elapsed time= 0.03 sec

 Checking input...
 Passed
1


                                         ***  PROGRAM SYSTEM MOLPRO  ***
                         Copyright, University College Cardiff Consultants Limited, 2008

                                    Version 2010.1 linked May 16 2016 07:17:05


 **********************************************************************************************************************************
 LABEL *   Optimization of min3                                                          
 Linux-4.4.3/n079(x86_64) 64 bit mpp version                                             DATE: 08-Feb-25          TIME: 15:55:30  
 **********************************************************************************************************************************

 SHA1:             9e8077add272b0f3cad6f7df79ec5211205f459d
 **********************************************************************************************************************************

 THRESHOLDS:

 ZERO    =  1.00D-12  ONEINT  =  1.00D-16  TWOINT  =  1.00D-16  PREFAC  =  1.00D-14  LOCALI  =  1.00D-09  EORDER  =  1.00D-04
 ENERGY  =  1.00D-12  ETEST   =  0.00D+00  EDENS   =  0.00D+00  THRDEDEF=  1.00D-06  GRADIENT=  1.00D-02  STEP    =  1.00D-03
 ORBITAL =  1.00D-10  CIVEC   =  1.00D-05  COEFF   =  1.00D-04  PRINTCI =  5.00D-02  PUNCHCI =  9.90D+01  OPTGRAD =  1.00D-06
 OPTENERG=  1.00D-06  OPTSTEP =  3.00D-04  THRGRAD =  1.00D-10  COMPRESS=  1.00D-13  VARMIN  =  1.00D-07  VARMAX  =  1.00D-03
 THRDOUB =  0.00D+00  THRDIV  =  1.00D-05  THRRED  =  1.00D-07  THRPSP  =  1.00D+00  THRDC   =  1.00D-10  THRCS   =  1.00D-10
 THRNRM  =  1.00D-08  THREQ   =  0.00D+00  THRDE   =  1.00D+00  THRREF  =  1.00D-05  SPARFAC =  1.00D+00  THRDLP  =  1.00D-07
 THRDIA  =  1.00D-10  THRDLS  =  1.00D-07  THRGPS  =  0.00D+00  THRKEX  =  0.00D+00  THRDIS  =  2.00D-01  THRVAR  =  1.00D-10
 THRLOC  =  1.00D-06  THRGAP  =  1.00D-06  THRLOCT = -1.00D+00  THRGAPT = -1.00D+00  THRORB  =  1.00D-06  THRMLTP =  0.00D+00
 THRCPQCI=  1.00D-10  KEXTA   =  0.00D+00  THRCOARS=  0.00D+00  SYMTOL  =  1.00D-06  GRADTOL =  1.00D-06  THROVL  =  1.00D-08
 THRORTH =  1.00D-08  GRID    =  1.00D-06  GRIDMAX =  1.00D-03  DTMAX   =  0.00D+00

 SETTING GEOMTYP        =    XYZ
 ZUNIT=BOHR
 

 Variable memory set to 1000000000 words,  buffer space   230000 words

 SETTING BASIS          =    AUG-CC-PVDZ


 Recomputing integrals since basis changed


 Using spherical harmonics

 Library entry H      S aug-cc-pVDZ          selected for orbital group  1
 Library entry H      P aug-cc-pVDZ          selected for orbital group  1
 Library entry C      S aug-cc-pVDZ          selected for orbital group  2
 Library entry C      P aug-cc-pVDZ          selected for orbital group  2
 Library entry C      D aug-cc-pVDZ          selected for orbital group  2
 Library entry O      S aug-cc-pVDZ          selected for orbital group  3
 Library entry O      P aug-cc-pVDZ          selected for orbital group  3
 Library entry O      D aug-cc-pVDZ          selected for orbital group  3

1PROGRAM * SEWARD (Integral evaluation for generally contracted gaussian basis sets)     Author: Roland Lindh, 1990

 Geometry written to block  1 of record 700


 Point group  Cs  



 ATOMIC COORDINATES

 NR  ATOM    CHARGE       X              Y              Z

   1  H       1.00    0.052989603    2.845350252    0.000000000
   2  C       6.00    0.183537927    0.780817182    0.000000000
   3  O       8.00    2.123096379   -0.408356628    0.000000000
   4  O       8.00   -2.152503323   -0.234994816    0.000000000
   5  H       1.00   -1.915185730   -2.042615320    0.000000000

 Bond lengths in Bohr (Angstrom)

 1-2  2.068656487  2-3  2.275087106  2-4  2.547344252  4-5  1.823132339
     ( 1.094685866)     ( 1.203924245)     ( 1.347996522)     ( 0.964760083)

 Bond angles

  1-2-3  125.13133094   1-2-4  109.88327847   2-4-5  106.02206191   3-2-4  124.98539059

 NUCLEAR CHARGE:                   24
 NUMBER OF PRIMITIVE AOS:         133
 NUMBER OF SYMMETRY AOS:          127
 NUMBER OF CONTRACTIONS:           87   (  62A'  +  25A"  )
 NUMBER OF CORE ORBITALS:           3   (   3A'  +   0A"  )
 NUMBER OF VALENCE ORBITALS:       14   (  11A'  +   3A"  )


 NUCLEAR REPULSION ENERGY   70.10387218


 Eigenvalues of metric

         1 0.724E-03 0.823E-03 0.142E-02 0.194E-02 0.387E-02 0.690E-02 0.101E-01 0.103E-01
         2 0.303E-01 0.388E-01 0.541E-01 0.661E-01 0.127E+00 0.151E+00 0.181E+00 0.251E+00


 Contracted 2-electron integrals neglected if value below      1.0D-16
 AO integral compression algorithm  1   Integral accuracy      1.0D-16

     39.584 MB (compressed) written to integral file (100.0%)

     Node minimum: 39.584 MB, node maximum: 39.584 MB


 NUMBER OF SORTED TWO-ELECTRON INTEGRALS:    3865231.     BUFFER LENGTH:  32768
 NUMBER OF SEGMENTS:   1  SEGMENT LENGTH:    3865231      RECORD LENGTH: 524288

 Memory used in sort:       4.42 MW

 SORT1 READ     4834110. AND WROTE     3816574. INTEGRALS IN     11 RECORDS. CPU TIME:     0.04 SEC, REAL TIME:     0.06 SEC
 SORT2 READ     3816574. AND WROTE     3865231. INTEGRALS IN    151 RECORDS. CPU TIME:     0.04 SEC, REAL TIME:     0.07 SEC

 FILE SIZES:   FILE 1:    34.3 MBYTE,  FILE 4:    46.2 MBYTE,   TOTAL:     80.4 MBYTE

 OPERATOR DM      FOR CENTER  0  COORDINATES:    0.000000    0.000000    0.000000


 **********************************************************************************************************************************
 DATASETS  * FILE   NREC   LENGTH (MB)   RECORD NAMES
              1      19       34.32       500      610      700      900      950      970     1000      129      960     1100   
                                          VAR    BASINP    GEOM    SYMINP    ZMAT    AOBASIS   BASIS     P2S    ABASIS      S 
                                         1400     1410     1200     1210     1080     1600     1650     1300     1700   
                                           T        V       H0       H01     AOSYM     SMH    MOLCAS    ERIS     OPER   

 PROGRAMS   *        TOTAL       INT
 CPU TIMES  *         0.47      0.43
 REAL TIME  *         0.85 SEC
 DISK USED  *       120.63 MB      
 GA USED    *         0.00 MB       (max)       0.00 MB       (current)
 **********************************************************************************************************************************

1PROGRAM * RHF-SCF (CLOSED SHELL)       Authors: W. Meyer, H.-J. Werner


 NUMBER OF ELECTRONS:      12+   12-
 CONVERGENCE THRESHOLDS:    1.00E-10 (Density)    1.00E-13 (Energy)
 MAX. NUMBER OF ITERATIONS:      200
 INTERPOLATION TYPE:            DIIS
 INTERPOLATION STEPS:              2 (START)      1 (STEP)
 LEVEL SHIFTS:                  0.00 (CLOSED)  0.00 (OPEN) 



 Orbital guess generated from atomic densities. Full valence occupancy:   14   3

 Molecular orbital dump at record        2100.2

 Initial alpha occupancy:  10   2
 Initial beta  occupancy:  10   2
 Wave function symmetry:    1

 ITERATION    DDIFF          GRAD             ENERGY        2-EL.EN.            DIPOLE MOMENTS         DIIS
    1      0.000D+00      0.000D+00      -188.71549679    278.433907   -1.10953    0.18593    0.00000    0
    2      0.000D+00      0.129D-01      -188.76236261    276.489913   -0.41897   -0.06304    0.00000    1
    3      0.246D-01      0.908D-02      -188.79581948    277.661466   -0.71898    0.17664    0.00000    2
    4      0.100D-01      0.114D-02      -188.79676993    277.572358   -0.64704    0.16044    0.00000    3
    5      0.187D-02      0.519D-03      -188.79696895    277.545274   -0.65778    0.16933    0.00000    4
    6      0.810D-03      0.153D-03      -188.79700352    277.577960   -0.65055    0.17079    0.00000    5
    7      0.293D-03      0.657D-04      -188.79701143    277.568027   -0.64877    0.17032    0.00000    6
    8      0.169D-03      0.224D-04      -188.79701226    277.572449   -0.64810    0.16969    0.00000    7
    9      0.588D-04      0.708D-05      -188.79701234    277.571562   -0.64790    0.16958    0.00000    8
   10      0.195D-04      0.171D-05      -188.79701234    277.571691   -0.64784    0.16952    0.00000    7
   11      0.467D-05      0.442D-06      -188.79701234    277.571671   -0.64782    0.16952    0.00000    8
   12      0.118D-05      0.982D-07      -188.79701234    277.571681   -0.64782    0.16952    0.00000    7
   13      0.265D-06      0.422D-07      -188.79701234    277.571676   -0.64782    0.16952    0.00000    8
   14      0.829D-07      0.123D-07      -188.79701234    277.571677   -0.64782    0.16952    0.00000    7
   15      0.297D-07      0.272D-08      -188.79701234    277.571677   -0.64782    0.16952    0.00000    7
   16      0.515D-08      0.903D-09      -188.79701234    277.571677   -0.64782    0.16952    0.00000    7
   17      0.162D-08      0.309D-09      -188.79701234    277.571677   -0.64782    0.16952    0.00000    7
   18      0.547D-09      0.913D-10      -188.79701234    277.571677   -0.64782    0.16952    0.00000    7
   19      0.203D-09      0.288D-10      -188.79701234    277.571677   -0.64782    0.16952    0.00000    8
   20      0.670D-10      0.685D-11      -188.79701234    277.571677   -0.64782    0.16952    0.00000    7
   21      0.188D-10      0.119D-11      -188.79701234    277.571677   -0.64782    0.16952    0.00000    0

 Final occupancy:  10   2

 !RHF STATE 1.1 Energy               -188.797012342176
 Nuclear energy                        70.10387218
 One-electron energy                 -397.68672304
 Two-electron energy                  138.78583851
 Virial quotient                       -1.00172986
 !RHF STATE 1.1 Dipole moment          -0.64781648     0.16952349     0.00000000
 Dipole moment /Debye                  -1.64647740     0.43085752     0.00000000

 Orbital energies:

         1.1          2.1          3.1          4.1          5.1          6.1          7.1          8.1          9.1         10.1
    -20.638438   -20.579938   -11.409700    -1.482736    -1.383222    -0.899658    -0.726687    -0.717214    -0.608654    -0.475120

        11.1         12.1
      0.036714     0.044259

         1.2          2.2          3.2          4.2
     -0.638182    -0.497973     0.086306     0.156126


 **********************************************************************************************************************************
 DATASETS  * FILE   NREC   LENGTH (MB)   RECORD NAMES
              1      19       34.32       500      610      700      900      950      970     1000      129      960     1100   
                                          VAR    BASINP    GEOM    SYMINP    ZMAT    AOBASIS   BASIS     P2S    ABASIS      S 
                                         1400     1410     1200     1210     1080     1600     1650     1300     1700   
                                           T        V       H0       H01     AOSYM     SMH    MOLCAS    ERIS     OPER   

              2       3        0.42       700     1000     2100   
                                         GEOM     BASIS     RHF  

 PROGRAMS   *        TOTAL       RHF       INT
 CPU TIMES  *         0.80      0.33      0.43
 REAL TIME  *         1.78 SEC
 DISK USED  *       120.63 MB      
 GA USED    *         0.00 MB       (max)       0.00 MB       (current)
 **********************************************************************************************************************************


1PROGRAM * MP2 (Closed-shell)     Authors: C. Hampel, H.-J. Werner, 1991, M. Deegan, P.J. Knowles, 1992


 Convergence thresholds:  THRVAR = 1.00D-08  THRDEN = 1.00D-12

 Number of core orbitals:           3 (   3   0 )
 Number of closed-shell orbitals:   9 (   7   2 )
 Number of external orbitals:      75 (  52  23 )

 Molecular orbitals read from record     2100.2  Type=RHF/CANONICAL (state 1.1)

 Number of N-1 electron functions:               9
 Number of N-2 electron functions:              45
 Number of singly external CSFs:               410
 Number of doubly external CSFs:            119500
 Total number of CSFs:                      119911

 Length of J-op  integral file:               0.00 MB
 Length of K-op  integral file:               0.34 MB

 Integral transformation finished. Total CPU:   0.04 sec, npass=  1  Memory used:   0.31 MW

 Memory needed for MP2:                      0.02 MW

 SCS-MP2 correlation energy:           -0.512420116625   (PS=  1.200000  PT=  0.333333)
 SCS-MP2 total energy:               -189.309432458801


  Reference energy                   -188.797012342176
  MP2 singlet pair energy              -0.316992923886
  MP2 triplet pair energy              -0.212188834224
  MP2 correlation energy               -0.529181758110

 !MP2 total energy                   -189.326194100286


 **********************************************************************************************************************************
 DATASETS  * FILE   NREC   LENGTH (MB)   RECORD NAMES
              1      20       36.62       500      610      700      900      950      970     1000      129      960     1100   
                                          VAR    BASINP    GEOM    SYMINP    ZMAT    AOBASIS   BASIS     P2S    ABASIS      S 
                                         1400     1410     1200     1210     1080     1600     1650     1300     1700     1380   
                                           T        V       H0       H01     AOSYM     SMH    MOLCAS    ERIS     OPER     JKOP   

              2       3        0.42       700     1000     2100   
                                         GEOM     BASIS     RHF  

 PROGRAMS   *        TOTAL       MP2       RHF       INT
 CPU TIMES  *         0.85      0.05      0.33      0.43
 REAL TIME  *         2.16 SEC
 DISK USED  *       120.63 MB      
 GA USED    *         0.00 MB       (max)       0.00 MB       (current)
 **********************************************************************************************************************************

        MP2             RHF-SCF 
   -189.32619410   -188.79701234
 **********************************************************************************************************************************
 Variable memory released
