
 Primary working directories    : /tmp/917057.478.gen5.q
 Secondary working directories  : /tmp/917057.478.gen5.q
 Wavefunction directory         : /home/vulcan/lo21740/wfu/
 Main file repository           : /tmp/917057.478.gen5.q/

 ARCHNAME  : Linux/x86_64
 FC        : /opt/intel/compilers_and_libraries_2016.1.150/linux/bin/intel64/ifort
 FCVERSION : 16.0.1
 BLASLIB   : -mkl
 id        : ccgc

 Nodes     nprocs
 n072         1
 ga_uses_ma=false, calling ma_init with nominal heap.
 GA-space will be limited to   8.0 MW (determined by -G option)

 Using customized tuning parameters: mindgm=10; mindgv=16; mindgc=4; mindgr=1; noblas=0; mincuda=1000; minvec=7
 default implementation of scratch files=df  

 ***,Optimization of h2o_2
 memory,1000,m
 gthresh,energy=1.0d-12,orbital=1.0d-10,oneint=1.0d-16,twoint=1.0d-16,optgrad=1.0d-6,compress=1.0d-13
 geomtyp=xyz
 
 bohr
 geometry = {
  C    0.0013861445   -3.4179435884    0.0030193034
  H   -0.9715562660   -2.7373326329   -1.6801941347
  H   -0.9764130114   -2.7329832688    1.6816478678
  H    1.9422968536   -2.7281060298   -0.0034775529
  H    0.0015036475   -5.4777474043   -0.0027353514
  C    0.0005525255    3.4206883377    0.0003465188
  H   -0.0038261546    5.4804949154   -0.0012595824
  H    0.9725002150    2.7317298557   -1.6800431936
  H    0.9724979375    2.7343512019    1.6818099108
  H   -1.9389418915    2.7268486135    0.0008862142
 }
 
 basis=AVDZ
 {rhf;maxit,200}
 {ccsd(t);maxit,200}

 Variables initialized (661), CPU time= 0.01 sec
 Commands  initialized (458), CPU time= 0.00 sec, 486 directives.
 Default parameters read. Elapsed time= 0.05 sec

 Checking input...
 Passed
1


                                         ***  PROGRAM SYSTEM MOLPRO  ***
                         Copyright, University College Cardiff Consultants Limited, 2008

                                    Version 2010.1 linked May 16 2016 07:17:05


 **********************************************************************************************************************************
 LABEL *   Optimization of h2o_2                                                         
 Linux-4.4.3/n072(x86_64) 64 bit mpp version                                             DATE: 20-Jul-23          TIME: 14:32:12  
 **********************************************************************************************************************************

 SHA1:             9e8077add272b0f3cad6f7df79ec5211205f459d
 **********************************************************************************************************************************

 THRESHOLDS:

 ZERO    =  1.00D-12  ONEINT  =  1.00D-16  TWOINT  =  1.00D-16  PREFAC  =  1.00D-14  LOCALI  =  1.00D-09  EORDER  =  1.00D-04
 ENERGY  =  1.00D-12  ETEST   =  0.00D+00  EDENS   =  0.00D+00  THRDEDEF=  1.00D-06  GRADIENT=  1.00D-02  STEP    =  1.00D-03
 ORBITAL =  1.00D-10  CIVEC   =  1.00D-05  COEFF   =  1.00D-04  PRINTCI =  5.00D-02  PUNCHCI =  9.90D+01  OPTGRAD =  1.00D-06
 OPTENERG=  1.00D-06  OPTSTEP =  3.00D-04  THRGRAD =  1.00D-10  COMPRESS=  1.00D-13  VARMIN  =  1.00D-07  VARMAX  =  1.00D-03
 THRDOUB =  0.00D+00  THRDIV  =  1.00D-05  THRRED  =  1.00D-07  THRPSP  =  1.00D+00  THRDC   =  1.00D-10  THRCS   =  1.00D-10
 THRNRM  =  1.00D-08  THREQ   =  0.00D+00  THRDE   =  1.00D+00  THRREF  =  1.00D-05  SPARFAC =  1.00D+00  THRDLP  =  1.00D-07
 THRDIA  =  1.00D-10  THRDLS  =  1.00D-07  THRGPS  =  0.00D+00  THRKEX  =  0.00D+00  THRDIS  =  2.00D-01  THRVAR  =  1.00D-10
 THRLOC  =  1.00D-06  THRGAP  =  1.00D-06  THRLOCT = -1.00D+00  THRGAPT = -1.00D+00  THRORB  =  1.00D-06  THRMLTP =  0.00D+00
 THRCPQCI=  1.00D-10  KEXTA   =  0.00D+00  THRCOARS=  0.00D+00  SYMTOL  =  1.00D-06  GRADTOL =  1.00D-06  THROVL  =  1.00D-08
 THRORTH =  1.00D-08  GRID    =  1.00D-06  GRIDMAX =  1.00D-03  DTMAX   =  0.00D+00

 SETTING GEOMTYP        =    XYZ
 ZUNIT=BOHR
 

 Variable memory set to 1000000000 words,  buffer space   230000 words

 SETTING BASIS          =    AVDZ


 Recomputing integrals since basis changed


 Using spherical harmonics

 Library entry C      S aug-cc-pVDZ          selected for orbital group  1
 Library entry C      P aug-cc-pVDZ          selected for orbital group  1
 Library entry C      D aug-cc-pVDZ          selected for orbital group  1
 Library entry H      S aug-cc-pVDZ          selected for orbital group  2
 Library entry H      P aug-cc-pVDZ          selected for orbital group  2

1PROGRAM * SEWARD (Integral evaluation for generally contracted gaussian basis sets)     Author: Roland Lindh, 1990

 Geometry written to block  1 of record 700


 Point group  C1  



 ATOMIC COORDINATES

 NR  ATOM    CHARGE       X              Y              Z

   1  C       6.00    0.001386144   -3.417943588    0.003019303
   2  H       1.00   -0.971556266   -2.737332633   -1.680194135
   3  H       1.00   -0.976413011   -2.732983269    1.681647868
   4  H       1.00    1.942296854   -2.728106030   -0.003477553
   5  H       1.00    0.001503648   -5.477747404   -0.002735351
   6  C       6.00    0.000552525    3.420688338    0.000346519
   7  H       1.00   -0.003826155    5.480494915   -0.001259582
   8  H       1.00    0.972500215    2.731729856   -1.680043194
   9  H       1.00    0.972497938    2.734351202    1.681809911
  10  H       1.00   -1.938941892    2.726848614    0.000886214

 Bond lengths in Bohr (Angstrom)

 1-2  2.059867880  1-3  2.059867881  1-4  2.059867095  1-5  2.059811858  6-7  2.059811858
     ( 1.090035136)     ( 1.090035136)     ( 1.090034720)     ( 1.090005490)     ( 1.090005490)

  6- 8  2.059867881   6- 9  2.059867881   6-10  2.059867095
       ( 1.090035136)       ( 1.090035136)       ( 1.090034720)

 Bond angles

  2-1-3  109.37964659   2-1-4  109.37953055   2-1-5  109.15698674   3-1-4  109.78467286

  3-1-5  109.56212910   4-1-5  109.56222118   7-6-8  109.56240831   7-6-9  109.56240831

  7- 6-10  109.56250040   8- 6- 9  109.37992579   8- 6-10  109.37980975   9- 6-10  109.37980975

 NUCLEAR CHARGE:                   20
 NUMBER OF PRIMITIVE AOS:         162
 NUMBER OF SYMMETRY AOS:          158
 NUMBER OF CONTRACTIONS:          118   ( 118A   )
 NUMBER OF CORE ORBITALS:           2   (   2A   )
 NUMBER OF VALENCE ORBITALS:       16   (  16A   )


 NUCLEAR REPULSION ENERGY   41.34855402


 Eigenvalues of metric

         1 0.369E-03 0.572E-03 0.574E-03 0.609E-03 0.728E-03 0.729E-03 0.778E-03 0.101E-02


 Contracted 2-electron integrals neglected if value below      1.0D-16
 AO integral compression algorithm  1   Integral accuracy      1.0D-16

     212.337 MB (compressed) written to integral file ( 92.8%)

     Node minimum: 212.337 MB, node maximum: 212.337 MB


 NUMBER OF SORTED TWO-ELECTRON INTEGRALS:   24650731.     BUFFER LENGTH:  32768
 NUMBER OF SEGMENTS:   2  SEGMENT LENGTH:   15997996      RECORD LENGTH: 524288

 Memory used in sort:      16.56 MW

 SORT1 READ    28594353. AND WROTE    24451708. INTEGRALS IN     71 RECORDS. CPU TIME:     0.27 SEC, REAL TIME:     0.44 SEC
 SORT2 READ    24451708. AND WROTE    24650731. INTEGRALS IN    810 RECORDS. CPU TIME:     0.23 SEC, REAL TIME:     0.36 SEC

 FILE SIZES:   FILE 1:   189.3 MBYTE,  FILE 4:   297.8 MBYTE,   TOTAL:    487.1 MBYTE

 OPERATOR DM      FOR CENTER  0  COORDINATES:    0.000000    0.000000    0.000000


 **********************************************************************************************************************************
 DATASETS  * FILE   NREC   LENGTH (MB)   RECORD NAMES
              1      19      189.44       500      610      700      900      950      970     1000      129      960     1100   
                                          VAR    BASINP    GEOM    SYMINP    ZMAT    AOBASIS   BASIS     P2S    ABASIS      S 
                                         1400     1410     1200     1210     1080     1600     1650     1300     1700   
                                           T        V       H0       H01     AOSYM     SMH    MOLCAS    ERIS     OPER   

 PROGRAMS   *        TOTAL       INT
 CPU TIMES  *         1.66      1.61
 REAL TIME  *         2.29 SEC
 DISK USED  *       700.22 MB      
 GA USED    *         0.00 MB       (max)       0.00 MB       (current)
 **********************************************************************************************************************************

1PROGRAM * RHF-SCF (CLOSED SHELL)       Authors: W. Meyer, H.-J. Werner


 NUMBER OF ELECTRONS:      10+   10-    SPACE SYMMETRY=1    SPIN SYMMETRY: Singlet 
 CONVERGENCE THRESHOLDS:    1.00E-10 (Density)    1.00E-13 (Energy)
 MAX. NUMBER OF ITERATIONS:      200
 INTERPOLATION TYPE:            DIIS
 INTERPOLATION STEPS:              2 (START)      1 (STEP)
 LEVEL SHIFTS:                  0.00 (CLOSED)  0.00 (OPEN) 



 Orbital guess generated from atomic densities. Full valence occupancy:   18

 Molecular orbital dump at record        2100.2

 ITERATION    DDIFF          GRAD             ENERGY        2-EL.EN.            DIPOLE MOMENTS         DIIS
    1      0.000D+00      0.000D+00       -80.36232788    134.808656   -0.00147   -0.00215   -0.00256    0
    2      0.000D+00      0.368D-02       -80.39422157    132.502986   -0.00042   -0.00089   -0.00073    1
    3      0.809D-02      0.137D-02       -80.39819657    133.330624   -0.00065   -0.00108   -0.00112    2
    4      0.256D-02      0.371D-03       -80.39878353    133.199810   -0.00057   -0.00096   -0.00099    3
    5      0.868D-03      0.458D-04       -80.39879226    133.206706   -0.00056   -0.00094   -0.00098    4
    6      0.876D-04      0.295D-05       -80.39879231    133.206543   -0.00056   -0.00094   -0.00098    5
    7      0.107D-04      0.223D-06       -80.39879231    133.206525   -0.00056   -0.00094   -0.00098    5
    8      0.155D-05      0.350D-07       -80.39879231    133.206525   -0.00056   -0.00094   -0.00098    4
    9      0.289D-06      0.573D-08       -80.39879231    133.206526   -0.00056   -0.00094   -0.00098    4
   10      0.206D-07      0.109D-08       -80.39879231    133.206525   -0.00056   -0.00094   -0.00098    5
   11      0.247D-08      0.235D-09       -80.39879231    133.206525   -0.00056   -0.00094   -0.00098    5
   12      0.113D-08      0.645D-10       -80.39879231    133.206525   -0.00056   -0.00094   -0.00098    6
   13      0.253D-09      0.138D-10       -80.39879231    133.206525   -0.00056   -0.00094   -0.00098    6
   14      0.442D-10      0.312D-11       -80.39879231    133.206525   -0.00056   -0.00094   -0.00098    6
   15      0.107D-10      0.423D-12       -80.39879231    133.206525   -0.00056   -0.00094   -0.00098    0

 Final occupancy:  10

 !RHF STATE 1.1 Energy                -80.398792305437
 Nuclear energy                        41.34855402
 One-electron energy                 -188.35060903
 Two-electron energy                   66.60326271
 Virial quotient                       -1.00196168
 !RHF STATE 1.1 Dipole moment          -0.00056380    -0.00093970    -0.00097761
 Dipole moment /Debye                  -0.00143294    -0.00238832    -0.00248467

 Orbital energies:

         1.1          2.1          3.1          4.1          5.1          6.1          7.1          8.1          9.1         10.1
    -11.214645   -11.214605    -0.945564    -0.939587    -0.550670    -0.546944    -0.546372    -0.539397    -0.538912    -0.535346

        11.1         12.1
      0.035477     0.045878


 **********************************************************************************************************************************
 DATASETS  * FILE   NREC   LENGTH (MB)   RECORD NAMES
              1      19      189.44       500      610      700      900      950      970     1000      129      960     1100   
                                          VAR    BASINP    GEOM    SYMINP    ZMAT    AOBASIS   BASIS     P2S    ABASIS      S 
                                         1400     1410     1200     1210     1080     1600     1650     1300     1700   
                                           T        V       H0       H01     AOSYM     SMH    MOLCAS    ERIS     OPER   

              2       3        0.70       700     1000     2100   
                                         GEOM     BASIS     RHF  

 PROGRAMS   *        TOTAL       RHF       INT
 CPU TIMES  *         4.59      2.93      1.61
 REAL TIME  *         5.63 SEC
 DISK USED  *       700.22 MB      
 GA USED    *         0.00 MB       (max)       0.00 MB       (current)
 **********************************************************************************************************************************


1PROGRAM * CCSD (Closed-shell coupled cluster)     Authors: C. Hampel, H.-J. Werner, 1991, M. Deegan, P.J. Knowles, 1992


 Convergence thresholds:  THRVAR = 1.00D-08  THRDEN = 1.00D-12

 CCSD(T)     terms to be evaluated (factor= 1.000)


 Number of core orbitals:           2 (   2 )
 Number of closed-shell orbitals:   8 (   8 )
 Number of external orbitals:     108 ( 108 )

 Molecular orbitals read from record     2100.2  Type=RHF/CANONICAL (state 1.1)

 Number of N-1 electron functions:               8
 Number of N-2 electron functions:              36
 Number of singly external CSFs:               864
 Number of doubly external CSFs:            373680
 Total number of CSFs:                      374545

 Length of J-op  integral file:               0.00 MB
 Length of K-op  integral file:               1.00 MB
 Length of 3-ext integral record:             0.00 MB

 Memory could be reduced to 14.62 Mwords without degradation in triples

 Integral transformation finished. Total CPU:   0.72 sec, npass=  1  Memory used:   8.61 MW

 Reference energy:                    -80.39879231

 MP2 singlet pair energy:              -0.24106898
 MP2 triplet pair energy:              -0.09676260
 MP2 correlation energy:               -0.33783158
 MP2 total energy:                    -80.73662388

 SCS-MP2 correlation energy:           -0.34949061   (PS=  1.200000  PT=  0.333333)
 SCS-MP2 total energy:                -80.74828292

 ITER.      SQ.NORM     CORR.ENERGY   TOTAL ENERGY   ENERGY CHANGE        DEN1      VAR(S)    VAR(P)  DIIS     TIME
   1      1.14044143    -0.38148297   -80.78027528    -0.04365140    -0.03251866  0.70D-03  0.24D-02  1  1     1.58
   2      1.15349113    -0.38423856   -80.78303086    -0.00275559    -0.01269453  0.16D-04  0.11D-03  2  2     2.50
   3      1.15560364    -0.38437131   -80.78316361    -0.00013275    -0.00113046  0.25D-05  0.71D-05  3  3     3.40
   4      1.15605070    -0.38438946   -80.78318177    -0.00001816    -0.00017665  0.10D-06  0.45D-06  4  4     4.33
   5      1.15612170    -0.38438616   -80.78317846     0.00000331    -0.00003210  0.39D-08  0.31D-07  5  5     5.26
   6      1.15612559    -0.38438515   -80.78317746     0.00000101    -0.00000142  0.28D-09  0.20D-08  6  6     6.18
   7      1.15612598    -0.38438537   -80.78317768    -0.00000022    -0.00000002  0.24D-10  0.13D-09  6  1     7.10
   8      1.15612604    -0.38438539   -80.78317769    -0.00000002    -0.00000007  0.24D-11  0.96D-11  6  2     8.02
   9      1.15612599    -0.38438539   -80.78317770    -0.00000000     0.00000003  0.45D-12  0.75D-12  6  3     8.94
  10      1.15612595    -0.38438539   -80.78317770    -0.00000000     0.00000002  0.35D-13  0.66D-13  6  4     9.86
  11      1.15612592    -0.38438539   -80.78317770    -0.00000000     0.00000002  0.33D-14  0.71D-14  6  5    10.80
  12      1.15612591    -0.38438540   -80.78317770    -0.00000000     0.00000001  0.28D-15  0.85D-15  6  6    11.73
  13      1.15612590    -0.38438540   -80.78317770    -0.00000000     0.00000000  0.22D-16  0.10D-15  6  1    12.65
  14      1.15612590    -0.38438540   -80.78317770    -0.00000000     0.00000000  0.26D-17  0.11D-16  6  3    13.59
  15      1.15612590    -0.38438540   -80.78317770    -0.00000000     0.00000000  0.19D-18  0.60D-18  6  2    14.52
  16      1.15612590    -0.38438540   -80.78317770    -0.00000000     0.00000000  0.26D-19  0.46D-19  6  4    15.44
  17      1.15612590    -0.38438540   -80.78317770    -0.00000000     0.00000000  0.31D-20  0.59D-20  6  5    16.36
  18      1.15612590    -0.38438540   -80.78317770    -0.00000000     0.00000000  0.35D-21  0.49D-21  6  6    17.28

 Norm of t1 vector:      0.03916417      S-energy:     0.00000000      T1 diagnostic:  0.00692331
                                                                       D1 diagnostic:  0.01253503


 Total CPU time for triples:     10.52 sec


 RESULTS
 =======

  Reference energy                    -80.398792305437
  CCSD singlet pair energy             -0.290160167899
  CCSD triplet pair energy             -0.094225227569
  CCSD correlation energy              -0.384385395468

  Triples (T) contribution             -0.009220185752
  Total correlation energy             -0.393605581220

  CCSD total energy                   -80.783177700905
  CCSD[T] energy                      -80.792618818973
  CCSD-T energy                       -80.792280654290
 !CCSD(T) total energy                -80.792397886657

 Timing summary (sec):

 STEP                 CPU(USER)    SYS     CPU(TOT)    WALL
 Transformation          0.74      0.10      0.84      0.84
 CCSD iterations        16.54      0.85     17.39     17.42
 Triples                10.52      0.23     10.75     10.76

 Program statistics:

 Available memory in ccsd:               999999644
 Min. memory needed in ccsd:               1156281
 Max. memory used in ccsd:                 1468601
 Max. memory used in cckext:               1135046 (18 integral passes)



 **********************************************************************************************************************************
 DATASETS  * FILE   NREC   LENGTH (MB)   RECORD NAMES
              1      20      236.42       500      610      700      900      950      970     1000      129      960     1100   
                                          VAR    BASINP    GEOM    SYMINP    ZMAT    AOBASIS   BASIS     P2S    ABASIS      S 
                                         1400     1410     1200     1210     1080     1600     1650     1300     1700     1380   
                                           T        V       H0       H01     AOSYM     SMH    MOLCAS    ERIS     OPER     JKOP   

              2       3        0.70       700     1000     2100   
                                         GEOM     BASIS     RHF  

 PROGRAMS   *        TOTAL   CCSD(T)       RHF       INT
 CPU TIMES  *        32.40     27.81      2.93      1.61
 REAL TIME  *        34.67 SEC
 DISK USED  *       700.22 MB      
 GA USED    *         0.00 MB       (max)       0.00 MB       (current)
 **********************************************************************************************************************************

        CCSD(T)         RHF-SCF 
    -80.79239789    -80.39879231
 **********************************************************************************************************************************
 Variable memory released
