
 Primary working directories    : /tmp/1059987.984.gen6.q
 Secondary working directories  : /tmp/1059987.984.gen6.q
 Wavefunction directory         : /home/vulcan/jj04645/wfu/
 Main file repository           : /tmp/1059987.984.gen6.q/

 ARCHNAME  : Linux/x86_64
 FC        : /opt/intel/compilers_and_libraries_2016.1.150/linux/bin/intel64/ifort
 FCVERSION : 16.0.1
 BLASLIB   : -mkl
 id        : ccgc

 Nodes     nprocs
 n086         1
 ga_uses_ma=false, calling ma_init with nominal heap.
 GA-space will be limited to   8.0 MW (determined by -G option)

 Using customized tuning parameters: mindgm=10; mindgv=16; mindgc=4; mindgr=1; noblas=0; mincuda=1000; minvec=7
 default implementation of scratch files=df  

 ***,Optimization of 1_4_cyclohexadiene
 memory,1000,m
 gthresh,energy=1.0d-12,orbital=1.0d-10,oneint=1.0d-16,twoint=1.0d-16,optgrad=1.0d-6,compress=1.0d-13
 geomtyp=xyz
 
 bohr
 geometry = {
  H    4.0967790652    0.0000000000   -1.6503305857
  C    2.8410814550   -0.0000000000   -0.0000000000
  C   -1.2651113948    2.3673563229    0.0000000000
  C   -1.2651113948   -2.3673563229    0.0000000000
  C   -2.8410814550    0.0000000000    0.0000000000
  C    1.2651113948   -2.3673563229   -0.0000000000
  C    1.2651113948    2.3673563229   -0.0000000000
  H   -2.2684130590    4.1560926043    0.0102545866
  H    2.2684130590    4.1560926043   -0.0102545866
  H   -4.0967790652    0.0000000000   -1.6503305857
  H    2.2684130590   -4.1560926043    0.0102545866
  H   -2.2684130590   -4.1560926043   -0.0102545866
  H    4.0967790652    0.0000000000    1.6503305857
  H   -4.0967790652    0.0000000000    1.6503305857
 }
 
 basis=VDZ
 {rhf;maxit,200}
 {ccsd(t);maxit,200}

 Variables initialized (661), CPU time= 0.01 sec
 Commands  initialized (458), CPU time= 0.00 sec, 486 directives.
 Default parameters read. Elapsed time= 0.05 sec

 Checking input...
 Passed
1


                                         ***  PROGRAM SYSTEM MOLPRO  ***
                         Copyright, University College Cardiff Consultants Limited, 2008

                                    Version 2010.1 linked May 16 2016 07:17:05


 **********************************************************************************************************************************
 LABEL *   Optimization of 1_4_cyclohexadiene                                            
 Linux-4.4.3/n086(x86_64) 64 bit mpp version                                             DATE: 06-May-24          TIME: 16:19:52  
 **********************************************************************************************************************************

 SHA1:             9e8077add272b0f3cad6f7df79ec5211205f459d
 **********************************************************************************************************************************

 THRESHOLDS:

 ZERO    =  1.00D-12  ONEINT  =  1.00D-16  TWOINT  =  1.00D-16  PREFAC  =  1.00D-14  LOCALI  =  1.00D-09  EORDER  =  1.00D-04
 ENERGY  =  1.00D-12  ETEST   =  0.00D+00  EDENS   =  0.00D+00  THRDEDEF=  1.00D-06  GRADIENT=  1.00D-02  STEP    =  1.00D-03
 ORBITAL =  1.00D-10  CIVEC   =  1.00D-05  COEFF   =  1.00D-04  PRINTCI =  5.00D-02  PUNCHCI =  9.90D+01  OPTGRAD =  1.00D-06
 OPTENERG=  1.00D-06  OPTSTEP =  3.00D-04  THRGRAD =  1.00D-10  COMPRESS=  1.00D-13  VARMIN  =  1.00D-07  VARMAX  =  1.00D-03
 THRDOUB =  0.00D+00  THRDIV  =  1.00D-05  THRRED  =  1.00D-07  THRPSP  =  1.00D+00  THRDC   =  1.00D-10  THRCS   =  1.00D-10
 THRNRM  =  1.00D-08  THREQ   =  0.00D+00  THRDE   =  1.00D+00  THRREF  =  1.00D-05  SPARFAC =  1.00D+00  THRDLP  =  1.00D-07
 THRDIA  =  1.00D-10  THRDLS  =  1.00D-07  THRGPS  =  0.00D+00  THRKEX  =  0.00D+00  THRDIS  =  2.00D-01  THRVAR  =  1.00D-10
 THRLOC  =  1.00D-06  THRGAP  =  1.00D-06  THRLOCT = -1.00D+00  THRGAPT = -1.00D+00  THRORB  =  1.00D-06  THRMLTP =  0.00D+00
 THRCPQCI=  1.00D-10  KEXTA   =  0.00D+00  THRCOARS=  0.00D+00  SYMTOL  =  1.00D-06  GRADTOL =  1.00D-06  THROVL  =  1.00D-08
 THRORTH =  1.00D-08  GRID    =  1.00D-06  GRIDMAX =  1.00D-03  DTMAX   =  0.00D+00

 SETTING GEOMTYP        =    XYZ
 ZUNIT=BOHR
 

 Variable memory set to 1000000000 words,  buffer space   230000 words

 SETTING BASIS          =    VDZ


 Recomputing integrals since basis changed


 Using spherical harmonics

 Library entry H      S cc-pVDZ              selected for orbital group  1
 Library entry H      P cc-pVDZ              selected for orbital group  1
 Library entry C      S cc-pVDZ              selected for orbital group  2
 Library entry C      P cc-pVDZ              selected for orbital group  2
 Library entry C      D cc-pVDZ              selected for orbital group  2

1PROGRAM * SEWARD (Integral evaluation for generally contracted gaussian basis sets)     Author: Roland Lindh, 1990

 Geometry written to block  1 of record 700


 Point group  D2  



 ATOMIC COORDINATES

 NR  ATOM    CHARGE       X              Y              Z

   1  H       1.00    4.096779065    0.000000000   -1.650330586
   2  H       1.00   -4.096779065    0.000000000   -1.650330586
   3  H       1.00    4.096779065    0.000000000    1.650330586
   4  H       1.00   -4.096779065    0.000000000    1.650330586
   5  C       6.00    2.841081455    0.000000000    0.000000000
   6  C       6.00   -2.841081455    0.000000000    0.000000000
   7  C       6.00   -1.265111395    2.367356323    0.000000000
   8  C       6.00   -1.265111395   -2.367356323    0.000000000
   9  C       6.00    1.265111395   -2.367356323    0.000000000
  10  C       6.00    1.265111395    2.367356323    0.000000000
  11  H       1.00   -2.268413059    4.156092604    0.010254587
  12  H       1.00    2.268413059    4.156092604   -0.010254587
  13  H       1.00    2.268413059   -4.156092604    0.010254587
  14  H       1.00   -2.268413059   -4.156092604   -0.010254587

 Bond lengths in Bohr (Angstrom)

 1-5  2.073732753  2-6  2.073732753  3-5  2.073732753  4-6  2.073732753  5-9  2.843951053
     ( 1.097372110)     ( 1.097372110)     ( 1.097372110)     ( 1.097372110)     ( 1.504954081)

  5-10  2.843951053   6- 7  2.843951053   6- 8  2.843951053   7-10  2.530222790   7-11  2.050925857
       ( 1.504954081)       ( 1.504954081)       ( 1.504954081)       ( 1.338936234)       ( 1.085303221)

  8- 9  2.530222790   8-14  2.050925857   9-13  2.050925857  10-12  2.050925857
       ( 1.338936234)       ( 1.085303221)       ( 1.085303221)       ( 1.085303221)

 Bond angles

  1- 5- 3  105.46669949   1- 5- 9  109.60602810   1- 5-10  109.60602810   2- 6- 4  105.46669949

  2- 6- 7  109.60602810   2- 6- 8  109.60602810   3- 5- 9  109.60602810   3- 5-10  109.60602810

  4- 6- 7  109.60602810   4- 6- 8  109.60602810   5- 9- 8  123.65205776   5- 9-13  117.05952204

  5-10- 7  123.65205776   5-10-12  117.05952204   6- 7-10  123.65205776   6- 7-11  117.05952204

  6- 8- 9  123.65205776   6- 8-14  117.05952204   7- 6- 8  112.69588448   7-10-12  119.28765262

  8- 9-13  119.28765262   9- 5-10  112.69588448   9- 8-14  119.28765262  10- 7-11  119.28765262

 NUCLEAR CHARGE:                   44
 NUMBER OF PRIMITIVE AOS:         218
 NUMBER OF SYMMETRY AOS:          212
 NUMBER OF CONTRACTIONS:          124   (  32A   +  32B3  +  30B2  +  30B1  )
 NUMBER OF CORE ORBITALS:           6   (   2A   +   2B3  +   1B2  +   1B1  )
 NUMBER OF VALENCE ORBITALS:       32   (   8A   +   8B3  +   8B2  +   8B1  )


 NUCLEAR REPULSION ENERGY  217.77026510


 Eigenvalues of metric

         1 0.345E-02 0.183E-01 0.275E-01 0.392E-01 0.436E-01 0.796E-01 0.990E-01 0.103E+00
         2 0.670E-03 0.315E-02 0.164E-01 0.259E-01 0.320E-01 0.456E-01 0.556E-01 0.646E-01
         3 0.563E-02 0.226E-01 0.257E-01 0.360E-01 0.366E-01 0.535E-01 0.767E-01 0.124E+00
         4 0.169E-02 0.432E-02 0.143E-01 0.312E-01 0.356E-01 0.381E-01 0.605E-01 0.861E-01


 Contracted 2-electron integrals neglected if value below      1.0D-16
 AO integral compression algorithm  1   Integral accuracy      1.0D-16

     64.225 MB (compressed) written to integral file ( 74.1%)

     Node minimum: 64.225 MB, node maximum: 64.225 MB


 NUMBER OF SORTED TWO-ELECTRON INTEGRALS:    7692069.     BUFFER LENGTH:  32768
 NUMBER OF SEGMENTS:   1  SEGMENT LENGTH:    7692069      RECORD LENGTH: 524288

 Memory used in sort:       8.25 MW

 SORT1 READ    10793040. AND WROTE     5822735. INTEGRALS IN     17 RECORDS. CPU TIME:     0.15 SEC, REAL TIME:     0.18 SEC
 SORT2 READ     5822735. AND WROTE     7692069. INTEGRALS IN    245 RECORDS. CPU TIME:     0.12 SEC, REAL TIME:     0.15 SEC

 FILE SIZES:   FILE 1:    50.3 MBYTE,  FILE 4:    71.3 MBYTE,   TOTAL:    121.7 MBYTE

 OPERATOR DM      FOR CENTER  0  COORDINATES:    0.000000    0.000000    0.000000


 **********************************************************************************************************************************
 DATASETS  * FILE   NREC   LENGTH (MB)   RECORD NAMES
              1      19       50.37       500      610      700      900      950      970     1000      129      960     1100   
                                          VAR    BASINP    GEOM    SYMINP    ZMAT    AOBASIS   BASIS     P2S    ABASIS      S 
                                         1400     1410     1200     1210     1080     1600     1650     1300     1700   
                                           T        V       H0       H01     AOSYM     SMH    MOLCAS    ERIS     OPER   

 PROGRAMS   *        TOTAL       INT
 CPU TIMES  *         2.19      2.15
 REAL TIME  *         2.47 SEC
 DISK USED  *       186.82 MB      
 GA USED    *         0.00 MB       (max)       0.00 MB       (current)
 **********************************************************************************************************************************

1PROGRAM * RHF-SCF (CLOSED SHELL)       Authors: W. Meyer, H.-J. Werner


 NUMBER OF ELECTRONS:      22+   22-
 CONVERGENCE THRESHOLDS:    1.00E-10 (Density)    1.00E-13 (Energy)
 MAX. NUMBER OF ITERATIONS:      200
 INTERPOLATION TYPE:            DIIS
 INTERPOLATION STEPS:              2 (START)      1 (STEP)
 LEVEL SHIFTS:                  0.00 (CLOSED)  0.00 (OPEN) 



 Orbital guess generated from atomic densities. Full valence occupancy:   10  10   9   9

 Molecular orbital dump at record        2100.2

 Initial alpha occupancy:   6   6   5   5
 Initial beta  occupancy:   6   6   5   5
 Wave function symmetry:    1

 ITERATION    DDIFF          GRAD             ENERGY        2-EL.EN.            DIPOLE MOMENTS         DIIS
    1      0.000D+00      0.000D+00      -231.78152895    590.507782    0.00000    0.00000    0.00000    0
    2      0.000D+00      0.895D-02      -231.84387190    585.654953    0.00000    0.00000    0.00000    1
    3      0.182D-01      0.351D-02      -231.85141629    587.977673    0.00000    0.00000    0.00000    2
    4      0.673D-02      0.120D-02      -231.85265724    587.367478    0.00000    0.00000    0.00000    3
    5      0.251D-02      0.122D-03      -231.85267553    587.372539    0.00000    0.00000    0.00000    4
    6      0.460D-03      0.260D-04      -231.85267613    587.369458    0.00000    0.00000    0.00000    5
    7      0.642D-04      0.865D-05      -231.85267619    587.370499    0.00000    0.00000    0.00000    6
    8      0.248D-04      0.170D-05      -231.85267619    587.370382    0.00000    0.00000    0.00000    7
    9      0.586D-05      0.347D-06      -231.85267619    587.370420    0.00000    0.00000    0.00000    6
   10      0.130D-05      0.725D-07      -231.85267619    587.370413    0.00000    0.00000    0.00000    6
   11      0.278D-06      0.111D-07      -231.85267619    587.370416    0.00000    0.00000    0.00000    6
   12      0.318D-07      0.312D-08      -231.85267619    587.370414    0.00000    0.00000    0.00000    6
   13      0.892D-08      0.123D-08      -231.85267619    587.370415    0.00000    0.00000    0.00000    6
   14      0.277D-08      0.459D-09      -231.85267619    587.370415    0.00000    0.00000    0.00000    7
   15      0.133D-08      0.130D-09      -231.85267619    587.370415    0.00000    0.00000    0.00000    7
   16      0.340D-09      0.492D-10      -231.85267619    587.370415    0.00000    0.00000    0.00000    7
   17      0.121D-09      0.120D-10      -231.85267619    587.370415    0.00000    0.00000    0.00000    7
   18      0.371D-10      0.185D-11      -231.85267619    587.370415    0.00000    0.00000    0.00000    0

 Final occupancy:   6   6   5   5

 !RHF STATE 1.1 Energy               -231.852676189590
 Nuclear energy                       217.77026510
 One-electron energy                 -743.30814866
 Two-electron energy                  293.68520737
 Virial quotient                       -1.00115172
 !RHF STATE 1.1 Dipole moment           0.00000000     0.00000000     0.00000000
 Dipole moment /Debye                   0.00000000     0.00000000     0.00000000

 Orbital energies:

         1.1          2.1          3.1          4.1          5.1          6.1          7.1          8.1
    -11.233753   -11.229157    -1.122189    -0.861795    -0.678178    -0.490344     0.174453     0.180791

         1.2          2.2          3.2          4.2          5.2          6.2          7.2          8.2
    -11.233754   -11.227554    -1.004928    -0.654327    -0.531318    -0.358782     0.217664     0.278717

         1.3          2.3          3.3          4.3          5.3          6.3          7.3
    -11.229217    -1.008368    -0.597573    -0.562474    -0.561464     0.193712     0.223646

         1.4          2.4          3.4          4.4          5.4          6.4          7.4
    -11.227588    -0.784611    -0.595870    -0.445775    -0.329846     0.256735     0.258037


 **********************************************************************************************************************************
 DATASETS  * FILE   NREC   LENGTH (MB)   RECORD NAMES
              1      19       50.37       500      610      700      900      950      970     1000      129      960     1100   
                                          VAR    BASINP    GEOM    SYMINP    ZMAT    AOBASIS   BASIS     P2S    ABASIS      S 
                                         1400     1410     1200     1210     1080     1600     1650     1300     1700   
                                           T        V       H0       H01     AOSYM     SMH    MOLCAS    ERIS     OPER   

              2       3        0.58       700     1000     2100   
                                         GEOM     BASIS     RHF  

 PROGRAMS   *        TOTAL       RHF       INT
 CPU TIMES  *         2.50      0.31      2.15
 REAL TIME  *         2.86 SEC
 DISK USED  *       186.82 MB      
 GA USED    *         0.00 MB       (max)       0.00 MB       (current)
 **********************************************************************************************************************************


1PROGRAM * CCSD (Closed-shell coupled cluster)     Authors: C. Hampel, H.-J. Werner, 1991, M. Deegan, P.J. Knowles, 1992


 Convergence thresholds:  THRVAR = 1.00D-08  THRDEN = 1.00D-12

 CCSD(T)     terms to be evaluated (factor= 1.000)


 Number of core orbitals:           6 (   2   2   1   1 )
 Number of closed-shell orbitals:  16 (   4   4   4   4 )
 Number of external orbitals:     102 (  26  26  25  25 )

 Molecular orbitals read from record     2100.2  Type=RHF/CANONICAL (state 1.1)

 Number of N-1 electron functions:              16
 Number of N-2 electron functions:             136
 Number of singly external CSFs:               408
 Number of doubly external CSFs:            333744
 Total number of CSFs:                      334153

 Length of J-op  integral file:               0.00 MB
 Length of K-op  integral file:               0.30 MB
 Length of 3-ext integral record:             0.00 MB

 Memory could be reduced to 6.04 Mwords without degradation in triples

 Integral transformation finished. Total CPU:   0.13 sec, npass=  1  Memory used:   2.01 MW

 Reference energy:                   -231.85267619

 MP2 singlet pair energy:              -0.50639895
 MP2 triplet pair energy:              -0.29377547
 MP2 correlation energy:               -0.80017441
 MP2 total energy:                   -232.65285060

 SCS-MP2 correlation energy:           -0.79047236   (PS=  1.200000  PT=  0.333333)
 SCS-MP2 total energy:               -232.64314855

 ITER.      SQ.NORM     CORR.ENERGY   TOTAL ENERGY   ENERGY CHANGE        DEN1      VAR(S)    VAR(P)  DIIS     TIME
   1      1.31821341    -0.85462909  -232.70730528    -0.05445468    -0.03136256  0.31D-02  0.54D-02  1  1     0.45
   2      1.34641503    -0.86045655  -232.71313274    -0.00582746    -0.02421058  0.68D-04  0.70D-03  2  2     0.77
   3      1.35480158    -0.86076880  -232.71344499    -0.00031225    -0.00386588  0.20D-04  0.69D-04  3  3     1.10
   4      1.35834634    -0.86088981  -232.71356600    -0.00012101    -0.00107841  0.10D-05  0.68D-05  4  4     1.43
   5      1.35918145    -0.86090166  -232.71357785    -0.00001185    -0.00017807  0.50D-07  0.65D-06  5  5     1.76
   6      1.35933881    -0.86089400  -232.71357019     0.00000766    -0.00002577  0.49D-08  0.36D-07  6  6     2.09
   7      1.35935422    -0.86089466  -232.71357085    -0.00000067     0.00000109  0.17D-08  0.32D-08  6  2     2.42
   8      1.35935888    -0.86089453  -232.71357072     0.00000014    -0.00000094  0.56D-10  0.35D-09  6  1     2.75
   9      1.35935893    -0.86089460  -232.71357079    -0.00000007     0.00000044  0.18D-10  0.52D-10  6  3     3.08
  10      1.35935886    -0.86089464  -232.71357083    -0.00000004     0.00000016  0.80D-12  0.82D-11  6  4     3.41
  11      1.35935830    -0.86089467  -232.71357086    -0.00000003     0.00000022  0.84D-13  0.11D-11  6  6     3.73
  12      1.35935819    -0.86089467  -232.71357086    -0.00000001     0.00000005  0.19D-13  0.98D-13  6  5     4.06
  13      1.35935819    -0.86089467  -232.71357086     0.00000000    -0.00000000  0.76D-14  0.15D-13  6  2     4.39
  14      1.35935821    -0.86089467  -232.71357086     0.00000000    -0.00000001  0.55D-15  0.13D-14  6  1     4.72
  15      1.35935821    -0.86089467  -232.71357086     0.00000000    -0.00000000  0.17D-15  0.15D-15  6  3     5.06
  16      1.35935821    -0.86089467  -232.71357086     0.00000000    -0.00000000  0.19D-16  0.24D-16  6  4     5.39
  17      1.35935821    -0.86089467  -232.71357086    -0.00000000     0.00000000  0.34D-17  0.38D-17  6  6     5.72
  18      1.35935821    -0.86089467  -232.71357086    -0.00000000     0.00000000  0.23D-18  0.65D-18  6  5     6.05
  19      1.35935821    -0.86089467  -232.71357086     0.00000000     0.00000000  0.29D-19  0.15D-18  6  2     6.38
  20      1.35935821    -0.86089467  -232.71357086     0.00000000    -0.00000000  0.65D-21  0.26D-19  6  1     6.72
  21      1.35935821    -0.86089467  -232.71357086     0.00000000    -0.00000000  0.14D-21  0.18D-20  6  4     7.05
  22      1.35935821    -0.86089467  -232.71357086     0.00000000    -0.00000000  0.16D-22  0.84D-22  6  3     7.38

 Norm of t1 vector:      0.07884325      S-energy:     0.00000000      T1 diagnostic:  0.00985541
                                                                       D1 diagnostic:  0.02885377

 Doubles amplitudes (print threshold =  0.500E-01):

         I         J         SYM. A    SYM. B    A         B      T(IJ, AB)

         8         8         1         1         1         1     -0.07466102
        16        16         3         3         1         1     -0.05813255
        16         8         3         1         1         1     -0.06109388


 Total CPU time for triples:      5.63 sec


 RESULTS
 =======

  Reference energy                   -231.852676189590
  CCSD singlet pair energy             -0.593578417580
  CCSD triplet pair energy             -0.267316253209
  CCSD correlation energy              -0.860894670788

  Triples (T) contribution             -0.032223940284
  Total correlation energy             -0.893118611072

  CCSD total energy                  -232.713570860378
  CCSD[T] energy                     -232.746527945177
  CCSD-T energy                      -232.745476099050
 !CCSD(T) total energy               -232.745794800662

 Timing summary (sec):

 STEP                 CPU(USER)    SYS     CPU(TOT)    WALL
 Transformation          0.14      0.04      0.18      0.19
 CCSD iterations         7.24      0.43      7.67      7.69
 Triples                 5.63      0.20      5.83      5.84

 Program statistics:

 Available memory in ccsd:               999998876
 Min. memory needed in ccsd:                895155
 Max. memory used in ccsd:                 1192763
 Max. memory used in cckext:               1196616 (22 integral passes)



 **********************************************************************************************************************************
 DATASETS  * FILE   NREC   LENGTH (MB)   RECORD NAMES
              1      20       74.14       500      610      700      900      950      970     1000      129      960     1100   
                                          VAR    BASINP    GEOM    SYMINP    ZMAT    AOBASIS   BASIS     P2S    ABASIS      S 
                                         1400     1410     1200     1210     1080     1600     1650     1300     1700     1380   
                                           T        V       H0       H01     AOSYM     SMH    MOLCAS    ERIS     OPER     JKOP   

              2       3        0.58       700     1000     2100   
                                         GEOM     BASIS     RHF  

 PROGRAMS   *        TOTAL   CCSD(T)       RHF       INT
 CPU TIMES  *        15.53     13.03      0.31      2.15
 REAL TIME  *        16.61 SEC
 DISK USED  *       197.70 MB      
 GA USED    *         0.00 MB       (max)       0.00 MB       (current)
 **********************************************************************************************************************************

        CCSD(T)         RHF-SCF 
   -232.74579480   -231.85267619
 **********************************************************************************************************************************
 Variable memory released
