
 Primary working directories    : /tmp/1049102.1587.gen6.q
 Secondary working directories  : /tmp/1049102.1587.gen6.q
 Wavefunction directory         : /home/vulcan/mel64643/wfu/
 Main file repository           : /tmp/1049102.1587.gen6.q/

 ARCHNAME  : Linux/x86_64
 FC        : /opt/intel/compilers_and_libraries_2016.1.150/linux/bin/intel64/ifort
 FCVERSION : 16.0.1
 BLASLIB   : -mkl
 id        : ccgc

 Nodes     nprocs
 n086         1
 ga_uses_ma=false, calling ma_init with nominal heap.
 GA-space will be limited to   8.0 MW (determined by -G option)

 Using customized tuning parameters: mindgm=10; mindgv=16; mindgc=4; mindgr=1; noblas=0; mincuda=1000; minvec=7
 default implementation of scratch files=df  

 ***,Optimization of h2o_3
 memory,1000,m
 gthresh,energy=1.0d-12,orbital=1.0d-10,oneint=1.0d-16,twoint=1.0d-16,optgrad=1.0d-6,compress=1.0d-13
 geomtyp=xyz
 
 
 
 bohr
 geometry = {
  C    0.9111032576    1.4005655059   -2.2728236621
  C    0.7300826164    2.7034930291    0.0187513652
  C    0.9937085343    1.4009677154    2.3026891709
  C    1.4367571394   -1.2045436195    2.2950530755
  C    1.6185031603   -2.5069768826    0.0035203246
  C    1.3549348200   -1.2042276664   -2.2802133104
  H    0.6894444686    2.4076479868   -4.0423644209
  H    0.3794487425    4.7210911474    0.0245637335
  H    0.8399272728    2.4088631425    4.0791845081
  H    1.6466944406   -2.2127570801    4.0657942518
  H    1.9516299316   -4.5280187031   -0.0022867211
  H    1.5016294489   -2.2127784144   -4.0572221367
  N   -5.4433496085   -0.3441016929   -0.0706816974
  H   -5.5951499411   -1.5553687152   -1.5509123637
  H   -6.0724977056   -1.3002994499    1.4691231754
  H   -3.5619347107   -0.0653459010    0.1979023843
 }
 
 basis=aug-cc-pvdz, H=cc-pvdz
 {rhf;maxit,200}
 {ccsd(t)}

 Variables initialized (661), CPU time= 0.01 sec
 Commands  initialized (458), CPU time= 0.00 sec, 486 directives.
 Default parameters read. Elapsed time= 0.04 sec

 Checking input...
 Passed
1


                                         ***  PROGRAM SYSTEM MOLPRO  ***
                         Copyright, University College Cardiff Consultants Limited, 2008

                                    Version 2010.1 linked May 16 2016 07:17:05


 **********************************************************************************************************************************
 LABEL *   Optimization of h2o_3                                                         
 Linux-4.4.3/n086(x86_64) 64 bit mpp version                                             DATE: 21-Mar-24          TIME: 10:20:37  
 **********************************************************************************************************************************

 SHA1:             9e8077add272b0f3cad6f7df79ec5211205f459d
 **********************************************************************************************************************************

 THRESHOLDS:

 ZERO    =  1.00D-12  ONEINT  =  1.00D-16  TWOINT  =  1.00D-16  PREFAC  =  1.00D-14  LOCALI  =  1.00D-09  EORDER  =  1.00D-04
 ENERGY  =  1.00D-12  ETEST   =  0.00D+00  EDENS   =  0.00D+00  THRDEDEF=  1.00D-06  GRADIENT=  1.00D-02  STEP    =  1.00D-03
 ORBITAL =  1.00D-10  CIVEC   =  1.00D-05  COEFF   =  1.00D-04  PRINTCI =  5.00D-02  PUNCHCI =  9.90D+01  OPTGRAD =  1.00D-06
 OPTENERG=  1.00D-06  OPTSTEP =  3.00D-04  THRGRAD =  1.00D-10  COMPRESS=  1.00D-13  VARMIN  =  1.00D-07  VARMAX  =  1.00D-03
 THRDOUB =  0.00D+00  THRDIV  =  1.00D-05  THRRED  =  1.00D-07  THRPSP  =  1.00D+00  THRDC   =  1.00D-10  THRCS   =  1.00D-10
 THRNRM  =  1.00D-08  THREQ   =  0.00D+00  THRDE   =  1.00D+00  THRREF  =  1.00D-05  SPARFAC =  1.00D+00  THRDLP  =  1.00D-07
 THRDIA  =  1.00D-10  THRDLS  =  1.00D-07  THRGPS  =  0.00D+00  THRKEX  =  0.00D+00  THRDIS  =  2.00D-01  THRVAR  =  1.00D-10
 THRLOC  =  1.00D-06  THRGAP  =  1.00D-06  THRLOCT = -1.00D+00  THRGAPT = -1.00D+00  THRORB  =  1.00D-06  THRMLTP =  0.00D+00
 THRCPQCI=  1.00D-10  KEXTA   =  0.00D+00  THRCOARS=  0.00D+00  SYMTOL  =  1.00D-06  GRADTOL =  1.00D-06  THROVL  =  1.00D-08
 THRORTH =  1.00D-08  GRID    =  1.00D-06  GRIDMAX =  1.00D-03  DTMAX   =  0.00D+00

 SETTING GEOMTYP        =    XYZ
 ZUNIT=BOHR
 

 Variable memory set to 1000000000 words,  buffer space   230000 words

 SETTING BASIS          =    AUG-CC-PVDZ,H=CC-PVDZ


 Recomputing integrals since basis changed


 Using spherical harmonics

 Library entry C      S aug-cc-pVDZ          selected for orbital group  1
 Library entry C      P aug-cc-pVDZ          selected for orbital group  1
 Library entry C      D aug-cc-pVDZ          selected for orbital group  1
 Library entry H      S cc-pVDZ              selected for orbital group  2
 Library entry H      P cc-pVDZ              selected for orbital group  2
 Library entry N      S aug-cc-pVDZ          selected for orbital group  3
 Library entry N      P aug-cc-pVDZ          selected for orbital group  3
 Library entry N      D aug-cc-pVDZ          selected for orbital group  3

1PROGRAM * SEWARD (Integral evaluation for generally contracted gaussian basis sets)     Author: Roland Lindh, 1990

 Geometry written to block  1 of record 700


 Point group  C1  



 ATOMIC COORDINATES

 NR  ATOM    CHARGE       X              Y              Z

   1  C       6.00    0.911103258    1.400565506   -2.272823662
   2  C       6.00    0.730082616    2.703493029    0.018751365
   3  C       6.00    0.993708534    1.400967715    2.302689171
   4  C       6.00    1.436757139   -1.204543620    2.295053075
   5  C       6.00    1.618503160   -2.506976883    0.003520325
   6  C       6.00    1.354934820   -1.204227666   -2.280213310
   7  H       1.00    0.689444469    2.407647987   -4.042364421
   8  H       1.00    0.379448742    4.721091147    0.024563734
   9  H       1.00    0.839927273    2.408863142    4.079184508
  10  H       1.00    1.646694441   -2.212757080    4.065794252
  11  H       1.00    1.951629932   -4.528018703   -0.002286721
  12  H       1.00    1.501629449   -2.212778414   -4.057222137
  13  N       7.00   -5.443349609   -0.344101693   -0.070681697
  14  H       1.00   -5.595149941   -1.555368715   -1.550912364
  15  H       1.00   -6.072497706   -1.300299450    1.469123175
  16  H       1.00   -3.561934711   -0.065345901    0.197902384

 Bond lengths in Bohr (Angstrom)

 1-2  2.642291564  1-6  2.642345271  1-7  2.048077694  2-3  2.642431213  2-8  2.047847666
     ( 1.398240475)     ( 1.398268896)     ( 1.083796038)     ( 1.398314374)     ( 1.083674312)

  3- 4  2.642922567   3- 9  2.048276727   4- 5  2.642061008   4-10  2.048436566   5- 6  2.642359382
       ( 1.398574387)       ( 1.083901362)       ( 1.398118470)       ( 1.083985945)       ( 1.398276363)

  5-11  2.048320582   6-12  2.048524907  13-14  1.918669843  13-15  1.918629856  13-16  1.920823838
       ( 1.083924569)       ( 1.084032693)       ( 1.015316352)       ( 1.015295192)       ( 1.016456198)

 Bond angles

  1- 2- 3  119.98067327   1- 2- 8  120.00085905   1- 6- 5  120.02353389   1- 6-12  119.98594787

  2-1-6  120.00199010   2-1-7  119.96266937   2-3-4  120.01167807   2-3-9  119.97359622

  3- 2- 8  120.01816260   3- 4- 5  120.00136421   3- 4-10  119.99355843   4- 3- 9  120.01298760

  4- 5- 6  119.98073254   4- 5-11  120.00280719   5- 4-10  120.00462328   5- 6-12  119.99013166

  6- 1- 7  120.03277199   6- 5-11  120.01529323  14-13-15  106.17607568  14-13-16  106.08043224

 15-13-16  106.33745561

 NUCLEAR CHARGE:                   52
 NUMBER OF PRIMITIVE AOS:         322
 NUMBER OF SYMMETRY AOS:          308
 NUMBER OF CONTRACTIONS:          206   ( 206A   )
 NUMBER OF CORE ORBITALS:           7   (   7A   )
 NUMBER OF VALENCE ORBITALS:       37   (  37A   )


 NUCLEAR REPULSION ENERGY  273.71678013


 Eigenvalues of metric

         1 0.861E-05 0.184E-04 0.228E-04 0.532E-04 0.643E-04 0.644E-04 0.107E-03 0.107E-03


 Contracted 2-electron integrals neglected if value below      1.0D-16
 AO integral compression algorithm  1   Integral accuracy      1.0D-16

     1892.418 MB (compressed) written to integral file ( 94.5%)

     Node minimum: 1892.418 MB, node maximum: 1892.418 MB


 NUMBER OF SORTED TWO-ELECTRON INTEGRALS:  227303181.     BUFFER LENGTH:  32768
 NUMBER OF SEGMENTS:  15  SEGMENT LENGTH:   15999503      RECORD LENGTH: 524288

 Memory used in sort:      16.56 MW

 SORT1 READ   250229617. AND WROTE   226407392. INTEGRALS IN    654 RECORDS. CPU TIME:     2.18 SEC, REAL TIME:     3.91 SEC
 SORT2 READ   226407392. AND WROTE   227303181. INTEGRALS IN   7219 RECORDS. CPU TIME:     1.51 SEC, REAL TIME:     2.35 SEC

 FILE SIZES:   FILE 1:  1743.2 MBYTE,  FILE 4:  2743.1 MBYTE,   TOTAL:   4486.3 MBYTE

 OPERATOR DM      FOR CENTER  0  COORDINATES:    0.000000    0.000000    0.000000


 **********************************************************************************************************************************
 DATASETS  * FILE   NREC   LENGTH (MB)   RECORD NAMES
              1      19     1743.73       500      610      700      900      950      970     1000      129      960     1100   
                                          VAR    BASINP    GEOM    SYMINP    ZMAT    AOBASIS   BASIS     P2S    ABASIS      S 
                                         1400     1410     1200     1210     1080     1600     1650     1300     1700   
                                           T        V       H0       H01     AOSYM     SMH    MOLCAS    ERIS     OPER   

 PROGRAMS   *        TOTAL       INT
 CPU TIMES  *        12.69     12.65
 REAL TIME  *        16.26 SEC
 DISK USED  *         6.38 GB      
 GA USED    *         0.01 MB       (max)       0.00 MB       (current)
 **********************************************************************************************************************************

1PROGRAM * RHF-SCF (CLOSED SHELL)       Authors: W. Meyer, H.-J. Werner


 NUMBER OF ELECTRONS:      26+   26-    SPACE SYMMETRY=1    SPIN SYMMETRY: Singlet 
 CONVERGENCE THRESHOLDS:    1.00E-10 (Density)    1.00E-13 (Energy)
 MAX. NUMBER OF ITERATIONS:      200
 INTERPOLATION TYPE:            DIIS
 INTERPOLATION STEPS:              2 (START)      1 (STEP)
 LEVEL SHIFTS:                  0.00 (CLOSED)  0.00 (OPEN) 



 Orbital guess generated from atomic densities. Full valence occupancy:   44

 Molecular orbital dump at record        2100.2

 ITERATION    DDIFF          GRAD             ENERGY        2-EL.EN.            DIPOLE MOMENTS         DIIS
    1      0.000D+00      0.000D+00      -286.85322943    740.896062    0.51789   -0.76904    0.13638    0
    2      0.000D+00      0.322D-02      -286.92078755    735.106395    0.43389   -0.38557    0.06238    1
    3      0.826D-02      0.133D-02      -286.93011369    737.737684    0.45030   -0.52374    0.09247    2
    4      0.217D-02      0.381D-03      -286.93133152    737.218029    0.44884   -0.49725    0.08468    3
    5      0.783D-03      0.526D-04      -286.93135532    737.206784    0.45467   -0.50724    0.08866    4
    6      0.135D-03      0.176D-04      -286.93135774    737.221688    0.45350   -0.50180    0.08656    5
    7      0.511D-04      0.553D-05      -286.93135801    737.218588    0.45416   -0.50401    0.08732    6
    8      0.150D-04      0.129D-05      -286.93135803    737.217589    0.45431   -0.50365    0.08718    7
    9      0.419D-05      0.543D-06      -286.93135803    737.218047    0.45434   -0.50375    0.08721    7
   10      0.149D-05      0.144D-06      -286.93135804    737.217996    0.45435   -0.50375    0.08721    7
   11      0.523D-06      0.421D-07      -286.93135804    737.217982    0.45436   -0.50375    0.08721    7
   12      0.148D-06      0.182D-07      -286.93135804    737.217996    0.45436   -0.50375    0.08721    8
   13      0.654D-07      0.814D-08      -286.93135804    737.217990    0.45436   -0.50375    0.08721    8
   14      0.376D-07      0.382D-08      -286.93135804    737.217993    0.45436   -0.50375    0.08721    8
   15      0.215D-07      0.141D-08      -286.93135804    737.217992    0.45436   -0.50375    0.08721    8
   16      0.722D-08      0.461D-09      -286.93135804    737.217992    0.45436   -0.50375    0.08721    9
   17      0.214D-08      0.125D-09      -286.93135804    737.217992    0.45436   -0.50375    0.08721    9
   18      0.424D-09      0.393D-10      -286.93135804    737.217992    0.45436   -0.50375    0.08721    8
   19      0.240D-09      0.166D-10      -286.93135804    737.217992    0.45436   -0.50375    0.08721    9
   20      0.182D-09      0.882D-11      -286.93135804    737.217992    0.45436   -0.50375    0.08721    9
   21      0.175D-09      0.422D-11      -286.93135804    737.217992    0.45436   -0.50375    0.08721    9
   22      0.177D-09      0.132D-11      -286.93135804    737.217992    0.45436   -0.50375    0.08721    9
   23      0.140D-09      0.802D-12      -286.93135804    737.217992    0.45436   -0.50375    0.08721    9
   24      0.125D-09      0.655D-12      -286.93135804    737.217992    0.45436   -0.50375    0.08721    9
   25      0.760D-10      0.559D-12      -286.93135804    737.217992    0.45436   -0.50375    0.08721    9
   26      0.388D-10      0.521D-12      -286.93135804    737.217992    0.45436   -0.50375    0.08721    0

 Final occupancy:  26

 !RHF STATE 1.1 Energy               -286.931358035443
 Nuclear energy                       273.71678013
 One-electron energy                 -929.25713415
 Two-electron energy                  368.60899599
 Virial quotient                       -1.00146468
 !RHF STATE 1.1 Dipole moment           0.45435579    -0.50375150     0.08720553
 Dipole moment /Debye                   1.15478160    -1.28032474     0.22163984

 Orbital energies:

         1.1          2.1          3.1          4.1          5.1          6.1          7.1          8.1          9.1         10.1
    -15.534998   -11.250629   -11.250023   -11.249662   -11.248799   -11.248651   -11.247817    -1.157499    -1.125562    -1.022050

        11.1         12.1         13.1         14.1         15.1         16.1         17.1         18.1         19.1         20.1
     -1.021945    -0.830630    -0.830532    -0.714492    -0.650447    -0.623914    -0.611713    -0.609822    -0.593569    -0.593444

        21.1         22.1         23.1         24.1         25.1         26.1         27.1         28.1
     -0.504880    -0.500095    -0.500016    -0.413425    -0.342971    -0.341988     0.063899     0.066423


 **********************************************************************************************************************************
 DATASETS  * FILE   NREC   LENGTH (MB)   RECORD NAMES
              1      19     1743.73       500      610      700      900      950      970     1000      129      960     1100   
                                          VAR    BASINP    GEOM    SYMINP    ZMAT    AOBASIS   BASIS     P2S    ABASIS      S 
                                         1400     1410     1200     1210     1080     1600     1650     1300     1700   
                                           T        V       H0       H01     AOSYM     SMH    MOLCAS    ERIS     OPER   

              2       3        1.40       700     1000     2100   
                                         GEOM     BASIS     RHF  

 PROGRAMS   *        TOTAL       RHF       INT
 CPU TIMES  *        51.71     39.01     12.65
 REAL TIME  *        59.44 SEC
 DISK USED  *         6.38 GB      
 GA USED    *         0.01 MB       (max)       0.00 MB       (current)
 **********************************************************************************************************************************


1PROGRAM * CCSD (Closed-shell coupled cluster)     Authors: C. Hampel, H.-J. Werner, 1991, M. Deegan, P.J. Knowles, 1992


 Convergence thresholds:  THRVAR = 1.00D-08  THRDEN = 1.00D-12

 CCSD(T)     terms to be evaluated (factor= 1.000)


 Number of core orbitals:           7 (   7 )
 Number of closed-shell orbitals:  19 (  19 )
 Number of external orbitals:     180 ( 180 )

 Molecular orbitals read from record     2100.2  Type=RHF/CANONICAL (state 1.1)

 Number of N-1 electron functions:              19
 Number of N-2 electron functions:             190
 Number of singly external CSFs:              3420
 Number of doubly external CSFs:           5849910
 Total number of CSFs:                     5853331

 Length of J-op  integral file:               0.00 MB
 Length of K-op  integral file:               2.96 MB
 Length of 3-ext integral record:             0.00 MB

 Memory could be reduced to 140.12 Mwords without degradation in triples

 Integral transformation finished. Total CPU:  10.45 sec, npass=  1  Memory used: 101.90 MW

 Reference energy:                   -286.93135804

 MP2 singlet pair energy:              -0.62063624
 MP2 triplet pair energy:              -0.38984367
 MP2 correlation energy:               -1.01047991
 MP2 total energy:                   -287.94183794

 SCS-MP2 correlation energy:           -0.98733288   (PS=  1.200000  PT=  0.333333)
 SCS-MP2 total energy:               -287.91869092

 ITER.      SQ.NORM     CORR.ENERGY   TOTAL ENERGY   ENERGY CHANGE        DEN1      VAR(S)    VAR(P)  DIIS     TIME
   1      1.38488417    -1.05476821  -287.98612625    -0.04428830    -0.01720961  0.36D-02  0.80D-02  1  1    43.61
   2      1.41439650    -1.06063059  -287.99198862    -0.00586237    -0.02705261  0.63D-04  0.10D-02  2  2    77.12
   3      1.42352771    -1.06072630  -287.99208433    -0.00009571    -0.00464357  0.27D-04  0.84D-04  3  3   110.65
   4      1.42746513    -1.06089505  -287.99225308    -0.00016875    -0.00121415  0.22D-05  0.11D-04  4  4   144.20
   5      1.42867884    -1.06092600  -287.99228404    -0.00003095    -0.00027321  0.27D-06  0.13D-05  5  5   177.80
   6      1.42898145    -1.06091576  -287.99227380     0.00001024    -0.00004348  0.23D-07  0.79D-07  6  6   211.37
   7      1.42902220    -1.06091739  -287.99227543    -0.00000163    -0.00000103  0.35D-08  0.82D-08  6  2   245.00
   8      1.42903139    -1.06091725  -287.99227529     0.00000014    -0.00000117  0.76D-09  0.76D-09  6  1   278.56
   9      1.42903122    -1.06091739  -287.99227542    -0.00000013     0.00000123  0.21D-09  0.92D-10  6  4   312.13
  10      1.42903242    -1.06091740  -287.99227543    -0.00000001    -0.00000018  0.57D-10  0.15D-10  6  3   345.69
  11      1.42903237    -1.06091741  -287.99227545    -0.00000002     0.00000013  0.14D-10  0.37D-11  6  5   379.28
  12      1.42903232    -1.06091742  -287.99227545    -0.00000000     0.00000003  0.15D-11  0.10D-11  6  6   412.86
  13      1.42903215    -1.06091742  -287.99227546    -0.00000000     0.00000006  0.69D-13  0.20D-12  6  2   446.43
  14      1.42903205    -1.06091742  -287.99227546    -0.00000000     0.00000003  0.81D-14  0.40D-13  6  1   479.99
  15      1.42903199    -1.06091742  -287.99227546    -0.00000000     0.00000001  0.89D-15  0.54D-14  6  3   513.57
  16      1.42903197    -1.06091742  -287.99227546    -0.00000000     0.00000000  0.12D-15  0.37D-15  6  4   547.14
  17      1.42903196    -1.06091742  -287.99227546    -0.00000000     0.00000000  0.31D-16  0.44D-16  6  5   580.72
  18      1.42903196    -1.06091742  -287.99227546    -0.00000000     0.00000000  0.82D-17  0.71D-17  6  6   614.31
  19      1.42903196    -1.06091742  -287.99227546    -0.00000000     0.00000000  0.24D-17  0.77D-18  6  2   647.89
  20      1.42903196    -1.06091742  -287.99227546    -0.00000000     0.00000000  0.77D-18  0.19D-18  6  1   681.47
  21      1.42903196    -1.06091742  -287.99227546    -0.00000000     0.00000000  0.29D-18  0.75D-19  6  3   715.01
  22      1.42903196    -1.06091742  -287.99227546    -0.00000000     0.00000000  0.12D-18  0.38D-19  6  4   748.58
  23      1.42903196    -1.06091742  -287.99227546    -0.00000000     0.00000000  0.51D-19  0.20D-19  6  6   782.18

 Norm of t1 vector:      0.08385769      S-energy:    -0.00000000      T1 diagnostic:  0.00961914
                                                                       D1 diagnostic:  0.02618754

 Doubles amplitudes (print threshold =  0.500E-01):

         I         J         SYM. A    SYM. B    A         B      T(IJ, AB)

        18        18         1         1         6         6     -0.05105997
        19        19         1         1         7         7     -0.05455120


 Total CPU time for triples:    679.07 sec


 RESULTS
 =======

  Reference energy                   -286.931358035441
  CCSD singlet pair energy             -0.711158187632
  CCSD triplet pair energy             -0.349759233819
  CCSD correlation energy              -1.060917421452

  Triples (T) contribution             -0.045604714056
  Total correlation energy             -1.106522135508

  CCSD total energy                  -287.992275456893
  CCSD[T] energy                     -288.038750385012
  CCSD-T energy                      -288.037491610095
 !CCSD(T) total energy               -288.037880170949

 Timing summary (sec):

 STEP                 CPU(USER)    SYS     CPU(TOT)    WALL
 Transformation         10.80      0.78     11.58     11.57
 CCSD iterations       771.39     11.54    782.93    783.90
 Triples               679.07     10.60    689.67    689.75

 Program statistics:

 Available memory in ccsd:               999998456
 Min. memory needed in ccsd:              14392275
 Max. memory used in ccsd:                19775697
 Max. memory used in cckext:              16737545 (23 integral passes)



 **********************************************************************************************************************************
 DATASETS  * FILE   NREC   LENGTH (MB)   RECORD NAMES
              1      20     2287.34       500      610      700      900      950      970     1000      129      960     1100   
                                          VAR    BASINP    GEOM    SYMINP    ZMAT    AOBASIS   BASIS     P2S    ABASIS      S 
                                         1400     1410     1200     1210     1080     1600     1650     1300     1700     1380   
                                           T        V       H0       H01     AOSYM     SMH    MOLCAS    ERIS     OPER     JKOP   

              2       3        1.40       700     1000     2100   
                                         GEOM     BASIS     RHF  

 PROGRAMS   *        TOTAL   CCSD(T)       RHF       INT
 CPU TIMES  *      1512.98   1461.27     39.01     12.65
 REAL TIME  *      1544.76 SEC
 DISK USED  *         6.38 GB      
 GA USED    *         0.01 MB       (max)       0.00 MB       (current)
 **********************************************************************************************************************************

        CCSD(T)         RHF-SCF 
   -288.03788017   -286.93135804
 **********************************************************************************************************************************
 Variable memory released
