
 Primary working directories    : /tmp/878919.90.gen5.q
 Secondary working directories  : /tmp/878919.90.gen5.q
 Wavefunction directory         : /home/vulcan/lo21740/wfu/
 Main file repository           : /tmp/878919.90.gen5.q/

 ARCHNAME  : Linux/x86_64
 FC        : /opt/intel/compilers_and_libraries_2016.1.150/linux/bin/intel64/ifort
 FCVERSION : 16.0.1
 BLASLIB   : -mkl
 id        : ccgc

 Nodes     nprocs
 n071         1
 ga_uses_ma=false, calling ma_init with nominal heap.
 GA-space will be limited to   8.0 MW (determined by -G option)

 Using customized tuning parameters: mindgm=10; mindgv=16; mindgc=4; mindgr=1; noblas=0; mincuda=1000; minvec=7
 default implementation of scratch files=df  

 ***,Optimization of formamide
 memory,1000,m
 gthresh,energy=1.0d-12,orbital=1.0d-10,oneint=1.0d-16,twoint=1.0d-16,optgrad=1.0d-6,compress=1.0d-13
 geomtyp=xyz
 
 bohr
 geometry = {
  C   -3.8238065623    0.0867241142   -0.0000036539
  O   -2.7281939321    2.1389577772   -0.0001350831
  N   -2.6790432097   -2.1791741051    0.0002373751
  H   -3.7408101271   -3.7569845274    0.0000032784
  H   -0.7489219695   -2.3041950514   -0.0003552656
  H   -5.9046203849   -0.0186476374    0.0000001236
  C    3.8238065623   -0.0867241142    0.0000036539
  O    2.7281939321   -2.1389577772    0.0001350831
  N    2.6790432097    2.1791741051   -0.0002373751
  H    3.7408101271    3.7569845274   -0.0000032784
  H    0.7489219695    2.3041950514    0.0003552656
  H    5.9046203849    0.0186476374   -0.0000001236
 }
 
 basis=VDZ
 {rhf;maxit,200}
 {ccsd(t);maxit,200}

 Variables initialized (661), CPU time= 0.01 sec
 Commands  initialized (458), CPU time= 0.01 sec, 486 directives.
 Default parameters read. Elapsed time= 0.09 sec

 Checking input...
 Passed
1


                                         ***  PROGRAM SYSTEM MOLPRO  ***
                         Copyright, University College Cardiff Consultants Limited, 2008

                                    Version 2010.1 linked May 16 2016 07:17:05


 **********************************************************************************************************************************
 LABEL *   Optimization of formamide                                                     
 Linux-4.4.3/n071(x86_64) 64 bit mpp version                                             DATE: 22-May-23          TIME: 18:43:40  
 **********************************************************************************************************************************

 SHA1:             9e8077add272b0f3cad6f7df79ec5211205f459d
 **********************************************************************************************************************************

 THRESHOLDS:

 ZERO    =  1.00D-12  ONEINT  =  1.00D-16  TWOINT  =  1.00D-16  PREFAC  =  1.00D-14  LOCALI  =  1.00D-09  EORDER  =  1.00D-04
 ENERGY  =  1.00D-12  ETEST   =  0.00D+00  EDENS   =  0.00D+00  THRDEDEF=  1.00D-06  GRADIENT=  1.00D-02  STEP    =  1.00D-03
 ORBITAL =  1.00D-10  CIVEC   =  1.00D-05  COEFF   =  1.00D-04  PRINTCI =  5.00D-02  PUNCHCI =  9.90D+01  OPTGRAD =  1.00D-06
 OPTENERG=  1.00D-06  OPTSTEP =  3.00D-04  THRGRAD =  1.00D-10  COMPRESS=  1.00D-13  VARMIN  =  1.00D-07  VARMAX  =  1.00D-03
 THRDOUB =  0.00D+00  THRDIV  =  1.00D-05  THRRED  =  1.00D-07  THRPSP  =  1.00D+00  THRDC   =  1.00D-10  THRCS   =  1.00D-10
 THRNRM  =  1.00D-08  THREQ   =  0.00D+00  THRDE   =  1.00D+00  THRREF  =  1.00D-05  SPARFAC =  1.00D+00  THRDLP  =  1.00D-07
 THRDIA  =  1.00D-10  THRDLS  =  1.00D-07  THRGPS  =  0.00D+00  THRKEX  =  0.00D+00  THRDIS  =  2.00D-01  THRVAR  =  1.00D-10
 THRLOC  =  1.00D-06  THRGAP  =  1.00D-06  THRLOCT = -1.00D+00  THRGAPT = -1.00D+00  THRORB  =  1.00D-06  THRMLTP =  0.00D+00
 THRCPQCI=  1.00D-10  KEXTA   =  0.00D+00  THRCOARS=  0.00D+00  SYMTOL  =  1.00D-06  GRADTOL =  1.00D-06  THROVL  =  1.00D-08
 THRORTH =  1.00D-08  GRID    =  1.00D-06  GRIDMAX =  1.00D-03  DTMAX   =  0.00D+00

 SETTING GEOMTYP        =    XYZ
 ZUNIT=BOHR
 

 Variable memory set to 1000000000 words,  buffer space   230000 words

 SETTING BASIS          =    VDZ


 Recomputing integrals since basis changed


 Using spherical harmonics

 Library entry C      S cc-pVDZ              selected for orbital group  1
 Library entry C      P cc-pVDZ              selected for orbital group  1
 Library entry C      D cc-pVDZ              selected for orbital group  1
 Library entry O      S cc-pVDZ              selected for orbital group  2
 Library entry O      P cc-pVDZ              selected for orbital group  2
 Library entry O      D cc-pVDZ              selected for orbital group  2
 Library entry N      S cc-pVDZ              selected for orbital group  3
 Library entry N      P cc-pVDZ              selected for orbital group  3
 Library entry N      D cc-pVDZ              selected for orbital group  3
 Library entry H      S cc-pVDZ              selected for orbital group  4
 Library entry H      P cc-pVDZ              selected for orbital group  4

1PROGRAM * SEWARD (Integral evaluation for generally contracted gaussian basis sets)     Author: Roland Lindh, 1990

 Geometry written to block  1 of record 700


 Point group  Ci  



 ATOMIC COORDINATES

 NR  ATOM    CHARGE       X              Y              Z

   1  C       6.00   -3.823806562    0.086724114   -0.000003654
   2  C       6.00    3.823806562   -0.086724114    0.000003654
   3  O       8.00   -2.728193932    2.138957777   -0.000135083
   4  O       8.00    2.728193932   -2.138957777    0.000135083
   5  N       7.00   -2.679043210   -2.179174105    0.000237375
   6  N       7.00    2.679043210    2.179174105   -0.000237375
   7  H       1.00   -3.740810127   -3.756984527    0.000003278
   8  H       1.00    3.740810127    3.756984527   -0.000003278
   9  H       1.00   -0.748921970   -2.304195051   -0.000355266
  10  H       1.00    0.748921970    2.304195051    0.000355266
  11  H       1.00   -5.904620385   -0.018647637    0.000000124
  12  H       1.00    5.904620385    0.018647637   -0.000000124

 Bond lengths in Bohr (Angstrom)

  1- 3  2.326377025   1- 5  2.538656718   1-11  2.083480110   2- 4  2.326377025   2- 6  2.538656718
       ( 1.231065701)       ( 1.343399277)       ( 1.102530190)       ( 1.231065701)       ( 1.343399277)

  2-12  2.083480110   5- 7  1.901797773   5- 9  1.934166123   6- 8  1.901797773   6-10  1.934166123
       ( 1.102530190)       ( 1.006388038)       ( 1.023516631)       ( 1.006388038)       ( 1.023516631)

 Bond angles

  1- 5- 7  119.25839046   1- 5- 9  120.50961578   2- 6- 8  119.25839046   2- 6-10  120.50961578

  3- 1- 5  125.10032785   3- 1-11  120.99509448   4- 2- 6  125.10032785   4- 2-12  120.99509448

  5- 1-11  113.90457763   6- 2-12  113.90457763   7- 5- 9  120.23198462   8- 6-10  120.23198462

 NUCLEAR CHARGE:                   48
 NUMBER OF PRIMITIVE AOS:         204
 NUMBER OF SYMMETRY AOS:          198
 NUMBER OF CONTRACTIONS:          114   (  57Ag  +  57Au  )
 NUMBER OF CORE ORBITALS:           6   (   3Ag  +   3Au  )
 NUMBER OF VALENCE ORBITALS:       30   (  15Ag  +  15Au  )


 NUCLEAR REPULSION ENERGY  230.52728585


 Eigenvalues of metric

         1 0.555E-02 0.108E-01 0.153E-01 0.239E-01 0.305E-01 0.407E-01 0.420E-01 0.488E-01
         2 0.570E-02 0.113E-01 0.154E-01 0.242E-01 0.280E-01 0.401E-01 0.413E-01 0.433E-01


 Contracted 2-electron integrals neglected if value below      1.0D-16
 AO integral compression algorithm  1   Integral accuracy      1.0D-16

     90.702 MB (compressed) written to integral file ( 85.6%)

     Node minimum: 90.702 MB, node maximum: 90.702 MB


 NUMBER OF SORTED TWO-ELECTRON INTEGRALS:   10931289.     BUFFER LENGTH:  32768
 NUMBER OF SEGMENTS:   1  SEGMENT LENGTH:   10931289      RECORD LENGTH: 524288

 Memory used in sort:      11.49 MW

 SORT1 READ    13250584. AND WROTE    10930244. INTEGRALS IN     32 RECORDS. CPU TIME:     0.14 SEC, REAL TIME:     0.22 SEC
 SORT2 READ    10930244. AND WROTE    10931289. INTEGRALS IN    346 RECORDS. CPU TIME:     0.16 SEC, REAL TIME:     0.22 SEC

 FILE SIZES:   FILE 1:    79.3 MBYTE,  FILE 4:   134.3 MBYTE,   TOTAL:    213.6 MBYTE

 OPERATOR DM      FOR CENTER  0  COORDINATES:    0.000000    0.000000    0.000000


 **********************************************************************************************************************************
 DATASETS  * FILE   NREC   LENGTH (MB)   RECORD NAMES
              1      19       79.40       500      610      700      900      950      970     1000      129      960     1100   
                                          VAR    BASINP    GEOM    SYMINP    ZMAT    AOBASIS   BASIS     P2S    ABASIS      S 
                                         1400     1410     1200     1210     1080     1600     1650     1300     1700   
                                           T        V       H0       H01     AOSYM     SMH    MOLCAS    ERIS     OPER   

 PROGRAMS   *        TOTAL       INT
 CPU TIMES  *         2.44      2.31
 REAL TIME  *         3.13 SEC
 DISK USED  *       305.13 MB      
 GA USED    *         0.00 MB       (max)       0.00 MB       (current)
 **********************************************************************************************************************************

1PROGRAM * RHF-SCF (CLOSED SHELL)       Authors: W. Meyer, H.-J. Werner


 NUMBER OF ELECTRONS:      24+   24-
 CONVERGENCE THRESHOLDS:    1.00E-10 (Density)    1.00E-13 (Energy)
 MAX. NUMBER OF ITERATIONS:      200
 INTERPOLATION TYPE:            DIIS
 INTERPOLATION STEPS:              2 (START)      1 (STEP)
 LEVEL SHIFTS:                  0.00 (CLOSED)  0.00 (OPEN) 



 Orbital guess generated from atomic densities. Full valence occupancy:   18  18

 Molecular orbital dump at record        2100.2

 Initial alpha occupancy:  12  12
 Initial beta  occupancy:  12  12
 Wave function symmetry:    1

 ITERATION    DDIFF          GRAD             ENERGY        2-EL.EN.            DIPOLE MOMENTS         DIIS
    1      0.000D+00      0.000D+00      -337.77916816    705.469113    0.00000    0.00000    0.00000    0
    2      0.000D+00      0.134D-01      -337.85774353    700.265310    0.00000    0.00000    0.00000    1
    3      0.267D-01      0.953D-02      -337.91339839    702.744015    0.00000    0.00000    0.00000    2
    4      0.103D-01      0.126D-02      -337.91549993    702.728970    0.00000    0.00000    0.00000    3
    5      0.226D-02      0.443D-03      -337.91576736    702.657400    0.00000    0.00000    0.00000    4
    6      0.814D-03      0.147D-03      -337.91583526    702.676451    0.00000    0.00000    0.00000    5
    7      0.378D-03      0.660D-04      -337.91584662    702.671940    0.00000    0.00000    0.00000    6
    8      0.191D-03      0.173D-04      -337.91584732    702.672462    0.00000    0.00000    0.00000    7
    9      0.490D-04      0.442D-05      -337.91584737    702.672049    0.00000    0.00000    0.00000    7
   10      0.137D-04      0.983D-06      -337.91584737    702.672300    0.00000    0.00000    0.00000    7
   11      0.270D-05      0.254D-06      -337.91584737    702.672209    0.00000    0.00000    0.00000    7
   12      0.669D-06      0.876D-07      -337.91584737    702.672215    0.00000    0.00000    0.00000    7
   13      0.191D-06      0.292D-07      -337.91584737    702.672221    0.00000    0.00000    0.00000    7
   14      0.738D-07      0.664D-08      -337.91584737    702.672219    0.00000    0.00000    0.00000    7
   15      0.159D-07      0.145D-08      -337.91584737    702.672220    0.00000    0.00000    0.00000    7
   16      0.333D-08      0.352D-09      -337.91584737    702.672220    0.00000    0.00000    0.00000    7
   17      0.695D-09      0.131D-09      -337.91584737    702.672220    0.00000    0.00000    0.00000    7
   18      0.312D-09      0.291D-10      -337.91584737    702.672220    0.00000    0.00000    0.00000    7
   19      0.757D-10      0.862D-11      -337.91584737    702.672220    0.00000    0.00000    0.00000    7
   20      0.193D-10      0.153D-11      -337.91584737    702.672220    0.00000    0.00000    0.00000    7
   21      0.319D-11      0.528D-12      -337.91584737    702.672220    0.00000    0.00000    0.00000    7
   22      0.123D-11      0.176D-12      -337.91584737    702.672220    0.00000    0.00000    0.00000    7
   23      0.438D-12      0.956D-13      -337.91584737    702.672220    0.00000    0.00000    0.00000    7
   24      0.256D-12      0.365D-13      -337.91584737    702.672220    0.00000    0.00000    0.00000    0

 Final occupancy:  12  12

 !RHF STATE 1.1 Energy               -337.915847370916
 Nuclear energy                       230.52728585
 One-electron energy                 -919.77924304
 Two-electron energy                  351.33610981
 Virial quotient                       -1.00147668
 !RHF STATE 1.1 Dipole moment           0.00000000     0.00000000     0.00000000
 Dipole moment /Debye                   0.00000000     0.00000000     0.00000000

 Orbital energies:

         1.1          2.1          3.1          4.1          5.1          6.1          7.1          8.1          9.1         10.1
    -20.525394   -15.577409   -11.359450    -1.378216    -1.201887    -0.851433    -0.739844    -0.633976    -0.609915    -0.557569

        11.1         12.1         13.1         14.1
     -0.443453    -0.410589     0.186002     0.201368

         1.2          2.2          3.2          4.2          5.2          6.2          7.2          8.2          9.2         10.2
    -20.525393   -15.577408   -11.359450    -1.373440    -1.208090    -0.826106    -0.730972    -0.695561    -0.583480    -0.565074

        11.2         12.2         13.2         14.2
     -0.418424    -0.400979     0.187887     0.194439


 **********************************************************************************************************************************
 DATASETS  * FILE   NREC   LENGTH (MB)   RECORD NAMES
              1      19       79.40       500      610      700      900      950      970     1000      129      960     1100   
                                          VAR    BASINP    GEOM    SYMINP    ZMAT    AOBASIS   BASIS     P2S    ABASIS      S 
                                         1400     1410     1200     1210     1080     1600     1650     1300     1700   
                                           T        V       H0       H01     AOSYM     SMH    MOLCAS    ERIS     OPER   

              2       3        0.59       700     1000     2100   
                                         GEOM     BASIS     RHF  

 PROGRAMS   *        TOTAL       RHF       INT
 CPU TIMES  *         4.04      1.59      2.31
 REAL TIME  *         5.02 SEC
 DISK USED  *       305.13 MB      
 GA USED    *         0.00 MB       (max)       0.00 MB       (current)
 **********************************************************************************************************************************


1PROGRAM * CCSD (Closed-shell coupled cluster)     Authors: C. Hampel, H.-J. Werner, 1991, M. Deegan, P.J. Knowles, 1992


 Convergence thresholds:  THRVAR = 1.00D-08  THRDEN = 1.00D-12

 CCSD(T)     terms to be evaluated (factor= 1.000)


 Number of core orbitals:           6 (   3   3 )
 Number of closed-shell orbitals:  18 (   9   9 )
 Number of external orbitals:      90 (  45  45 )

 Molecular orbitals read from record     2100.2  Type=RHF/CANONICAL (state 1.1)

 Number of N-1 electron functions:              18
 Number of N-2 electron functions:             171
 Number of singly external CSFs:               810
 Number of doubly external CSFs:            656910
 Total number of CSFs:                      657721

 Length of J-op  integral file:               0.00 MB
 Length of K-op  integral file:               0.48 MB
 Length of 3-ext integral record:             0.00 MB

 Memory could be reduced to 9.36 Mwords without degradation in triples

 Integral transformation finished. Total CPU:   0.60 sec, npass=  1  Memory used:   6.56 MW

 Reference energy:                   -337.91584737

 MP2 singlet pair energy:              -0.58973030
 MP2 triplet pair energy:              -0.38318708
 MP2 correlation energy:               -0.97291738
 MP2 total energy:                   -338.88876475

 SCS-MP2 correlation energy:           -0.94610388   (PS=  1.200000  PT=  0.333333)
 SCS-MP2 total energy:               -338.86195125

 ITER.      SQ.NORM     CORR.ENERGY   TOTAL ENERGY   ENERGY CHANGE        DEN1      VAR(S)    VAR(P)  DIIS     TIME
   1      1.29782073    -1.00488406  -338.92073143    -0.03196669    -0.00228607  0.97D-02  0.55D-02  1  1     1.66
   2      1.32274862    -1.00752556  -338.92337293    -0.00264150    -0.02516808  0.22D-03  0.11D-02  2  2     2.74
   3      1.33542898    -1.00850235  -338.92434972    -0.00097679    -0.00561654  0.22D-03  0.47D-04  3  3     3.80
   4      1.34080169    -1.00827285  -338.92412022     0.00022951    -0.00169881  0.20D-04  0.81D-05  4  4     4.86
   5      1.34291702    -1.00820902  -338.92405639     0.00006382    -0.00043587  0.19D-05  0.10D-05  5  5     5.92
   6      1.34338666    -1.00817816  -338.92402553     0.00003086    -0.00004167  0.15D-06  0.13D-06  6  6     6.98
   7      1.34349238    -1.00816840  -338.92401577     0.00000976    -0.00000531  0.14D-07  0.15D-07  6  2     8.04
   8      1.34351041    -1.00816849  -338.92401586    -0.00000008     0.00000000  0.18D-08  0.17D-08  6  1     9.11
   9      1.34351192    -1.00816817  -338.92401554     0.00000031     0.00000150  0.29D-09  0.22D-09  6  4    10.17
  10      1.34351494    -1.00816813  -338.92401551     0.00000004    -0.00000042  0.76D-10  0.20D-10  6  3    11.24
  11      1.34351484    -1.00816821  -338.92401558    -0.00000007     0.00000017  0.15D-10  0.49D-11  6  5    12.30
  12      1.34351464    -1.00816822  -338.92401559    -0.00000002     0.00000008  0.31D-11  0.12D-11  6  6    13.36
  13      1.34351440    -1.00816826  -338.92401563    -0.00000003     0.00000010  0.42D-12  0.19D-12  6  2    14.43
  14      1.34351430    -1.00816826  -338.92401563    -0.00000001     0.00000003  0.80D-13  0.30D-13  6  1    15.50
  15      1.34351428    -1.00816826  -338.92401564    -0.00000000     0.00000000  0.13D-13  0.73D-14  6  4    16.57
  16      1.34351427    -1.00816827  -338.92401564    -0.00000000    -0.00000000  0.33D-14  0.12D-14  6  3    17.63
  17      1.34351426    -1.00816827  -338.92401564    -0.00000000    -0.00000000  0.83D-15  0.18D-15  6  5    18.69
  18      1.34351426    -1.00816827  -338.92401564    -0.00000000     0.00000000  0.62D-16  0.56D-16  6  6    19.76
  19      1.34351426    -1.00816827  -338.92401564    -0.00000000     0.00000000  0.17D-16  0.68D-17  6  2    20.82
  20      1.34351426    -1.00816827  -338.92401564    -0.00000000     0.00000000  0.23D-17  0.11D-17  6  1    21.89
  21      1.34351426    -1.00816827  -338.92401564    -0.00000000     0.00000000  0.25D-18  0.24D-18  6  4    22.97
  22      1.34351426    -1.00816827  -338.92401564     0.00000000     0.00000000  0.83D-19  0.32D-19  6  3    24.05
  23      1.34351426    -1.00816827  -338.92401564    -0.00000000     0.00000000  0.11D-19  0.46D-20  6  5    25.12
  24      1.34351426    -1.00816827  -338.92401564     0.00000000    -0.00000000  0.18D-20  0.11D-20  6  6    26.18
  25      1.34351426    -1.00816827  -338.92401564     0.00000000    -0.00000000  0.49D-21  0.18D-21  6  2    27.24

 Norm of t1 vector:      0.14913965      S-energy:     0.00000000      T1 diagnostic:  0.01757628
                                                                       D1 diagnostic:  0.06229448

 Singles amplitudes (print threshold =  0.500E-01):

         I         SYM. A    A   T(IA)

         7         1         2      0.05872421
        16         2         2      0.05777888


 Total CPU time for triples:     17.71 sec


 RESULTS
 =======

  Reference energy                   -337.915847370916
  CCSD singlet pair energy             -0.668037055357
  CCSD triplet pair energy             -0.340131210417
  CCSD correlation energy              -1.008168265774

  Triples (T) contribution             -0.032270515441
  Total correlation energy             -1.040438781215

  CCSD total energy                  -338.924015636690
  CCSD[T] energy                     -338.959287484110
  CCSD-T energy                      -338.955305931614
 !CCSD(T) total energy               -338.956286152131

 Timing summary (sec):

 STEP                 CPU(USER)    SYS     CPU(TOT)    WALL
 Transformation          0.62      0.08      0.70      0.70
 CCSD iterations        26.62      1.08     27.70     27.79
 Triples                17.71      0.42     18.13     18.13

 Program statistics:

 Available memory in ccsd:               999998604
 Min. memory needed in ccsd:               1741948
 Max. memory used in ccsd:                 2318344
 Max. memory used in cckext:               2485613 (25 integral passes)



 **********************************************************************************************************************************
 DATASETS  * FILE   NREC   LENGTH (MB)   RECORD NAMES
              1      20      119.42       500      610      700      900      950      970     1000      129      960     1100   
                                          VAR    BASINP    GEOM    SYMINP    ZMAT    AOBASIS   BASIS     P2S    ABASIS      S 
                                         1400     1410     1200     1210     1080     1600     1650     1300     1700     1380   
                                           T        V       H0       H01     AOSYM     SMH    MOLCAS    ERIS     OPER     JKOP   

              2       3        0.59       700     1000     2100   
                                         GEOM     BASIS     RHF  

 PROGRAMS   *        TOTAL   CCSD(T)       RHF       INT
 CPU TIMES  *        49.01     44.98      1.59      2.31
 REAL TIME  *        51.67 SEC
 DISK USED  *       323.96 MB      
 GA USED    *         0.00 MB       (max)       0.00 MB       (current)
 **********************************************************************************************************************************

        CCSD(T)         RHF-SCF 
   -338.95628615   -337.91584737
 **********************************************************************************************************************************
 Variable memory released
