
 Primary working directories    : /tmp/917057.536.gen4.q
 Secondary working directories  : /tmp/917057.536.gen4.q
 Wavefunction directory         : /home/vulcan/lo21740/wfu/
 Main file repository           : /tmp/917057.536.gen4.q/

 ARCHNAME  : Linux/x86_64
 FC        : /opt/intel/compilers_and_libraries_2016.1.150/linux/bin/intel64/ifort
 FCVERSION : 16.0.1
 BLASLIB   : -mkl
 id        : ccgc

 Nodes     nprocs
 n026         1
 ga_uses_ma=false, calling ma_init with nominal heap.
 GA-space will be limited to   8.0 MW (determined by -G option)

 Using customized tuning parameters: mindgm=10; mindgv=16; mindgc=4; mindgr=1; noblas=0; mincuda=1000; minvec=7
 default implementation of scratch files=df  

 ***,Optimization of h2o_2
 memory,1000,m
 gthresh,energy=1.0d-12,orbital=1.0d-10,oneint=1.0d-16,twoint=1.0d-16,optgrad=1.0d-6,compress=1.0d-13
 geomtyp=xyz
 
 bohr
 geometry = {
  C    0.0034310147   -3.4204452779   -0.0018281135
  H   -0.9772566475   -2.7328468563   -1.6776908178
  H   -0.9723927430   -2.7300308455    1.6757152068
  H    1.9438948084   -2.7293393775    0.0032065139
  H    0.0049081651   -5.4802558817   -0.0001005373
  C    0.0006686087    3.4170855114    0.0021954833
  H    0.0017684548    5.4768965384    0.0007076991
  H    0.9658388795    2.7312477228   -1.6833692775
  H    0.9717723488    2.7336777435    1.6853374959
  H   -1.9426328896    2.7340107227   -0.0041736527
 }
 
 basis=AVDZ
 {rhf;maxit,200}
 {ccsd(t);maxit,200}

 Variables initialized (661), CPU time= 0.01 sec
 Commands  initialized (458), CPU time= 0.00 sec, 486 directives.
 Default parameters read. Elapsed time= 0.06 sec

 Checking input...
 Passed
1


                                         ***  PROGRAM SYSTEM MOLPRO  ***
                         Copyright, University College Cardiff Consultants Limited, 2008

                                    Version 2010.1 linked May 16 2016 07:17:05


 **********************************************************************************************************************************
 LABEL *   Optimization of h2o_2                                                         
 Linux-4.4.3/n026(x86_64) 64 bit mpp version                                             DATE: 20-Jul-23          TIME: 14:36:27  
 **********************************************************************************************************************************

 SHA1:             9e8077add272b0f3cad6f7df79ec5211205f459d
 **********************************************************************************************************************************

 THRESHOLDS:

 ZERO    =  1.00D-12  ONEINT  =  1.00D-16  TWOINT  =  1.00D-16  PREFAC  =  1.00D-14  LOCALI  =  1.00D-09  EORDER  =  1.00D-04
 ENERGY  =  1.00D-12  ETEST   =  0.00D+00  EDENS   =  0.00D+00  THRDEDEF=  1.00D-06  GRADIENT=  1.00D-02  STEP    =  1.00D-03
 ORBITAL =  1.00D-10  CIVEC   =  1.00D-05  COEFF   =  1.00D-04  PRINTCI =  5.00D-02  PUNCHCI =  9.90D+01  OPTGRAD =  1.00D-06
 OPTENERG=  1.00D-06  OPTSTEP =  3.00D-04  THRGRAD =  1.00D-10  COMPRESS=  1.00D-13  VARMIN  =  1.00D-07  VARMAX  =  1.00D-03
 THRDOUB =  0.00D+00  THRDIV  =  1.00D-05  THRRED  =  1.00D-07  THRPSP  =  1.00D+00  THRDC   =  1.00D-10  THRCS   =  1.00D-10
 THRNRM  =  1.00D-08  THREQ   =  0.00D+00  THRDE   =  1.00D+00  THRREF  =  1.00D-05  SPARFAC =  1.00D+00  THRDLP  =  1.00D-07
 THRDIA  =  1.00D-10  THRDLS  =  1.00D-07  THRGPS  =  0.00D+00  THRKEX  =  0.00D+00  THRDIS  =  2.00D-01  THRVAR  =  1.00D-10
 THRLOC  =  1.00D-06  THRGAP  =  1.00D-06  THRLOCT = -1.00D+00  THRGAPT = -1.00D+00  THRORB  =  1.00D-06  THRMLTP =  0.00D+00
 THRCPQCI=  1.00D-10  KEXTA   =  0.00D+00  THRCOARS=  0.00D+00  SYMTOL  =  1.00D-06  GRADTOL =  1.00D-06  THROVL  =  1.00D-08
 THRORTH =  1.00D-08  GRID    =  1.00D-06  GRIDMAX =  1.00D-03  DTMAX   =  0.00D+00

 SETTING GEOMTYP        =    XYZ
 ZUNIT=BOHR
 

 Variable memory set to 1000000000 words,  buffer space   230000 words

 SETTING BASIS          =    AVDZ


 Recomputing integrals since basis changed


 Using spherical harmonics

 Library entry C      S aug-cc-pVDZ          selected for orbital group  1
 Library entry C      P aug-cc-pVDZ          selected for orbital group  1
 Library entry C      D aug-cc-pVDZ          selected for orbital group  1
 Library entry H      S aug-cc-pVDZ          selected for orbital group  2
 Library entry H      P aug-cc-pVDZ          selected for orbital group  2

1PROGRAM * SEWARD (Integral evaluation for generally contracted gaussian basis sets)     Author: Roland Lindh, 1990

 Geometry written to block  1 of record 700


 Point group  C1  



 ATOMIC COORDINATES

 NR  ATOM    CHARGE       X              Y              Z

   1  C       6.00    0.003431015   -3.420445278   -0.001828114
   2  H       1.00   -0.977256647   -2.732846856   -1.677690818
   3  H       1.00   -0.972392743   -2.730030845    1.675715207
   4  H       1.00    1.943894808   -2.729339378    0.003206514
   5  H       1.00    0.004908165   -5.480255882   -0.000100537
   6  C       6.00    0.000668609    3.417085511    0.002195483
   7  H       1.00    0.001768455    5.476896538    0.000707699
   8  H       1.00    0.965838880    2.731247723   -1.683369277
   9  H       1.00    0.971772349    2.733677743    1.685337496
  10  H       1.00   -1.942632890    2.734010723   -0.004173653

 Bond lengths in Bohr (Angstrom)

 1-2  2.059867880  1-3  2.059867881  1-4  2.059867095  1-5  2.059811858  6-7  2.059811858
     ( 1.090035136)     ( 1.090035136)     ( 1.090034720)     ( 1.090005490)     ( 1.090005490)

  6- 8  2.059867881   6- 9  2.059867881   6-10  2.059867094
       ( 1.090035136)       ( 1.090035136)       ( 1.090034720)

 Bond angles

  2-1-3  108.97461347   2-1-4  109.78478211   2-1-5  109.56223833   3-1-4  109.37963976

  3-1-5  109.56223832   4-1-5  109.56233041   7-6-8  109.39695196   7-6-9  109.39695195

  7- 6-10  109.39704405   8- 6- 9  109.71066544   8- 6-10  109.21435341   9- 6-10  109.71054942

 NUCLEAR CHARGE:                   20
 NUMBER OF PRIMITIVE AOS:         162
 NUMBER OF SYMMETRY AOS:          158
 NUMBER OF CONTRACTIONS:          118   ( 118A   )
 NUMBER OF CORE ORBITALS:           2   (   2A   )
 NUMBER OF VALENCE ORBITALS:       16   (  16A   )


 NUCLEAR REPULSION ENERGY   41.35004812


 Eigenvalues of metric

         1 0.369E-03 0.570E-03 0.576E-03 0.609E-03 0.727E-03 0.730E-03 0.778E-03 0.101E-02


 Contracted 2-electron integrals neglected if value below      1.0D-16
 AO integral compression algorithm  1   Integral accuracy      1.0D-16

     212.861 MB (compressed) written to integral file ( 93.0%)

     Node minimum: 212.861 MB, node maximum: 212.861 MB


 NUMBER OF SORTED TWO-ELECTRON INTEGRALS:   24650731.     BUFFER LENGTH:  32768
 NUMBER OF SEGMENTS:   2  SEGMENT LENGTH:   15997996      RECORD LENGTH: 524288

 Memory used in sort:      16.56 MW

 SORT1 READ    28594353. AND WROTE    24451411. INTEGRALS IN     71 RECORDS. CPU TIME:     0.27 SEC, REAL TIME:     0.44 SEC
 SORT2 READ    24451411. AND WROTE    24650731. INTEGRALS IN    812 RECORDS. CPU TIME:     0.23 SEC, REAL TIME:     0.36 SEC

 FILE SIZES:   FILE 1:   189.6 MBYTE,  FILE 4:   297.8 MBYTE,   TOTAL:    487.5 MBYTE

 OPERATOR DM      FOR CENTER  0  COORDINATES:    0.000000    0.000000    0.000000


 **********************************************************************************************************************************
 DATASETS  * FILE   NREC   LENGTH (MB)   RECORD NAMES
              1      19      189.81       500      610      700      900      950      970     1000      129      960     1100   
                                          VAR    BASINP    GEOM    SYMINP    ZMAT    AOBASIS   BASIS     P2S    ABASIS      S 
                                         1400     1410     1200     1210     1080     1600     1650     1300     1700   
                                           T        V       H0       H01     AOSYM     SMH    MOLCAS    ERIS     OPER   

 PROGRAMS   *        TOTAL       INT
 CPU TIMES  *         1.75      1.69
 REAL TIME  *         2.33 SEC
 DISK USED  *       701.11 MB      
 GA USED    *         0.00 MB       (max)       0.00 MB       (current)
 **********************************************************************************************************************************

1PROGRAM * RHF-SCF (CLOSED SHELL)       Authors: W. Meyer, H.-J. Werner


 NUMBER OF ELECTRONS:      10+   10-    SPACE SYMMETRY=1    SPIN SYMMETRY: Singlet 
 CONVERGENCE THRESHOLDS:    1.00E-10 (Density)    1.00E-13 (Energy)
 MAX. NUMBER OF ITERATIONS:      200
 INTERPOLATION TYPE:            DIIS
 INTERPOLATION STEPS:              2 (START)      1 (STEP)
 LEVEL SHIFTS:                  0.00 (CLOSED)  0.00 (OPEN) 



 Orbital guess generated from atomic densities. Full valence occupancy:   18

 Molecular orbital dump at record        2100.2

 ITERATION    DDIFF          GRAD             ENERGY        2-EL.EN.            DIPOLE MOMENTS         DIIS
    1      0.000D+00      0.000D+00       -80.36231910    134.811985   -0.00311    0.00265   -0.00027    0
    2      0.000D+00      0.368D-02       -80.39421373    132.506067   -0.00074    0.00110   -0.00006    1
    3      0.809D-02      0.137D-02       -80.39818896    133.333778   -0.00121    0.00133   -0.00010    2
    4      0.256D-02      0.371D-03       -80.39877595    133.202952   -0.00104    0.00118   -0.00009    3
    5      0.868D-03      0.458D-04       -80.39878468    133.209848   -0.00102    0.00116   -0.00009    4
    6      0.877D-04      0.295D-05       -80.39878473    133.209685   -0.00102    0.00116   -0.00009    5
    7      0.107D-04      0.223D-06       -80.39878473    133.209667   -0.00102    0.00116   -0.00009    5
    8      0.155D-05      0.353D-07       -80.39878473    133.209667   -0.00102    0.00116   -0.00009    4
    9      0.289D-06      0.586D-08       -80.39878473    133.209668   -0.00102    0.00116   -0.00009    4
   10      0.208D-07      0.112D-08       -80.39878473    133.209668   -0.00102    0.00116   -0.00009    5
   11      0.258D-08      0.243D-09       -80.39878473    133.209668   -0.00102    0.00116   -0.00009    5
   12      0.118D-08      0.722D-10       -80.39878473    133.209668   -0.00102    0.00116   -0.00009    6
   13      0.251D-09      0.159D-10       -80.39878473    133.209668   -0.00102    0.00116   -0.00009    6
   14      0.464D-10      0.445D-11       -80.39878473    133.209668   -0.00102    0.00116   -0.00009    0

 Final occupancy:  10

 !RHF STATE 1.1 Energy                -80.398784727569
 Nuclear energy                        41.35004812
 One-electron energy                 -188.35366665
 Two-electron energy                   66.60483380
 Virial quotient                       -1.00196146
 !RHF STATE 1.1 Dipole moment          -0.00102238     0.00115790    -0.00008522
 Dipole moment /Debye                  -0.00259846     0.00294289    -0.00021659

 Orbital energies:

         1.1          2.1          3.1          4.1          5.1          6.1          7.1          8.1          9.1         10.1
    -11.214645   -11.214597    -0.945562    -0.939582    -0.550616    -0.547249    -0.546185    -0.539714    -0.538574    -0.535274

        11.1         12.1
      0.035477     0.045878


 **********************************************************************************************************************************
 DATASETS  * FILE   NREC   LENGTH (MB)   RECORD NAMES
              1      19      189.81       500      610      700      900      950      970     1000      129      960     1100   
                                          VAR    BASINP    GEOM    SYMINP    ZMAT    AOBASIS   BASIS     P2S    ABASIS      S 
                                         1400     1410     1200     1210     1080     1600     1650     1300     1700   
                                           T        V       H0       H01     AOSYM     SMH    MOLCAS    ERIS     OPER   

              2       3        0.70       700     1000     2100   
                                         GEOM     BASIS     RHF  

 PROGRAMS   *        TOTAL       RHF       INT
 CPU TIMES  *         4.52      2.76      1.69
 REAL TIME  *         5.45 SEC
 DISK USED  *       701.11 MB      
 GA USED    *         0.00 MB       (max)       0.00 MB       (current)
 **********************************************************************************************************************************


1PROGRAM * CCSD (Closed-shell coupled cluster)     Authors: C. Hampel, H.-J. Werner, 1991, M. Deegan, P.J. Knowles, 1992


 Convergence thresholds:  THRVAR = 1.00D-08  THRDEN = 1.00D-12

 CCSD(T)     terms to be evaluated (factor= 1.000)


 Number of core orbitals:           2 (   2 )
 Number of closed-shell orbitals:   8 (   8 )
 Number of external orbitals:     108 ( 108 )

 Molecular orbitals read from record     2100.2  Type=RHF/CANONICAL (state 1.1)

 Number of N-1 electron functions:               8
 Number of N-2 electron functions:              36
 Number of singly external CSFs:               864
 Number of doubly external CSFs:            373680
 Total number of CSFs:                      374545

 Length of J-op  integral file:               0.00 MB
 Length of K-op  integral file:               1.00 MB
 Length of 3-ext integral record:             0.00 MB

 Memory could be reduced to 14.62 Mwords without degradation in triples

 Integral transformation finished. Total CPU:   0.87 sec, npass=  1  Memory used:   8.61 MW

 Reference energy:                    -80.39878473

 MP2 singlet pair energy:              -0.24106969
 MP2 triplet pair energy:              -0.09676344
 MP2 correlation energy:               -0.33783313
 MP2 total energy:                    -80.73661786

 SCS-MP2 correlation energy:           -0.34949199   (PS=  1.200000  PT=  0.333333)
 SCS-MP2 total energy:                -80.74827672

 ITER.      SQ.NORM     CORR.ENERGY   TOTAL ENERGY   ENERGY CHANGE        DEN1      VAR(S)    VAR(P)  DIIS     TIME
   1      1.14044206    -0.38148441   -80.78026914    -0.04365129    -0.03251853  0.70D-03  0.24D-02  1  1     2.03
   2      1.15349168    -0.38424001   -80.78302474    -0.00275560    -0.01269442  0.16D-04  0.11D-03  2  2     3.24
   3      1.15560442    -0.38437276   -80.78315748    -0.00013274    -0.00113063  0.25D-05  0.71D-05  3  3     4.45
   4      1.15605140    -0.38439092   -80.78317564    -0.00001816    -0.00017661  0.10D-06  0.45D-06  4  4     5.67
   5      1.15612241    -0.38438761   -80.78317234     0.00000330    -0.00003210  0.39D-08  0.31D-07  5  5     6.89
   6      1.15612631    -0.38438660   -80.78317133     0.00000101    -0.00000143  0.28D-09  0.20D-08  6  6     8.12
   7      1.15612670    -0.38438682   -80.78317155    -0.00000022    -0.00000002  0.24D-10  0.13D-09  6  1     9.33
   8      1.15612676    -0.38438684   -80.78317157    -0.00000002    -0.00000007  0.24D-11  0.96D-11  6  2    10.54
   9      1.15612671    -0.38438685   -80.78317157    -0.00000000     0.00000003  0.45D-12  0.75D-12  6  3    11.77
  10      1.15612667    -0.38438685   -80.78317157    -0.00000000     0.00000002  0.35D-13  0.66D-13  6  4    12.98
  11      1.15612664    -0.38438685   -80.78317157    -0.00000000     0.00000002  0.33D-14  0.71D-14  6  5    14.20
  12      1.15612663    -0.38438685   -80.78317158    -0.00000000     0.00000001  0.28D-15  0.85D-15  6  6    15.42
  13      1.15612662    -0.38438685   -80.78317158    -0.00000000     0.00000000  0.22D-16  0.10D-15  6  1    16.64
  14      1.15612662    -0.38438685   -80.78317158    -0.00000000     0.00000000  0.25D-17  0.11D-16  6  3    17.85
  15      1.15612662    -0.38438685   -80.78317158    -0.00000000     0.00000000  0.19D-18  0.60D-18  6  2    19.08
  16      1.15612662    -0.38438685   -80.78317158    -0.00000000     0.00000000  0.26D-19  0.46D-19  6  4    20.30
  17      1.15612662    -0.38438685   -80.78317158    -0.00000000     0.00000000  0.31D-20  0.59D-20  6  5    21.52
  18      1.15612662    -0.38438685   -80.78317158    -0.00000000     0.00000000  0.35D-21  0.49D-21  6  6    22.74

 Norm of t1 vector:      0.03916455      S-energy:    -0.00000000      T1 diagnostic:  0.00692338
                                                                       D1 diagnostic:  0.01253584


 Total CPU time for triples:     14.10 sec


 RESULTS
 =======

  Reference energy                    -80.398784727569
  CCSD singlet pair energy             -0.290160885344
  CCSD triplet pair energy             -0.094225962557
  CCSD correlation energy              -0.384386847902

  Triples (T) contribution             -0.009220321838
  Total correlation energy             -0.393607169740

  CCSD total energy                   -80.783171575471
  CCSD[T] energy                      -80.792612832650
  CCSD-T energy                       -80.792274663972
 !CCSD(T) total energy                -80.792391897309

 Timing summary (sec):

 STEP                 CPU(USER)    SYS     CPU(TOT)    WALL
 Transformation          0.90      0.07      0.97      0.98
 CCSD iterations        21.84      0.75     22.59     22.64
 Triples                14.10      0.21     14.31     14.31

 Program statistics:

 Available memory in ccsd:               999999644
 Min. memory needed in ccsd:               1156281
 Max. memory used in ccsd:                 1468601
 Max. memory used in cckext:               1135046 (18 integral passes)



 **********************************************************************************************************************************
 DATASETS  * FILE   NREC   LENGTH (MB)   RECORD NAMES
              1      20      236.78       500      610      700      900      950      970     1000      129      960     1100   
                                          VAR    BASINP    GEOM    SYMINP    ZMAT    AOBASIS   BASIS     P2S    ABASIS      S 
                                         1400     1410     1200     1210     1080     1600     1650     1300     1700     1380   
                                           T        V       H0       H01     AOSYM     SMH    MOLCAS    ERIS     OPER     JKOP   

              2       3        0.70       700     1000     2100   
                                         GEOM     BASIS     RHF  

 PROGRAMS   *        TOTAL   CCSD(T)       RHF       INT
 CPU TIMES  *        41.38     36.87      2.76      1.69
 REAL TIME  *        43.42 SEC
 DISK USED  *       701.11 MB      
 GA USED    *         0.00 MB       (max)       0.00 MB       (current)
 **********************************************************************************************************************************

        CCSD(T)         RHF-SCF 
    -80.79239190    -80.39878473
 **********************************************************************************************************************************
 Variable memory released
