
 Primary working directories    : /tmp/985636.1725.gen6.q
 Secondary working directories  : /tmp/985636.1725.gen6.q
 Wavefunction directory         : /home/vulcan/jj04645/wfu/
 Main file repository           : /tmp/985636.1725.gen6.q/

 ARCHNAME  : Linux/x86_64
 FC        : /opt/intel/compilers_and_libraries_2016.1.150/linux/bin/intel64/ifort
 FCVERSION : 16.0.1
 BLASLIB   : -mkl
 id        : ccgc

 Nodes     nprocs
 n075         1
 ga_uses_ma=false, calling ma_init with nominal heap.
 GA-space will be limited to   8.0 MW (determined by -G option)

 Using customized tuning parameters: mindgm=10; mindgv=16; mindgc=4; mindgr=1; noblas=0; mincuda=1000; minvec=7
 default implementation of scratch files=df  

 ***,Optimization of tetrahydrothiopyran
 memory,1000,m
 gthresh,energy=1.0d-12,orbital=1.0d-10,oneint=1.0d-16,twoint=1.0d-16,optgrad=1.0d-6,compress=1.0d-13
 geomtyp=xyz
 
 bohr
 geometry = {
  S    0.3543779929    2.6980644674    0.0009539832
  C   -0.3339414796   -3.3663807430   -0.0023679106
  C   -0.6633149844    0.6697508004   -2.5812455537
  C   -0.6624106277    0.6668202260    2.5812054319
  C    0.4689134574   -1.9820495350   -2.4156258126
  C    0.4697592036   -1.9847901575    2.4121786992
  H   -2.7296561284    0.5735524837   -2.5847642188
  H   -2.7287504297    0.5706175308    2.5853387688
  H   -0.0735353339    1.6253159825   -4.3111851574
  H   -0.0720248359    1.6204209353    4.3120220572
  H    2.5314826317   -1.8375787260   -2.4654286135
  H    2.5310843016   -1.8263399048    2.4702828416
  H   -0.1170395133   -3.0819857353   -4.0676499412
  H   -0.1168404458   -3.0725725344    4.0720023659
  H    0.4597600973   -5.2738863478   -0.0035897963
  H   -2.3965989222   -3.5787801591   -0.0021271436
 }
 
 basis=VDZ
 {rhf;maxit,200}
 {ccsd(t);maxit,200}

 Variables initialized (661), CPU time= 0.00 sec
 Commands  initialized (458), CPU time= 0.00 sec, 486 directives.
 Default parameters read. Elapsed time= 0.05 sec

 Checking input...
 Passed
1


                                         ***  PROGRAM SYSTEM MOLPRO  ***
                         Copyright, University College Cardiff Consultants Limited, 2008

                                    Version 2010.1 linked May 16 2016 07:17:05


 **********************************************************************************************************************************
 LABEL *   Optimization of tetrahydrothiopyran                                           
 Linux-4.4.3/n075(x86_64) 64 bit mpp version                                             DATE: 26-Jan-24          TIME: 19:26:45  
 **********************************************************************************************************************************

 SHA1:             9e8077add272b0f3cad6f7df79ec5211205f459d
 **********************************************************************************************************************************

 THRESHOLDS:

 ZERO    =  1.00D-12  ONEINT  =  1.00D-16  TWOINT  =  1.00D-16  PREFAC  =  1.00D-14  LOCALI  =  1.00D-09  EORDER  =  1.00D-04
 ENERGY  =  1.00D-12  ETEST   =  0.00D+00  EDENS   =  0.00D+00  THRDEDEF=  1.00D-06  GRADIENT=  1.00D-02  STEP    =  1.00D-03
 ORBITAL =  1.00D-10  CIVEC   =  1.00D-05  COEFF   =  1.00D-04  PRINTCI =  5.00D-02  PUNCHCI =  9.90D+01  OPTGRAD =  1.00D-06
 OPTENERG=  1.00D-06  OPTSTEP =  3.00D-04  THRGRAD =  1.00D-10  COMPRESS=  1.00D-13  VARMIN  =  1.00D-07  VARMAX  =  1.00D-03
 THRDOUB =  0.00D+00  THRDIV  =  1.00D-05  THRRED  =  1.00D-07  THRPSP  =  1.00D+00  THRDC   =  1.00D-10  THRCS   =  1.00D-10
 THRNRM  =  1.00D-08  THREQ   =  0.00D+00  THRDE   =  1.00D+00  THRREF  =  1.00D-05  SPARFAC =  1.00D+00  THRDLP  =  1.00D-07
 THRDIA  =  1.00D-10  THRDLS  =  1.00D-07  THRGPS  =  0.00D+00  THRKEX  =  0.00D+00  THRDIS  =  2.00D-01  THRVAR  =  1.00D-10
 THRLOC  =  1.00D-06  THRGAP  =  1.00D-06  THRLOCT = -1.00D+00  THRGAPT = -1.00D+00  THRORB  =  1.00D-06  THRMLTP =  0.00D+00
 THRCPQCI=  1.00D-10  KEXTA   =  0.00D+00  THRCOARS=  0.00D+00  SYMTOL  =  1.00D-06  GRADTOL =  1.00D-06  THROVL  =  1.00D-08
 THRORTH =  1.00D-08  GRID    =  1.00D-06  GRIDMAX =  1.00D-03  DTMAX   =  0.00D+00

 SETTING GEOMTYP        =    XYZ
 ZUNIT=BOHR
 

 Variable memory set to 1000000000 words,  buffer space   230000 words

 SETTING BASIS          =    VDZ


 Recomputing integrals since basis changed


 Using spherical harmonics

 Library entry S      S cc-pVDZ              selected for orbital group  1
 Library entry S      P cc-pVDZ              selected for orbital group  1
 Library entry S      D cc-pVDZ              selected for orbital group  1
 Library entry C      S cc-pVDZ              selected for orbital group  2
 Library entry C      P cc-pVDZ              selected for orbital group  2
 Library entry C      D cc-pVDZ              selected for orbital group  2
 Library entry H      S cc-pVDZ              selected for orbital group  3
 Library entry H      P cc-pVDZ              selected for orbital group  3

1PROGRAM * SEWARD (Integral evaluation for generally contracted gaussian basis sets)     Author: Roland Lindh, 1990

 Geometry written to block  1 of record 700


 Point group  C1  



 ATOMIC COORDINATES

 NR  ATOM    CHARGE       X              Y              Z

   1  S      16.00    0.354377993    2.698064467    0.000953983
   2  C       6.00   -0.333941480   -3.366380743   -0.002367911
   3  C       6.00   -0.663314984    0.669750800   -2.581245554
   4  C       6.00   -0.662410628    0.666820226    2.581205432
   5  C       6.00    0.468913457   -1.982049535   -2.415625813
   6  C       6.00    0.469759204   -1.984790157    2.412178699
   7  H       1.00   -2.729656128    0.573552484   -2.584764219
   8  H       1.00   -2.728750430    0.570617531    2.585338769
   9  H       1.00   -0.073535334    1.625315983   -4.311185157
  10  H       1.00   -0.072024836    1.620420935    4.312022057
  11  H       1.00    2.531482632   -1.837578726   -2.465428613
  12  H       1.00    2.531084302   -1.826339905    2.470282842
  13  H       1.00   -0.117039513   -3.081985735   -4.067649941
  14  H       1.00   -0.116840446   -3.072572534    4.072002366
  15  H       1.00    0.459760097   -5.273886348   -0.003589796
  16  H       1.00   -2.396598922   -3.578780159   -0.002127144

 Bond lengths in Bohr (Angstrom)

  1- 3  3.437660509   1- 4  3.437660513   2- 5  2.895645463   2- 6  2.895645466   2-15  2.066044849
       ( 1.819131594)       ( 1.819131596)       ( 1.532309584)       ( 1.532309586)       ( 1.093303847)

  2-16  2.073564394   3- 5  2.888150994   3- 7  2.068582176   3- 9  2.062434456   4- 6  2.888150998
       ( 1.097283019)       ( 1.528343682)       ( 1.094646543)       ( 1.091393309)       ( 1.528343684)

  4- 8  2.068582176   4-10  2.062434456   5-11  2.068222360   5-13  2.069392242   6-12  2.068222361
       ( 1.094646543)       ( 1.091393309)       ( 1.094456136)       ( 1.095075211)       ( 1.094456136)

  6-14  2.069392242
       ( 1.095075211)

 Bond angles

  1-3-5  112.49558332   1-3-7  108.93154262   1-3-9  105.78484549   1-4-6  112.49558787

  1- 4- 8  108.93154166   1- 4-10  105.78484450   2- 5- 3  112.21281849   2- 5-11  109.26684510

  2- 5-13  109.43309524   2- 6- 4  112.21281312   2- 6-12  109.67040933   2- 6-14  109.83665944

  3- 1- 4   97.33107774   3- 5-11  108.99203297   3- 5-13  109.34449193   4- 6-12  108.58531256

  4- 6-14  108.93777146   5- 2- 6  112.94731778   5- 2-15  109.53488182   5- 2-16  108.95777547

  5- 3- 7  110.42612641   5- 3- 9  111.18611400   6- 2-15  109.53488182   6- 2-16  108.95777547

  6- 4- 8  110.42612554   6- 4-10  111.18611308   7- 3- 9  107.80465654   8- 4-10  107.80465553

 11- 5-13  107.47462340  12- 6-14  107.47304538  15- 2-16  106.71266600

 NUCLEAR CHARGE:                   56
 NUMBER OF PRIMITIVE AOS:         247
 NUMBER OF SYMMETRY AOS:          241
 NUMBER OF CONTRACTIONS:          138   ( 138A   )
 NUMBER OF CORE ORBITALS:          10   (  10A   )
 NUMBER OF VALENCE ORBITALS:       34   (  34A   )


 NUCLEAR REPULSION ENERGY  312.14497267


 Eigenvalues of metric

         1 0.285E-02 0.306E-02 0.427E-02 0.634E-02 0.704E-02 0.151E-01 0.157E-01 0.195E-01


 Contracted 2-electron integrals neglected if value below      1.0D-16
 AO integral compression algorithm  1   Integral accuracy      1.0D-16

     374.079 MB (compressed) written to integral file ( 94.2%)

     Node minimum: 374.079 MB, node maximum: 374.079 MB


 NUMBER OF SORTED TWO-ELECTRON INTEGRALS:   45998436.     BUFFER LENGTH:  32768
 NUMBER OF SEGMENTS:   3  SEGMENT LENGTH:   15998004      RECORD LENGTH: 524288

 Memory used in sort:      16.56 MW

 SORT1 READ    49669998. AND WROTE    45796152. INTEGRALS IN    132 RECORDS. CPU TIME:     0.44 SEC, REAL TIME:     0.69 SEC
 SORT2 READ    45796152. AND WROTE    45998436. INTEGRALS IN   1427 RECORDS. CPU TIME:     0.36 SEC, REAL TIME:     0.52 SEC

 FILE SIZES:   FILE 1:   349.6 MBYTE,  FILE 4:   553.7 MBYTE,   TOTAL:    903.2 MBYTE

 OPERATOR DM      FOR CENTER  0  COORDINATES:    0.000000    0.000000    0.000000


 **********************************************************************************************************************************
 DATASETS  * FILE   NREC   LENGTH (MB)   RECORD NAMES
              1      19      349.80       500      610      700      900      950      970     1000      129      960     1100   
                                          VAR    BASINP    GEOM    SYMINP    ZMAT    AOBASIS   BASIS     P2S    ABASIS      S 
                                         1400     1410     1200     1210     1080     1600     1650     1300     1700   
                                           T        V       H0       H01     AOSYM     SMH    MOLCAS    ERIS     OPER   

 PROGRAMS   *        TOTAL       INT
 CPU TIMES  *         4.32      4.29
 REAL TIME  *         5.12 SEC
 DISK USED  *         1.28 GB      
 GA USED    *         0.01 MB       (max)       0.00 MB       (current)
 **********************************************************************************************************************************

1PROGRAM * RHF-SCF (CLOSED SHELL)       Authors: W. Meyer, H.-J. Werner


 NUMBER OF ELECTRONS:      28+   28-    SPACE SYMMETRY=1    SPIN SYMMETRY: Singlet 
 CONVERGENCE THRESHOLDS:    1.00E-10 (Density)    1.00E-13 (Energy)
 MAX. NUMBER OF ITERATIONS:      200
 INTERPOLATION TYPE:            DIIS
 INTERPOLATION STEPS:              2 (START)      1 (STEP)
 LEVEL SHIFTS:                  0.00 (CLOSED)  0.00 (OPEN) 



 Orbital guess generated from atomic densities. Full valence occupancy:   44

 Molecular orbital dump at record        2100.2

 ITERATION    DDIFF          GRAD             ENERGY        2-EL.EN.            DIPOLE MOMENTS         DIIS
    1      0.000D+00      0.000D+00      -592.64386293   1056.850304   -0.40524   -0.80159    0.00085    0
    2      0.000D+00      0.396D-02      -592.70488097   1054.271469   -0.20833   -0.73829    0.00013    1
    3      0.777D-02      0.132D-02      -592.71081617   1055.704011   -0.27938   -0.67524    0.00016    2
    4      0.269D-02      0.539D-03      -592.71182478   1055.086465   -0.25274   -0.70856    0.00008    3
    5      0.931D-03      0.774D-04      -592.71185052   1055.149559   -0.24879   -0.70010    0.00008    4
    6      0.181D-03      0.267D-04      -592.71185305   1055.118645   -0.25051   -0.70038    0.00009    5
    7      0.504D-04      0.620D-05      -592.71185326   1055.121799   -0.24984   -0.70027    0.00009    6
    8      0.165D-04      0.174D-05      -592.71185328   1055.120937   -0.24983   -0.70013    0.00009    7
    9      0.541D-05      0.455D-06      -592.71185328   1055.120819   -0.24981   -0.70008    0.00009    7
   10      0.127D-05      0.162D-06      -592.71185328   1055.120858   -0.24980   -0.70008    0.00009    7
   11      0.483D-06      0.344D-07      -592.71185328   1055.120843   -0.24981   -0.70008    0.00009    7
   12      0.114D-06      0.691D-08      -592.71185328   1055.120849   -0.24981   -0.70008    0.00009    7
   13      0.183D-07      0.289D-08      -592.71185328   1055.120846   -0.24981   -0.70008    0.00009    7
   14      0.636D-08      0.856D-09      -592.71185328   1055.120847   -0.24981   -0.70008    0.00009    7
   15      0.229D-08      0.281D-09      -592.71185328   1055.120847   -0.24981   -0.70008    0.00009    7
   16      0.676D-09      0.899D-10      -592.71185328   1055.120847   -0.24981   -0.70008    0.00009    8
   17      0.218D-09      0.227D-10      -592.71185328   1055.120847   -0.24981   -0.70008    0.00009    7
   18      0.609D-10      0.847D-11      -592.71185328   1055.120847   -0.24981   -0.70008    0.00009    7
   19      0.273D-10      0.315D-11      -592.71185328   1055.120847   -0.24981   -0.70008    0.00009    8
   20      0.991D-11      0.949D-12      -592.71185328   1055.120847   -0.24981   -0.70008    0.00009    0

 Final occupancy:  28

 !RHF STATE 1.1 Energy               -592.711853283663
 Nuclear energy                       312.14497267
 One-electron energy                -1432.41724937
 Two-electron energy                  527.56042341
 Virial quotient                       -1.00019602
 !RHF STATE 1.1 Dipole moment          -0.24980540    -0.70008173     0.00009174
 Dipole moment /Debye                  -0.63490041    -1.77931371     0.00023317

 Orbital energies:

         1.1          2.1          3.1          4.1          5.1          6.1          7.1          8.1          9.1         10.1
    -91.929881   -11.255066   -11.254902   -11.231070   -11.230964   -11.229099    -8.933766    -6.615660    -6.614227    -6.612026

        11.1         12.1         13.1         14.1         15.1         16.1         17.1         18.1         19.1         20.1
     -1.119611    -1.019934    -1.006511    -0.842380    -0.835824    -0.755852    -0.646755    -0.614272    -0.609727    -0.578483

        21.1         22.1         23.1         24.1         25.1         26.1         27.1         28.1         29.1         30.1
     -0.547399    -0.523635    -0.497364    -0.495559    -0.472580    -0.435002    -0.411864    -0.328786     0.177031     0.190215


 **********************************************************************************************************************************
 DATASETS  * FILE   NREC   LENGTH (MB)   RECORD NAMES
              1      19      349.80       500      610      700      900      950      970     1000      129      960     1100   
                                          VAR    BASINP    GEOM    SYMINP    ZMAT    AOBASIS   BASIS     P2S    ABASIS      S 
                                         1400     1410     1200     1210     1080     1600     1650     1300     1700   
                                           T        V       H0       H01     AOSYM     SMH    MOLCAS    ERIS     OPER   

              2       3        0.92       700     1000     2100   
                                         GEOM     BASIS     RHF  

 PROGRAMS   *        TOTAL       RHF       INT
 CPU TIMES  *        10.56      6.24      4.29
 REAL TIME  *        12.04 SEC
 DISK USED  *         1.28 GB      
 GA USED    *         0.01 MB       (max)       0.00 MB       (current)
 **********************************************************************************************************************************


1PROGRAM * CCSD (Closed-shell coupled cluster)     Authors: C. Hampel, H.-J. Werner, 1991, M. Deegan, P.J. Knowles, 1992


 Convergence thresholds:  THRVAR = 1.00D-08  THRDEN = 1.00D-12

 CCSD(T)     terms to be evaluated (factor= 1.000)


 Number of core orbitals:          10 (  10 )
 Number of closed-shell orbitals:  18 (  18 )
 Number of external orbitals:     110 ( 110 )

 Molecular orbitals read from record     2100.2  Type=RHF/CANONICAL (state 1.1)

 Number of N-1 electron functions:              18
 Number of N-2 electron functions:             171
 Number of singly external CSFs:              1980
 Number of doubly external CSFs:           1961190
 Total number of CSFs:                     1963171

 Length of J-op  integral file:               0.00 MB
 Length of K-op  integral file:               1.35 MB
 Length of 3-ext integral record:             0.00 MB

 Memory could be reduced to 32.58 Mwords without degradation in triples

 Integral transformation finished. Total CPU:   2.04 sec, npass=  1  Memory used:  30.89 MW

 Reference energy:                   -592.71185328

 MP2 singlet pair energy:              -0.53946826
 MP2 triplet pair energy:              -0.30438026
 MP2 correlation energy:               -0.84384852
 MP2 total energy:                   -593.55570180

 SCS-MP2 correlation energy:           -0.83675408   (PS=  1.200000  PT=  0.333333)
 SCS-MP2 total energy:               -593.54860736

 ITER.      SQ.NORM     CORR.ENERGY   TOTAL ENERGY   ENERGY CHANGE        DEN1      VAR(S)    VAR(P)  DIIS     TIME
   1      1.33971548    -0.91082215  -593.62267543    -0.06697363    -0.04301471  0.26D-02  0.55D-02  1  1     9.17
   2      1.36671129    -0.91616951  -593.62802280    -0.00534736    -0.02577660  0.69D-04  0.46D-03  2  2    16.38
   3      1.37204533    -0.91629729  -593.62815057    -0.00012777    -0.00303832  0.16D-04  0.28D-04  3  3    23.60
   4      1.37353850    -0.91635534  -593.62820862    -0.00005805    -0.00059398  0.76D-06  0.20D-05  4  4    30.83
   5      1.37377908    -0.91636195  -593.62821523    -0.00000661    -0.00007083  0.17D-06  0.16D-06  5  5    38.05
   6      1.37382467    -0.91635750  -593.62821079     0.00000445    -0.00001391  0.30D-07  0.14D-07  6  6    45.28
   7      1.37383222    -0.91635739  -593.62821067     0.00000011     0.00000064  0.53D-08  0.23D-08  6  2    52.50
   8      1.37383829    -0.91635708  -593.62821036     0.00000031    -0.00000124  0.73D-09  0.26D-09  6  1    59.75
   9      1.37383911    -0.91635702  -593.62821030     0.00000006     0.00000051  0.65D-10  0.44D-10  6  4    66.98
  10      1.37383999    -0.91635698  -593.62821026     0.00000003    -0.00000011  0.47D-11  0.35D-11  6  3    74.21
  11      1.37384000    -0.91635698  -593.62821027    -0.00000000     0.00000004  0.12D-11  0.54D-12  6  5    81.42
  12      1.37383997    -0.91635699  -593.62821027    -0.00000000     0.00000002  0.17D-12  0.77D-13  6  6    88.64
  13      1.37383992    -0.91635699  -593.62821027    -0.00000000     0.00000002  0.24D-13  0.11D-13  6  1    95.87
  14      1.37383991    -0.91635699  -593.62821027    -0.00000000     0.00000000  0.31D-14  0.12D-14  6  2   103.10
  15      1.37383991    -0.91635699  -593.62821027     0.00000000    -0.00000000  0.67D-15  0.31D-15  6  4   110.33
  16      1.37383991    -0.91635699  -593.62821027     0.00000000    -0.00000000  0.32D-16  0.23D-16  6  5   117.55
  17      1.37383991    -0.91635699  -593.62821027     0.00000000    -0.00000000  0.58D-17  0.24D-17  6  3   124.78
  18      1.37383991    -0.91635699  -593.62821027     0.00000000    -0.00000000  0.14D-17  0.42D-18  6  5   132.00
  19      1.37383991    -0.91635699  -593.62821027     0.00000000    -0.00000000  0.18D-18  0.65D-19  6  6   139.24
  20      1.37383991    -0.91635699  -593.62821027    -0.00000000     0.00000000  0.15D-19  0.66D-20  6  1   146.46
  21      1.37383991    -0.91635699  -593.62821027    -0.00000000     0.00000000  0.24D-20  0.10D-20  6  2   153.70

 Norm of t1 vector:      0.07014484      S-energy:    -0.00000000      T1 diagnostic:  0.00826665
                                                                       D1 diagnostic:  0.02107768


 Total CPU time for triples:    108.07 sec


 RESULTS
 =======

  Reference energy                   -592.711853283663
  CCSD singlet pair energy             -0.634222428605
  CCSD triplet pair energy             -0.282134559003
  CCSD correlation energy              -0.916356987609

  Triples (T) contribution             -0.029870796492
  Total correlation energy             -0.946227784101

  CCSD total energy                  -593.628210271271
  CCSD[T] energy                     -593.658700514346
  CCSD-T energy                      -593.657769800636
 !CCSD(T) total energy               -593.658081067763

 Timing summary (sec):

 STEP                 CPU(USER)    SYS     CPU(TOT)    WALL
 Transformation          2.14      0.21      2.35      2.35
 CCSD iterations       151.57      2.69    154.26    154.37
 Triples               108.07      2.03    110.10    110.13

 Program statistics:

 Available memory in ccsd:               999998604
 Min. memory needed in ccsd:               5123362
 Max. memory used in ccsd:                 6867976
 Max. memory used in cckext:               6836871 (21 integral passes)



 **********************************************************************************************************************************
 DATASETS  * FILE   NREC   LENGTH (MB)   RECORD NAMES
              1      20      486.17       500      610      700      900      950      970     1000      129      960     1100   
                                          VAR    BASINP    GEOM    SYMINP    ZMAT    AOBASIS   BASIS     P2S    ABASIS      S 
                                         1400     1410     1200     1210     1080     1600     1650     1300     1700     1380   
                                           T        V       H0       H01     AOSYM     SMH    MOLCAS    ERIS     OPER     JKOP   

              2       3        0.92       700     1000     2100   
                                         GEOM     BASIS     RHF  

 PROGRAMS   *        TOTAL   CCSD(T)       RHF       INT
 CPU TIMES  *       272.34    261.78      6.24      4.29
 REAL TIME  *       278.94 SEC
 DISK USED  *         1.28 GB      
 GA USED    *         0.01 MB       (max)       0.00 MB       (current)
 **********************************************************************************************************************************

        CCSD(T)         RHF-SCF 
   -593.65808107   -592.71185328
 **********************************************************************************************************************************
 Variable memory released
