
 Primary working directories    : /tmp/1059987.940.gen6.q
 Secondary working directories  : /tmp/1059987.940.gen6.q
 Wavefunction directory         : /home/vulcan/jj04645/wfu/
 Main file repository           : /tmp/1059987.940.gen6.q/

 ARCHNAME  : Linux/x86_64
 FC        : /opt/intel/compilers_and_libraries_2016.1.150/linux/bin/intel64/ifort
 FCVERSION : 16.0.1
 BLASLIB   : -mkl
 id        : ccgc

 Nodes     nprocs
 n091         1
 ga_uses_ma=false, calling ma_init with nominal heap.
 GA-space will be limited to   8.0 MW (determined by -G option)

 Using customized tuning parameters: mindgm=10; mindgv=16; mindgc=4; mindgr=1; noblas=0; mincuda=1000; minvec=7
 default implementation of scratch files=df  

 ***,Optimization of 1_4_cyclohexadiene
 memory,1000,m
 gthresh,energy=1.0d-12,orbital=1.0d-10,oneint=1.0d-16,twoint=1.0d-16,optgrad=1.0d-6,compress=1.0d-13
 geomtyp=xyz
 
 bohr
 geometry = {
  H    4.0991184864    0.0002902933   -1.6494403441
  C    2.8410711094   -0.0017358174   -0.0009015299
  C   -1.2689271396    2.3716330786   -0.0019092385
  C   -1.2612783043   -2.3630695623   -0.0018913039
  C   -2.8410711094    0.0017358174    0.0009015299
  C    1.2689271396   -2.3716330786    0.0019092385
  C    1.2612783043    2.3630695623    0.0018913039
  H   -2.2706533748    4.1612733556   -0.0073036093
  H    2.2661688124    4.1509348926    0.0073225112
  H   -4.1049721177   -0.0003122217   -1.6431536932
  H    2.2706533748   -4.1612733556    0.0073036093
  H   -2.2661688124   -4.1509348926   -0.0073225112
  H    4.1049721177    0.0003122217    1.6431536932
  H   -4.0991184864   -0.0002902933    1.6494403441
 }
 
 basis=VDZ
 {rhf;maxit,200}
 {ccsd(t);maxit,200}

 Variables initialized (661), CPU time= 0.00 sec
 Commands  initialized (458), CPU time= 0.01 sec, 486 directives.
 Default parameters read. Elapsed time= 0.04 sec

 Checking input...
 Passed
1


                                         ***  PROGRAM SYSTEM MOLPRO  ***
                         Copyright, University College Cardiff Consultants Limited, 2008

                                    Version 2010.1 linked May 16 2016 07:17:05


 **********************************************************************************************************************************
 LABEL *   Optimization of 1_4_cyclohexadiene                                            
 Linux-4.4.3/n091(x86_64) 64 bit mpp version                                             DATE: 06-May-24          TIME: 16:15:21  
 **********************************************************************************************************************************

 SHA1:             9e8077add272b0f3cad6f7df79ec5211205f459d
 **********************************************************************************************************************************

 THRESHOLDS:

 ZERO    =  1.00D-12  ONEINT  =  1.00D-16  TWOINT  =  1.00D-16  PREFAC  =  1.00D-14  LOCALI  =  1.00D-09  EORDER  =  1.00D-04
 ENERGY  =  1.00D-12  ETEST   =  0.00D+00  EDENS   =  0.00D+00  THRDEDEF=  1.00D-06  GRADIENT=  1.00D-02  STEP    =  1.00D-03
 ORBITAL =  1.00D-10  CIVEC   =  1.00D-05  COEFF   =  1.00D-04  PRINTCI =  5.00D-02  PUNCHCI =  9.90D+01  OPTGRAD =  1.00D-06
 OPTENERG=  1.00D-06  OPTSTEP =  3.00D-04  THRGRAD =  1.00D-10  COMPRESS=  1.00D-13  VARMIN  =  1.00D-07  VARMAX  =  1.00D-03
 THRDOUB =  0.00D+00  THRDIV  =  1.00D-05  THRRED  =  1.00D-07  THRPSP  =  1.00D+00  THRDC   =  1.00D-10  THRCS   =  1.00D-10
 THRNRM  =  1.00D-08  THREQ   =  0.00D+00  THRDE   =  1.00D+00  THRREF  =  1.00D-05  SPARFAC =  1.00D+00  THRDLP  =  1.00D-07
 THRDIA  =  1.00D-10  THRDLS  =  1.00D-07  THRGPS  =  0.00D+00  THRKEX  =  0.00D+00  THRDIS  =  2.00D-01  THRVAR  =  1.00D-10
 THRLOC  =  1.00D-06  THRGAP  =  1.00D-06  THRLOCT = -1.00D+00  THRGAPT = -1.00D+00  THRORB  =  1.00D-06  THRMLTP =  0.00D+00
 THRCPQCI=  1.00D-10  KEXTA   =  0.00D+00  THRCOARS=  0.00D+00  SYMTOL  =  1.00D-06  GRADTOL =  1.00D-06  THROVL  =  1.00D-08
 THRORTH =  1.00D-08  GRID    =  1.00D-06  GRIDMAX =  1.00D-03  DTMAX   =  0.00D+00

 SETTING GEOMTYP        =    XYZ
 ZUNIT=BOHR
 

 Variable memory set to 1000000000 words,  buffer space   230000 words

 SETTING BASIS          =    VDZ


 Recomputing integrals since basis changed


 Using spherical harmonics

 Library entry H      S cc-pVDZ              selected for orbital group  1
 Library entry H      P cc-pVDZ              selected for orbital group  1
 Library entry C      S cc-pVDZ              selected for orbital group  2
 Library entry C      P cc-pVDZ              selected for orbital group  2
 Library entry C      D cc-pVDZ              selected for orbital group  2

1PROGRAM * SEWARD (Integral evaluation for generally contracted gaussian basis sets)     Author: Roland Lindh, 1990

 Geometry written to block  1 of record 700


 Point group  Ci  



 ATOMIC COORDINATES

 NR  ATOM    CHARGE       X              Y              Z

   1  H       1.00    4.099118486    0.000290293   -1.649440344
   2  H       1.00   -4.099118486   -0.000290293    1.649440344
   3  C       6.00    2.841071109   -0.001735817   -0.000901530
   4  C       6.00   -2.841071109    0.001735817    0.000901530
   5  C       6.00   -1.268927140    2.371633079   -0.001909238
   6  C       6.00    1.268927140   -2.371633079    0.001909238
   7  C       6.00   -1.261278304   -2.363069562   -0.001891304
   8  C       6.00    1.261278304    2.363069562    0.001891304
   9  H       1.00   -2.270653375    4.161273356   -0.007303609
  10  H       1.00    2.270653375   -4.161273356    0.007303609
  11  H       1.00    2.266168812    4.150934893    0.007322511
  12  H       1.00   -2.266168812   -4.150934893   -0.007322511
  13  H       1.00   -4.104972118   -0.000312222   -1.643153693
  14  H       1.00    4.104972118    0.000312222    1.643153693

 Bond lengths in Bohr (Angstrom)

  1- 3  2.073732753   2- 4  2.073732753   3- 6  2.843951053   3- 8  2.843951053   3-14  2.073732753
       ( 1.097372110)       ( 1.097372110)       ( 1.504954081)       ( 1.504954081)       ( 1.097372110)

  4- 5  2.843951053   4- 7  2.843951053   4-13  2.073732753   5- 8  2.530222790   5- 9  2.050925857
       ( 1.504954081)       ( 1.504954081)       ( 1.097372110)       ( 1.338936234)       ( 1.085303221)

  6- 7  2.530222790   6-10  2.050925857   7-12  2.050925857   8-11  2.050925857
       ( 1.338936234)       ( 1.085303221)       ( 1.085303221)       ( 1.085303221)

 Bond angles

  1- 3- 6  109.69190807   1- 3- 8  109.69190807   1- 3-14  105.09961664   2- 4- 5  109.69190807

  2- 4- 7  109.69190807   2- 4-13  105.09961664   3- 6- 7  123.36544488   3- 6-10  117.20321227

  3- 8- 5  123.93839944   3- 8-11  116.91673499   4- 5- 8  123.36544488   4- 5- 9  117.20321227

  4- 7- 6  123.93839944   4- 7-12  116.91673499   5- 4- 7  112.69574536   5- 4-13  109.69190807

  5- 8-11  119.14486557   6- 3- 8  112.69574536   6- 3-14  109.69190807   6- 7-12  119.14486557

  7- 4-13  109.69190807   7- 6-10  119.43134285   8- 3-14  109.69190807   8- 5- 9  119.43134285

 NUCLEAR CHARGE:                   44
 NUMBER OF PRIMITIVE AOS:         218
 NUMBER OF SYMMETRY AOS:          212
 NUMBER OF CONTRACTIONS:          124   (  62Ag  +  62Au  )
 NUMBER OF CORE ORBITALS:           6   (   3Ag  +   3Au  )
 NUMBER OF VALENCE ORBITALS:       32   (  16Ag  +  16Au  )


 NUCLEAR REPULSION ENERGY  217.75830114


 Eigenvalues of metric

         1 0.169E-02 0.345E-02 0.432E-02 0.143E-01 0.182E-01 0.227E-01 0.273E-01 0.312E-01
         2 0.670E-03 0.315E-02 0.562E-02 0.163E-01 0.257E-01 0.259E-01 0.320E-01 0.356E-01


 Contracted 2-electron integrals neglected if value below      1.0D-16
 AO integral compression algorithm  1   Integral accuracy      1.0D-16

     147.325 MB (compressed) written to integral file (100.0%)

     Node minimum: 147.325 MB, node maximum: 147.325 MB


 NUMBER OF SORTED TWO-ELECTRON INTEGRALS:   15258789.     BUFFER LENGTH:  32768
 NUMBER OF SEGMENTS:   1  SEGMENT LENGTH:   15258789      RECORD LENGTH: 524288

 Memory used in sort:      15.82 MW

 SORT1 READ    18181080. AND WROTE    15258789. INTEGRALS IN     44 RECORDS. CPU TIME:     0.15 SEC, REAL TIME:     0.25 SEC
 SORT2 READ    15258789. AND WROTE    15258789. INTEGRALS IN    562 RECORDS. CPU TIME:     0.16 SEC, REAL TIME:     0.23 SEC

 FILE SIZES:   FILE 1:   127.4 MBYTE,  FILE 4:   184.6 MBYTE,   TOTAL:    312.0 MBYTE

 OPERATOR DM      FOR CENTER  0  COORDINATES:    0.000000    0.000000    0.000000


 **********************************************************************************************************************************
 DATASETS  * FILE   NREC   LENGTH (MB)   RECORD NAMES
              1      19      127.51       500      610      700      900      950      970     1000      129      960     1100   
                                          VAR    BASINP    GEOM    SYMINP    ZMAT    AOBASIS   BASIS     P2S    ABASIS      S 
                                         1400     1410     1200     1210     1080     1600     1650     1300     1700   
                                           T        V       H0       H01     AOSYM     SMH    MOLCAS    ERIS     OPER   

 PROGRAMS   *        TOTAL       INT
 CPU TIMES  *         2.15      2.11
 REAL TIME  *         2.58 SEC
 DISK USED  *       460.25 MB      
 GA USED    *         0.00 MB       (max)       0.00 MB       (current)
 **********************************************************************************************************************************

1PROGRAM * RHF-SCF (CLOSED SHELL)       Authors: W. Meyer, H.-J. Werner


 NUMBER OF ELECTRONS:      22+   22-
 CONVERGENCE THRESHOLDS:    1.00E-10 (Density)    1.00E-13 (Energy)
 MAX. NUMBER OF ITERATIONS:      200
 INTERPOLATION TYPE:            DIIS
 INTERPOLATION STEPS:              2 (START)      1 (STEP)
 LEVEL SHIFTS:                  0.00 (CLOSED)  0.00 (OPEN) 



 Orbital guess generated from atomic densities. Full valence occupancy:   19  19

 Molecular orbital dump at record        2100.2

 Initial alpha occupancy:  11  11
 Initial beta  occupancy:  11  11
 Wave function symmetry:    1

 ITERATION    DDIFF          GRAD             ENERGY        2-EL.EN.            DIPOLE MOMENTS         DIIS
    1      0.000D+00      0.000D+00      -231.78150489    590.482714    0.00000    0.00000    0.00000    0
    2      0.000D+00      0.638D-02      -231.84385640    585.626704    0.00000    0.00000    0.00000    1
    3      0.127D-01      0.251D-02      -231.85141031    587.951434    0.00000    0.00000    0.00000    2
    4      0.475D-02      0.854D-03      -231.85265333    587.340975    0.00000    0.00000    0.00000    3
    5      0.175D-02      0.870D-04      -231.85267168    587.346075    0.00000    0.00000    0.00000    4
    6      0.324D-03      0.188D-04      -231.85267227    587.342989    0.00000    0.00000    0.00000    5
    7      0.453D-04      0.629D-05      -231.85267234    587.344006    0.00000    0.00000    0.00000    6
    8      0.177D-04      0.126D-05      -231.85267234    587.343913    0.00000    0.00000    0.00000    7
    9      0.419D-05      0.374D-06      -231.85267234    587.343933    0.00000    0.00000    0.00000    6
   10      0.942D-06      0.143D-06      -231.85267234    587.343931    0.00000    0.00000    0.00000    6
   11      0.361D-06      0.287D-07      -231.85267234    587.343938    0.00000    0.00000    0.00000    7
   12      0.767D-07      0.715D-08      -231.85267234    587.343934    0.00000    0.00000    0.00000    7
   13      0.165D-07      0.310D-08      -231.85267234    587.343935    0.00000    0.00000    0.00000    7
   14      0.813D-08      0.138D-08      -231.85267234    587.343935    0.00000    0.00000    0.00000    7
   15      0.432D-08      0.426D-09      -231.85267234    587.343935    0.00000    0.00000    0.00000    7
   16      0.163D-08      0.100D-09      -231.85267234    587.343935    0.00000    0.00000    0.00000    8
   17      0.355D-09      0.246D-10      -231.85267234    587.343935    0.00000    0.00000    0.00000    8
   18      0.542D-10      0.718D-11      -231.85267234    587.343935    0.00000    0.00000    0.00000    8
   19      0.268D-10      0.271D-11      -231.85267234    587.343935    0.00000    0.00000    0.00000    8
   20      0.893D-11      0.902D-12      -231.85267234    587.343935    0.00000    0.00000    0.00000    8
   21      0.290D-11      0.207D-12      -231.85267234    587.343935    0.00000    0.00000    0.00000    7
   22      0.775D-12      0.817D-13      -231.85267234    587.343935    0.00000    0.00000    0.00000    7
   23      0.358D-12      0.417D-13      -231.85267234    587.343935    0.00000    0.00000    0.00000    8
   24      0.269D-12      0.356D-13      -231.85267234    587.343935    0.00000    0.00000    0.00000    9
   25      0.193D-12      0.331D-13      -231.85267234    587.343935    0.00000    0.00000    0.00000    9
   26      0.155D-12      0.334D-13      -231.85267234    587.343935    0.00000    0.00000    0.00000    9
   27      0.818D-13      0.270D-13      -231.85267234    587.343935    0.00000    0.00000    0.00000    9
   28      0.776D-13      0.220D-13      -231.85267234    587.343935    0.00000    0.00000    0.00000    9
   29      0.506D-13      0.221D-13      -231.85267234    587.343935    0.00000    0.00000    0.00000    9
   30      0.435D-13      0.203D-13      -231.85267234    587.343935    0.00000    0.00000    0.00000    9
   31      0.304D-13      0.195D-13      -231.85267234    587.343935    0.00000    0.00000    0.00000    9
   32      0.402D-13      0.207D-13      -231.85267234    587.343935    0.00000    0.00000    0.00000    9
   33      0.366D-13      0.246D-13      -231.85267234    587.343935    0.00000    0.00000    0.00000    9
   34      0.174D-13      0.250D-13      -231.85267234    587.343935    0.00000    0.00000    0.00000    0

 Final occupancy:  11  11

 !RHF STATE 1.1 Energy               -231.852672340798
 Nuclear energy                       217.75830114
 One-electron energy                 -743.28294103
 Two-electron energy                  293.67196754
 Virial quotient                       -1.00115574
 !RHF STATE 1.1 Dipole moment           0.00000000     0.00000000     0.00000000
 Dipole moment /Debye                   0.00000000     0.00000000     0.00000000

 Orbital energies:

         1.1          2.1          3.1          4.1          5.1          6.1          7.1          8.1          9.1         10.1
    -11.233779   -11.229229   -11.227660    -1.122179    -0.861946    -0.784627    -0.678373    -0.561728    -0.490820    -0.445797

        11.1         12.1         13.1
     -0.358782     0.180770     0.193453

         1.2          2.2          3.2          4.2          5.2          6.2          7.2          8.2          9.2         10.2
    -11.233779   -11.229289   -11.227625    -1.008426    -1.004900    -0.654611    -0.597613    -0.595262    -0.561516    -0.531795

        11.2         12.2         13.2
     -0.329768     0.174484     0.217555


 **********************************************************************************************************************************
 DATASETS  * FILE   NREC   LENGTH (MB)   RECORD NAMES
              1      19      127.51       500      610      700      900      950      970     1000      129      960     1100   
                                          VAR    BASINP    GEOM    SYMINP    ZMAT    AOBASIS   BASIS     P2S    ABASIS      S 
                                         1400     1410     1200     1210     1080     1600     1650     1300     1700   
                                           T        V       H0       H01     AOSYM     SMH    MOLCAS    ERIS     OPER   

              2       3        0.65       700     1000     2100   
                                         GEOM     BASIS     RHF  

 PROGRAMS   *        TOTAL       RHF       INT
 CPU TIMES  *         4.04      1.89      2.11
 REAL TIME  *         4.87 SEC
 DISK USED  *       460.25 MB      
 GA USED    *         0.00 MB       (max)       0.00 MB       (current)
 **********************************************************************************************************************************


1PROGRAM * CCSD (Closed-shell coupled cluster)     Authors: C. Hampel, H.-J. Werner, 1991, M. Deegan, P.J. Knowles, 1992


 Convergence thresholds:  THRVAR = 1.00D-08  THRDEN = 1.00D-12

 CCSD(T)     terms to be evaluated (factor= 1.000)


 Number of core orbitals:           6 (   3   3 )
 Number of closed-shell orbitals:  16 (   8   8 )
 Number of external orbitals:     102 (  51  51 )

 Molecular orbitals read from record     2100.2  Type=RHF/CANONICAL (state 1.1)

 Number of N-1 electron functions:              16
 Number of N-2 electron functions:             136
 Number of singly external CSFs:               816
 Number of doubly external CSFs:            666672
 Total number of CSFs:                      667489

 Length of J-op  integral file:               0.00 MB
 Length of K-op  integral file:               0.57 MB
 Length of 3-ext integral record:             0.00 MB

 Memory could be reduced to 11.72 Mwords without degradation in triples

 Integral transformation finished. Total CPU:   0.52 sec, npass=  1  Memory used:   7.35 MW

 Reference energy:                   -231.85267234

 MP2 singlet pair energy:              -0.50639809
 MP2 triplet pair energy:              -0.29378202
 MP2 correlation energy:               -0.80018011
 MP2 total energy:                   -232.65285245

 SCS-MP2 correlation energy:           -0.79047541   (PS=  1.200000  PT=  0.333333)
 SCS-MP2 total energy:               -232.64314775

 ITER.      SQ.NORM     CORR.ENERGY   TOTAL ENERGY   ENERGY CHANGE        DEN1      VAR(S)    VAR(P)  DIIS     TIME
   1      1.31822395    -0.85463370  -232.70730604    -0.05445358    -0.03136126  0.31D-02  0.54D-02  1  1     1.37
   2      1.34642612    -0.86046049  -232.71313283    -0.00582679    -0.02421004  0.68D-04  0.70D-03  2  2     2.29
   3      1.35481286    -0.86077278  -232.71344512    -0.00031229    -0.00386571  0.20D-04  0.69D-04  3  3     3.21
   4      1.35835751    -0.86089372  -232.71356606    -0.00012094    -0.00107840  0.10D-05  0.68D-05  4  4     4.13
   5      1.35919305    -0.86090556  -232.71357790    -0.00001184    -0.00017822  0.50D-07  0.66D-06  5  5     5.06
   6      1.35935066    -0.86089789  -232.71357023     0.00000766    -0.00002584  0.49D-08  0.36D-07  6  6     5.99
   7      1.35936610    -0.86089856  -232.71357090    -0.00000066     0.00000108  0.17D-08  0.32D-08  6  2     6.92
   8      1.35937076    -0.86089842  -232.71357076     0.00000014    -0.00000094  0.56D-10  0.35D-09  6  1     7.84
   9      1.35937081    -0.86089849  -232.71357083    -0.00000007     0.00000044  0.18D-10  0.52D-10  6  3     8.77
  10      1.35937073    -0.86089853  -232.71357087    -0.00000004     0.00000017  0.80D-12  0.82D-11  6  4     9.69
  11      1.35937018    -0.86089856  -232.71357090    -0.00000003     0.00000022  0.85D-13  0.11D-11  6  6    10.61
  12      1.35937007    -0.86089857  -232.71357091    -0.00000001     0.00000005  0.20D-13  0.98D-13  6  5    11.53
  13      1.35937006    -0.86089857  -232.71357091     0.00000000    -0.00000000  0.76D-14  0.15D-13  6  2    12.47
  14      1.35937009    -0.86089857  -232.71357091     0.00000000    -0.00000001  0.56D-15  0.13D-14  6  1    13.39
  15      1.35937009    -0.86089857  -232.71357091     0.00000000    -0.00000000  0.17D-15  0.15D-15  6  3    14.32
  16      1.35937009    -0.86089857  -232.71357091     0.00000000    -0.00000000  0.19D-16  0.24D-16  6  4    15.24
  17      1.35937009    -0.86089857  -232.71357091    -0.00000000     0.00000000  0.35D-17  0.38D-17  6  6    16.16
  18      1.35937009    -0.86089857  -232.71357091    -0.00000000     0.00000000  0.23D-18  0.65D-18  6  5    17.09
  19      1.35937009    -0.86089857  -232.71357091     0.00000000     0.00000000  0.29D-19  0.15D-18  6  2    18.01
  20      1.35937009    -0.86089857  -232.71357091     0.00000000    -0.00000000  0.69D-21  0.26D-19  6  1    18.94
  21      1.35937009    -0.86089857  -232.71357091     0.00000000    -0.00000000  0.15D-21  0.18D-20  6  4    19.87
  22      1.35937009    -0.86089857  -232.71357091     0.00000000    -0.00000000  0.17D-22  0.85D-22  6  3    20.79

 Norm of t1 vector:      0.07885036      S-energy:    -0.00000000      T1 diagnostic:  0.00985630
                                                                       D1 diagnostic:  0.02884827

 Doubles amplitudes (print threshold =  0.500E-01):

         I         J         SYM. A    SYM. B    A         B      T(IJ, AB)

         8         8         2         2         1         1     -0.07473124
        16        16         1         1         2         2     -0.05812400
        16         8         1         2         2         1      0.06107436


 Total CPU time for triples:     15.72 sec


 RESULTS
 =======

  Reference energy                   -231.852672340798
  CCSD singlet pair energy             -0.593575021248
  CCSD triplet pair energy             -0.267323543810
  CCSD correlation energy              -0.860898565057

  Triples (T) contribution             -0.032225557273
  Total correlation energy             -0.893124122330

  CCSD total energy                  -232.713570905855
  CCSD[T] energy                     -232.746529775860
  CCSD-T energy                      -232.745477673419
 !CCSD(T) total energy               -232.745796463128

 Timing summary (sec):

 STEP                 CPU(USER)    SYS     CPU(TOT)    WALL
 Transformation          0.54      0.07      0.61      0.61
 CCSD iterations        20.25      0.89     21.14     21.19
 Triples                15.72      0.54     16.26     16.27

 Program statistics:

 Available memory in ccsd:               999998876
 Min. memory needed in ccsd:               1756075
 Max. memory used in ccsd:                 2339371
 Max. memory used in cckext:               2447048 (22 integral passes)



 **********************************************************************************************************************************
 DATASETS  * FILE   NREC   LENGTH (MB)   RECORD NAMES
              1      20      174.68       500      610      700      900      950      970     1000      129      960     1100   
                                          VAR    BASINP    GEOM    SYMINP    ZMAT    AOBASIS   BASIS     P2S    ABASIS      S 
                                         1400     1410     1200     1210     1080     1600     1650     1300     1700     1380   
                                           T        V       H0       H01     AOSYM     SMH    MOLCAS    ERIS     OPER     JKOP   

              2       3        0.65       700     1000     2100   
                                         GEOM     BASIS     RHF  

 PROGRAMS   *        TOTAL   CCSD(T)       RHF       INT
 CPU TIMES  *        40.57     36.52      1.89      2.11
 REAL TIME  *        42.97 SEC
 DISK USED  *       460.25 MB      
 GA USED    *         0.00 MB       (max)       0.00 MB       (current)
 **********************************************************************************************************************************

        CCSD(T)         RHF-SCF 
   -232.74579646   -231.85267234
 **********************************************************************************************************************************
 Variable memory released
