
    -----------------------------------------------------------------------
          Psi4: An Open-Source Ab Initio Electronic Structure Package
                               Psi4 1.4a2.dev629 

                         Git: Rev {master} 2938fc2 dirty


    D. G. A. Smith, L. A. Burns, A. C. Simmonett, R. M. Parrish,
    M. C. Schieber, R. Galvelis, P. Kraus, H. Kruse, R. Di Remigio,
    A. Alenaizan, A. M. James, S. Lehtola, J. P. Misiewicz, M. Scheurer,
    R. A. Shaw, J. B. Schriber, Y. Xie, Z. L. Glick, D. A. Sirianni,
    J. S. O'Brien, J. M. Waldrop, A. Kumar, E. G. Hohenstein,
    B. P. Pritchard, B. R. Brooks, H. F. Schaefer III, A. Yu. Sokolov,
    K. Patkowski, A. E. DePrince III, U. Bozkaya, R. A. King,
    F. A. Evangelista, J. M. Turney, T. D. Crawford, C. D. Sherrill,
    J. Chem. Phys. 152(18) 184108 (2020). https://doi.org/10.1063/5.0006002

                            Additional Code Authors
    E. T. Seidl, C. L. Janssen, E. F. Valeev, M. L. Leininger,
    J. F. Gonthier, R. M. Richard, H. R. McAlexander, M. Saitow, X. Wang,
    P. Verma, and M. H. Lechner

             Previous Authors, Complete List of Code Contributors,
                       and Citations for Specific Modules
    https://github.com/psi4/psi4/blob/master/codemeta.json
    https://github.com/psi4/psi4/graphs/contributors
    http://psicode.org/psi4manual/master/introduction.html#citing-psifour

    -----------------------------------------------------------------------


    Psi4 started on: Wednesday, 03 November 2021 05:32PM

    Process ID: 17802
    Host:       n089
    PSIDATADIR: /opt/psi/4/master/share/psi4
    Memory:     500.0 MiB
    Threads:    1
    
  ==> Input File <==

--------------------------------------------------------------------------
import os
memory 14 GB 
 
molecule {
 C    2.7123580502    0.4668200120    0.0010124727
 C   -0.0852049753   -0.1668433589    0.0064219888
 O   -0.8781738710   -2.3242469312   -0.0088766852
 N   -1.6587171370    1.8957415481    0.0552899372
 H    3.7520838701   -1.1177111999    0.7926959735
 H    3.3330341567    0.7568464980   -1.9522129168
 H    3.1190730727    2.1731327338    1.0748567664
 H   -0.9846929428    3.6182625915   -0.3491697842
 H   -3.5012185835    1.5629081667   -0.2928567625
units bohr
}

basis {

assign 6-31g_2dfp_

[ 6-31g_2dfp_ ]

spherical

!----------------------------------------------------------------------
! Basis Set Exchange
! Version v0.8.13
! https://www.basissetexchange.org
!----------------------------------------------------------------------
!   Basis set: 6-31G(2df,p)
! Description: 6-31G(2df,p)
!        Role: orbital
!     Version: 0  (Data from the original Basis Set Exchange)
!----------------------------------------------------------------------


****
H     0
S    3   1.00
     18.7311370              0.03349460
      2.8253937              0.23472695
      0.6401217              0.81375733
S    1   1.00
      0.1612778              1.00000000
P    1   1.00
      1.5000000              1.0000000
P    1   1.00
      0.3750000              1.0000000
****
B     0
S    6   1.00
   2068.8823000              0.0018663
    310.6495700              0.0142515
     70.6830330              0.0695516
     19.8610800              0.2325729
      6.2993048              0.4670787
      2.1270270              0.3634314
SP   3   1.00
      4.7279710             -0.1303938              0.0745976
      1.1903377             -0.1307889              0.3078467
      0.3594117              1.1309444              0.7434568
SP   1   1.00
      0.1267512              1.0000000              1.0000000
D    1   1.00
      0.8020000              1.0000000
D    1   1.00
      0.2005000              1.0000000
F    1   1.00
      0.5000000              1.0000000
****
C     0
S    6   1.00
   3047.5249000              0.0018347
    457.3695100              0.0140373
    103.9486900              0.0688426
     29.2101550              0.2321844
      9.2866630              0.4679413
      3.1639270              0.3623120
SP   3   1.00
      7.8682724             -0.1193324              0.0689991
      1.8812885             -0.1608542              0.3164240
      0.5442493              1.1434564              0.7443083
SP   1   1.00
      0.1687144              1.0000000              1.0000000
D    1   1.00
      1.2520000              1.0000000
D    1   1.00
      0.3130000              1.0000000
F    1   1.00
      0.8000000              1.0000000
****
N     0
S    6   1.00
   4173.5110000              0.0018348
    627.4579000              0.0139950
    142.9021000              0.0685870
     40.2343300              0.2322410
     12.8202100              0.4690700
      4.3904370              0.3604550
SP   3   1.00
     11.6263580             -0.1149610              0.0675800
      2.7162800             -0.1691180              0.3239070
      0.7722180              1.1458520              0.7408950
SP   1   1.00
      0.2120313              1.0000000              1.0000000
D    1   1.00
      1.8260000              1.0000000
D    1   1.00
      0.4565000              1.0000000
F    1   1.00
      1.0000000              1.0000000
****
O     0
S    6   1.00
   5484.6717000              0.0018311
    825.2349500              0.0139501
    188.0469600              0.0684451
     52.9645000              0.2327143
     16.8975700              0.4701930
      5.7996353              0.3585209
SP   3   1.00
     15.5396160             -0.1107775              0.0708743
      3.5999336             -0.1480263              0.3397528
      1.0137618              1.1307670              0.7271586
SP   1   1.00
      0.2700058              1.0000000              1.0000000
D    1   1.00
      2.5840000              1.0000000
D    1   1.00
      0.6460000              1.0000000
F    1   1.00
      1.4000000              1.0000000
****
F     0
S    6   1.00
   7001.7130900              0.0018196169
   1051.3660900              0.0139160796
    239.2856900              0.0684053245
     67.3974453              0.233185760
     21.5199573              0.471267439
      7.40310130             0.356618546
SP   3   1.00
     20.8479528             -0.108506975            0.0716287243
      4.80830834            -0.146451658            0.3459121030
      1.34406986             1.128688580            0.7224699570
SP   1   1.00
      0.358151393            1.0000000              1.0000000
D    1   1.00
      3.5000000              1.0000000
D    1   1.00
      0.8750000              1.0000000
F    1   1.00
      1.8500000              1.0000000
****
Al     0
S    6   1.00
  13983.1000000              0.00194267
   2098.7500000              0.0148599
    477.7050000              0.0728494
    134.3600000              0.2468300
     42.8709000              0.4872580
     14.5189000              0.3234960
SP   6   1.00
    239.6680000             -0.00292619             0.00460285
     57.4419000             -0.0374080              0.0331990
     18.2859000             -0.1144870              0.1362820
      6.5991400              0.1156350              0.3304760
      2.4904900              0.6125950              0.4491460
      0.9445400              0.3937990              0.2657040
SP   3   1.00
      1.2779000             -0.2276060             -0.0175130
      0.3975900              0.00144583             0.2445330
      0.1600950              1.0927900              0.8049340
SP   1   1.00
      0.0556577              1.0000000              1.0000000
D    1   1.00
      0.6500000              1.0000000
D    1   1.00
      0.1625000              1.0000000
F    1   1.00
      0.2500000              1.0000000
****
Si     0
S    6   1.00
  16115.9000000              0.00195948
   2425.5800000              0.01492880
    553.8670000              0.07284780
    156.3400000              0.24613000
     50.0683000              0.48591400
     17.0178000              0.32500200
SP   6   1.00
    292.7180000             -0.00278094             0.00443826
     69.8731000             -0.03571460             0.03266790
     22.3363000             -0.11498500             0.13472100
      8.1503900              0.09356340             0.32867800
      3.1345800              0.60301700             0.44964000
      1.2254300              0.41895900             0.26137200
SP   3   1.00
      1.7273800             -0.24463000            -0.01779510
      0.5729220              0.00431572             0.25353900
      0.2221920              1.09818000             0.80066900
SP   1   1.00
      0.0778369              1.00000000             1.00000000
D    1   1.00
      0.9000000              1.0000000
D    1   1.00
      0.2250000              1.0000000
F    1   1.00
      0.3200000              1.0000000
****
P     0
S    6   1.00
  19413.3000000              0.0018516
   2909.4200000              0.0142062
    661.3640000              0.0699995
    185.7590000              0.2400790
     59.1943000              0.4847620
     20.0310000              0.3352000
SP   6   1.00
    339.4780000             -0.00278217             0.00456462
     81.0101000             -0.0360499              0.03369360
     25.8780000             -0.1166310              0.13975500
      9.4522100              0.0968328              0.33936200
      3.6656600              0.6144180              0.45092100
      1.4674600              0.4037980              0.23858600
SP   3   1.00
      2.1562300             -0.2529230             -0.01776530
      0.7489970              0.0328517              0.27405800
      0.2831450              1.0812500              0.78542100
SP   1   1.00
      0.0998317              1.0000000              1.00000000
D    1   1.00
      1.1000000              1.0000000
D    1   1.00
      0.2750000              1.0000000
F    1   1.00
      0.4500000              1.0000000
****
S     0
S    6   1.00
  21917.1000000              0.0018690
   3301.4900000              0.0142300
    754.1460000              0.0696960
    212.7110000              0.2384870
     67.9896000              0.4833070
     23.0515000              0.3380740
SP   6   1.00
    423.7350000             -0.0023767              0.0040610
    100.7100000             -0.0316930              0.0306810
     32.1599000             -0.1133170              0.1304520
     11.8079000              0.0560900              0.3272050
      4.6311000              0.5922550              0.4528510
      1.8702500              0.4550060              0.2560420
SP   3   1.00
      2.6158400             -0.2503740             -0.0145110
      0.9221670              0.0669570              0.3102630
      0.3412870              1.0545100              0.7544830
SP   1   1.00
      0.1171670              1.0000000              1.0000000
D    1   1.00
      1.3000000              1.0000000
D    1   1.00
      0.3250000              1.0000000
F    1   1.00
      0.5500000              1.0000000
****
Cl     0
S    6   1.00
  25180.1000000              0.0018330
   3780.3500000              0.0140340
    860.4740000              0.0690970
    242.1450000              0.2374520
     77.3349000              0.4830340
     26.2470000              0.3398560
SP   6   1.00
    491.7650000             -0.0022974              0.0039894
    116.9840000             -0.0307140              0.0303180
     37.4153000             -0.1125280              0.1298800
     13.7834000              0.0450160              0.3279510
      5.4521500              0.5893530              0.4535270
      2.2258800              0.4652060              0.2521540
SP   3   1.00
      3.1864900             -0.2518300             -0.0142990
      1.1442700              0.0615890              0.3235720
      0.4203770              1.0601800              0.7435070
SP   1   1.00
      0.1426570              1.0000000              1.0000000
D    1   1.00
      1.5000000              1.0000000
D    1   1.00
      0.3750000              1.0000000
F    1   1.00
      0.7000000              1.0000000
****
}


set {
reference rhf                          
freeze_core true
e_convergence 10                       
d_convergence 10                      
dft_spherical_points 1202
dft_radial_points 99
}

e = energy('b3lyp')

print_out('Grab this energy {0}'.format(e))
--------------------------------------------------------------------------

  Memory set to  13.039 GiB by Python driver.

Scratch directory: /tmp/

*** tstart() called on n089
*** at Wed Nov  3 17:32:32 2021

   => Loading Basis Set <=

    Name: ANONYMOUS048FA1F1
    Role: ORBITAL
    Keyword: BASIS
    atoms 1-2 entry C          line    48 inputblock 6-31g_2dfp_ 
    atoms 3   entry O          line    90 inputblock 6-31g_2dfp_ 
    atoms 4   entry N          line    69 inputblock 6-31g_2dfp_ 
    atoms 5-9 entry H          line    15 inputblock 6-31g_2dfp_ 


         ---------------------------------------------------------
                                   SCF
               by Justin Turney, Rob Parrish, Andy Simmonett
                          and Daniel G. A. Smith
                              RKS Reference
                        1 Threads,  13351 MiB Core
         ---------------------------------------------------------

  ==> Geometry <==

    Molecular point group: c1
    Full point group: C1

    Geometry (in Bohr), charge = 0, multiplicity = 1:

       Center              X                  Y                   Z               Mass       
    ------------   -----------------  -----------------  -----------------  -----------------
         C            2.712097073954     0.466515788401     0.001197310195    12.000000000000
         C           -0.085465951546    -0.167147582499     0.006606826295    12.000000000000
         O           -0.878434847246    -2.324551154799    -0.008691847705    15.994914619570
         N           -1.658978113246     1.895437324501     0.055474774695    14.003074004430
         H            3.751822893854    -1.118015423499     0.792880810995     1.007825032230
         H            3.332773180454     0.756542274401    -1.952028079305     1.007825032230
         H            3.118812096454     2.172828510201     1.075041603895     1.007825032230
         H           -0.984953919046     3.617958367901    -0.348984946705     1.007825032230
         H           -3.501479559746     1.562603943101    -0.292671925005     1.007825032230

  Running in c1 symmetry.

  Rotational constants: A =      0.35871  B =      0.31088  C =      0.17215 [cm^-1]
  Rotational constants: A =  10753.73043  B =   9319.82724  C =   5161.04677 [MHz]
  Nuclear repulsion =  121.610834410590257

  Charge       = 0
  Multiplicity = 1
  Electrons    = 32
  Nalpha       = 16
  Nbeta        = 16

  ==> Algorithm <==

  SCF Algorithm Type is DF.
  DIIS enabled.
  MOM disabled.
  Fractional occupation disabled.
  Guess Type is SAD.
  Energy threshold   = 1.00e-10
  Density threshold  = 1.00e-10
  Integral threshold = 0.00e+00

  ==> Primary Basis <==

  Basis Set: ANONYMOUS048FA1F1
    Blend: 6-31G_2DFP_
    Number of shells: 52
    Number of basis function: 144
    Number of Cartesian functions: 164
    Spherical Harmonics?: true
    Max angular momentum: 3

  ==> DFT Potential <==

   => Composite Functional: B3LYP <= 

    B3LYP Hyb-GGA Exchange-Correlation Functional

    P. J. Stephens, F. J. Devlin, C. F. Chabalowski, and M. J. Frisch, J. Phys. Chem. 98, 11623 (1994)

    Deriv               =              1
    GGA                 =           TRUE
    Meta                =          FALSE

    Exchange Hybrid     =           TRUE
    MP2 Hybrid          =          FALSE

   => Exchange Functionals <=

    0.0800   Slater exchange
    0.7200         Becke 88

   => Exact (HF) Exchange <=

    0.2000               HF 

   => Correlation Functionals <=

    0.1900   Vosko, Wilk & Nusair (VWN5_RPA)
    0.8100   Lee, Yang & Parr

   => Molecular Quadrature <=

    Radial Scheme          =       TREUTLER
    Pruning Scheme         =           NONE
    Nuclear Scheme         =       TREUTLER

    BS radius alpha        =              1
    Pruning alpha          =              1
    Radial Points          =             99
    Spherical Points       =           1202
    Total Points           =        1004739
    Total Blocks           =           6741
    Max Points             =            256
    Max Functions          =            143
    Weights Tolerance      =       1.00E-15

   => Loading Basis Set <=

    Name: (ANONYMOUS048FA1F1 AUX)
    Role: JKFIT
    Keyword: DF_BASIS_SCF
    atoms 1-2 entry C          line   198 file /opt/psi/4/master/share/psi4/basis/def2-universal-jkfit.gbs 
    atoms 3   entry O          line   318 file /opt/psi/4/master/share/psi4/basis/def2-universal-jkfit.gbs 
    atoms 4   entry N          line   258 file /opt/psi/4/master/share/psi4/basis/def2-universal-jkfit.gbs 
    atoms 5-9 entry H          line    18 file /opt/psi/4/master/share/psi4/basis/def2-universal-jkfit.gbs 

  ==> Integral Setup <==

  DFHelper Memory: AOs need 0.066 GiB; user supplied 6.417 GiB. Using in-core AOs.

  ==> MemDFJK: Density-Fitted J/K Matrices <==

    J tasked:                   Yes
    K tasked:                   Yes
    wK tasked:                   No
    OpenMP threads:               1
    Memory [MiB]:              6570
    Algorithm:                 Core
    Schwarz Cutoff:           1E-12
    Mask sparsity (%):       0.9549
    Fitting Condition:        1E-10

   => Auxiliary Basis Set <=

  Basis Set: (ANONYMOUS048FA1F1 AUX)
    Blend: DEF2-UNIVERSAL-JKFIT
    Number of shells: 130
    Number of basis function: 394
    Number of Cartesian functions: 464
    Spherical Harmonics?: true
    Max angular momentum: 4

  Cached 100.0% of DFT collocation blocks in 3.362 [GiB].

  Minimum eigenvalue in the overlap matrix is 1.1102523605E-03.
  Reciprocal condition number of the overlap matrix is 2.0170963604E-04.
    Using symmetric orthogonalization.

  ==> Pre-Iterations <==

  SCF Guess: Superposition of Atomic Densities via on-the-fly atomic UHF (no occupation information).

   -------------------------
    Irrep   Nso     Nmo    
   -------------------------
     A        144     144 
   -------------------------
    Total     144     144
   -------------------------

  ==> Iterations <==

                           Total Energy        Delta E     RMS |[F,P]|

   @DF-RKS iter SAD:  -208.68045717674437   -2.08680e+02   0.00000e+00 
   @DF-RKS iter   1:  -208.91005458079414   -2.29597e-01   5.90595e-03 DIIS
   @DF-RKS iter   2:  -208.69352350768676    2.16531e-01   7.71771e-03 DIIS
   @DF-RKS iter   3:  -209.19973935350549   -5.06216e-01   1.89329e-03 DIIS
   @DF-RKS iter   4:  -209.22947066178079   -2.97313e-02   3.07358e-04 DIIS
   @DF-RKS iter   5:  -209.23007760088552   -6.06939e-04   1.43060e-04 DIIS
   @DF-RKS iter   6:  -209.23026729354075   -1.89693e-04   2.03261e-05 DIIS
   @DF-RKS iter   7:  -209.23027140337760   -4.10984e-06   2.37960e-06 DIIS
   @DF-RKS iter   8:  -209.23027145450757   -5.11300e-08   5.43891e-07 DIIS
   @DF-RKS iter   9:  -209.23027145727229   -2.76472e-09   1.99835e-07 DIIS
   @DF-RKS iter  10:  -209.23027145763038   -3.58085e-10   6.02684e-08 DIIS
   @DF-RKS iter  11:  -209.23027145766443   -3.40492e-11   1.28074e-08 DIIS
   @DF-RKS iter  12:  -209.23027145766605   -1.62004e-12   2.36456e-09 DIIS
   @DF-RKS iter  13:  -209.23027145766611   -5.68434e-14   3.76680e-10 DIIS
   @DF-RKS iter  14:  -209.23027145766630   -1.98952e-13   1.07276e-10 DIIS
   @DF-RKS iter  15:  -209.23027145766622    8.52651e-14   3.02747e-11 DIIS
  Energy and wave function converged.


  ==> Post-Iterations <==

    Orbital Energies [Eh]
    ---------------------

    Doubly Occupied:                                                      

       1A    -19.104563     2A    -14.348614     3A    -10.280821  
       4A    -10.184267     5A     -1.026756     6A     -0.900840  
       7A     -0.737348     8A     -0.582536     9A     -0.534390  
      10A     -0.465853    11A     -0.444822    12A     -0.399816  
      13A     -0.395836    14A     -0.364674    15A     -0.270014  
      16A     -0.245874  

    Virtual:                                                              

      17A      0.029423    18A      0.064492    19A      0.113013  
      20A      0.128781    21A      0.152170    22A      0.166144  
      23A      0.215924    24A      0.287337    25A      0.344086  
      26A      0.415198    27A      0.445811    28A      0.449224  
      29A      0.466878    30A      0.482378    31A      0.494299  
      32A      0.549717    33A      0.565758    34A      0.583172  
      35A      0.597356    36A      0.631221    37A      0.634661  
      38A      0.647912    39A      0.672427    40A      0.700000  
      41A      0.714851    42A      0.741982    43A      0.826913  
      44A      0.846743    45A      0.868686    46A      0.920728  
      47A      0.940228    48A      0.963315    49A      0.987353  
      50A      0.997943    51A      1.087623    52A      1.113837  
      53A      1.136868    54A      1.164306    55A      1.255602  
      56A      1.277636    57A      1.288762    58A      1.320839  
      59A      1.333049    60A      1.343486    61A      1.363444  
      62A      1.395435    63A      1.414321    64A      1.472703  
      65A      1.485820    66A      1.555042    67A      1.563703  
      68A      1.643393    69A      1.710886    70A      1.729886  
      71A      1.782019    72A      1.823381    73A      1.913672  
      74A      1.967376    75A      1.979480    76A      2.071440  
      77A      2.185249    78A      2.222039    79A      2.340560  
      80A      2.533429    81A      2.619899    82A      2.755068  
      83A      2.835593    84A      2.913213    85A      2.953129  
      86A      2.973784    87A      3.023091    88A      3.048266  
      89A      3.107019    90A      3.165610    91A      3.200172  
      92A      3.254997    93A      3.266537    94A      3.352785  
      95A      3.376074    96A      3.414477    97A      3.448387  
      98A      3.472719    99A      3.510410   100A      3.600500  
     101A      3.634406   102A      3.670273   103A      3.744960  
     104A      3.812813   105A      3.910143   106A      3.924203  
     107A      3.959709   108A      3.980561   109A      3.998652  
     110A      4.145216   111A      4.154514   112A      4.185193  
     113A      4.264139   114A      4.378141   115A      4.410883  
     116A      4.427285   117A      4.458598   118A      4.489228  
     119A      4.526180   120A      4.564678   121A      4.738960  
     122A      4.788267   123A      4.947916   124A      5.050704  
     125A      5.080699   126A      5.105317   127A      5.141499  
     128A      5.164998   129A      5.241419   130A      5.251104  
     131A      5.324598   132A      5.404865   133A      5.609754  
     134A      5.697056   135A      5.822369   136A      5.892737  
     137A      5.984357   138A      6.045509   139A      6.457771  
     140A      6.884863   141A      6.893123   142A      7.184817  
     143A      7.383232   144A      7.600645  

    Final Occupation by Irrep:
              A 
    DOCC [    16 ]

  @DF-RKS Final Energy:  -209.23027145766622

   => Energetics <=

    Nuclear Repulsion Energy =            121.6108344105902574
    One-Electron Energy =                -524.6770663798218948
    Two-Electron Energy =                 216.7039098495579879
    DFT Exchange-Correlation Energy =     -22.8679493379925773
    Empirical Dispersion Energy =           0.0000000000000000
    VV10 Nonlocal Energy =                  0.0000000000000000
    Total Energy =                       -209.2302714576662197

Computation Completed


Properties will be evaluated at   0.000000,   0.000000,   0.000000 [a0]

Properties computed using the SCF density matrix

  Nuclear Dipole Moment: [e a0]
     X:     2.8364      Y:     3.4598      Z:    -0.3601

  Electronic Dipole Moment: [e a0]
     X:    -2.6233      Y:    -2.0859      Z:     0.1315

  Dipole Moment: [e a0]
     X:     0.2132      Y:     1.3739      Z:    -0.2287     Total:     1.4090

  Dipole Moment: [D]
     X:     0.5418      Y:     3.4921      Z:    -0.5812     Total:     3.5814


*** tstop() called on n089 at Wed Nov  3 17:33:29 2021
Module time:
	user time   =      56.17 seconds =       0.94 minutes
	system time =       0.96 seconds =       0.02 minutes
	total time  =         57 seconds =       0.95 minutes
Total time:
	user time   =      56.17 seconds =       0.94 minutes
	system time =       0.96 seconds =       0.02 minutes
	total time  =         57 seconds =       0.95 minutes
Grab this energy -209.23027145766622
    Psi4 stopped on: Wednesday, 03 November 2021 05:33PM
    Psi4 wall time for execution: 0:00:57.17

*** Psi4 exiting successfully. Buy a developer a beer!
