
    -----------------------------------------------------------------------
          Psi4: An Open-Source Ab Initio Electronic Structure Package
                               Psi4 1.4a2.dev629 

                         Git: Rev {master} 2938fc2 dirty


    D. G. A. Smith, L. A. Burns, A. C. Simmonett, R. M. Parrish,
    M. C. Schieber, R. Galvelis, P. Kraus, H. Kruse, R. Di Remigio,
    A. Alenaizan, A. M. James, S. Lehtola, J. P. Misiewicz, M. Scheurer,
    R. A. Shaw, J. B. Schriber, Y. Xie, Z. L. Glick, D. A. Sirianni,
    J. S. O'Brien, J. M. Waldrop, A. Kumar, E. G. Hohenstein,
    B. P. Pritchard, B. R. Brooks, H. F. Schaefer III, A. Yu. Sokolov,
    K. Patkowski, A. E. DePrince III, U. Bozkaya, R. A. King,
    F. A. Evangelista, J. M. Turney, T. D. Crawford, C. D. Sherrill,
    J. Chem. Phys. 152(18) 184108 (2020). https://doi.org/10.1063/5.0006002

                            Additional Code Authors
    E. T. Seidl, C. L. Janssen, E. F. Valeev, M. L. Leininger,
    J. F. Gonthier, R. M. Richard, H. R. McAlexander, M. Saitow, X. Wang,
    P. Verma, and M. H. Lechner

             Previous Authors, Complete List of Code Contributors,
                       and Citations for Specific Modules
    https://github.com/psi4/psi4/blob/master/codemeta.json
    https://github.com/psi4/psi4/graphs/contributors
    http://psicode.org/psi4manual/master/introduction.html#citing-psifour

    -----------------------------------------------------------------------


    Psi4 started on: Wednesday, 03 November 2021 05:36PM

    Process ID: 19237
    Host:       n031
    PSIDATADIR: /opt/psi/4/master/share/psi4
    Memory:     500.0 MiB
    Threads:    1
    
  ==> Input File <==

--------------------------------------------------------------------------
import os
memory 14 GB 
 
molecule {
 C    2.7113871874    0.4670505757   -0.0003551508
 C   -0.0845642327   -0.1632798652    0.0063583961
 O   -0.8781607044   -2.3248246684   -0.0090798788
 N   -1.6591224244    1.8905939265    0.0557651870
 H    3.7542124276   -1.1250332070    0.7910552031
 H    3.3326206123    0.7537087492   -1.9523832643
 H    3.1174540626    2.1824267427    1.0781886011
 H   -0.9842631059    3.6201252448   -0.3492084198
 H   -3.5010221825    1.5641425616   -0.2931796835
units bohr
}

basis {

assign 6-31g_2dfp_

[ 6-31g_2dfp_ ]

spherical

!----------------------------------------------------------------------
! Basis Set Exchange
! Version v0.8.13
! https://www.basissetexchange.org
!----------------------------------------------------------------------
!   Basis set: 6-31G(2df,p)
! Description: 6-31G(2df,p)
!        Role: orbital
!     Version: 0  (Data from the original Basis Set Exchange)
!----------------------------------------------------------------------


****
H     0
S    3   1.00
     18.7311370              0.03349460
      2.8253937              0.23472695
      0.6401217              0.81375733
S    1   1.00
      0.1612778              1.00000000
P    1   1.00
      1.5000000              1.0000000
P    1   1.00
      0.3750000              1.0000000
****
B     0
S    6   1.00
   2068.8823000              0.0018663
    310.6495700              0.0142515
     70.6830330              0.0695516
     19.8610800              0.2325729
      6.2993048              0.4670787
      2.1270270              0.3634314
SP   3   1.00
      4.7279710             -0.1303938              0.0745976
      1.1903377             -0.1307889              0.3078467
      0.3594117              1.1309444              0.7434568
SP   1   1.00
      0.1267512              1.0000000              1.0000000
D    1   1.00
      0.8020000              1.0000000
D    1   1.00
      0.2005000              1.0000000
F    1   1.00
      0.5000000              1.0000000
****
C     0
S    6   1.00
   3047.5249000              0.0018347
    457.3695100              0.0140373
    103.9486900              0.0688426
     29.2101550              0.2321844
      9.2866630              0.4679413
      3.1639270              0.3623120
SP   3   1.00
      7.8682724             -0.1193324              0.0689991
      1.8812885             -0.1608542              0.3164240
      0.5442493              1.1434564              0.7443083
SP   1   1.00
      0.1687144              1.0000000              1.0000000
D    1   1.00
      1.2520000              1.0000000
D    1   1.00
      0.3130000              1.0000000
F    1   1.00
      0.8000000              1.0000000
****
N     0
S    6   1.00
   4173.5110000              0.0018348
    627.4579000              0.0139950
    142.9021000              0.0685870
     40.2343300              0.2322410
     12.8202100              0.4690700
      4.3904370              0.3604550
SP   3   1.00
     11.6263580             -0.1149610              0.0675800
      2.7162800             -0.1691180              0.3239070
      0.7722180              1.1458520              0.7408950
SP   1   1.00
      0.2120313              1.0000000              1.0000000
D    1   1.00
      1.8260000              1.0000000
D    1   1.00
      0.4565000              1.0000000
F    1   1.00
      1.0000000              1.0000000
****
O     0
S    6   1.00
   5484.6717000              0.0018311
    825.2349500              0.0139501
    188.0469600              0.0684451
     52.9645000              0.2327143
     16.8975700              0.4701930
      5.7996353              0.3585209
SP   3   1.00
     15.5396160             -0.1107775              0.0708743
      3.5999336             -0.1480263              0.3397528
      1.0137618              1.1307670              0.7271586
SP   1   1.00
      0.2700058              1.0000000              1.0000000
D    1   1.00
      2.5840000              1.0000000
D    1   1.00
      0.6460000              1.0000000
F    1   1.00
      1.4000000              1.0000000
****
F     0
S    6   1.00
   7001.7130900              0.0018196169
   1051.3660900              0.0139160796
    239.2856900              0.0684053245
     67.3974453              0.233185760
     21.5199573              0.471267439
      7.40310130             0.356618546
SP   3   1.00
     20.8479528             -0.108506975            0.0716287243
      4.80830834            -0.146451658            0.3459121030
      1.34406986             1.128688580            0.7224699570
SP   1   1.00
      0.358151393            1.0000000              1.0000000
D    1   1.00
      3.5000000              1.0000000
D    1   1.00
      0.8750000              1.0000000
F    1   1.00
      1.8500000              1.0000000
****
Al     0
S    6   1.00
  13983.1000000              0.00194267
   2098.7500000              0.0148599
    477.7050000              0.0728494
    134.3600000              0.2468300
     42.8709000              0.4872580
     14.5189000              0.3234960
SP   6   1.00
    239.6680000             -0.00292619             0.00460285
     57.4419000             -0.0374080              0.0331990
     18.2859000             -0.1144870              0.1362820
      6.5991400              0.1156350              0.3304760
      2.4904900              0.6125950              0.4491460
      0.9445400              0.3937990              0.2657040
SP   3   1.00
      1.2779000             -0.2276060             -0.0175130
      0.3975900              0.00144583             0.2445330
      0.1600950              1.0927900              0.8049340
SP   1   1.00
      0.0556577              1.0000000              1.0000000
D    1   1.00
      0.6500000              1.0000000
D    1   1.00
      0.1625000              1.0000000
F    1   1.00
      0.2500000              1.0000000
****
Si     0
S    6   1.00
  16115.9000000              0.00195948
   2425.5800000              0.01492880
    553.8670000              0.07284780
    156.3400000              0.24613000
     50.0683000              0.48591400
     17.0178000              0.32500200
SP   6   1.00
    292.7180000             -0.00278094             0.00443826
     69.8731000             -0.03571460             0.03266790
     22.3363000             -0.11498500             0.13472100
      8.1503900              0.09356340             0.32867800
      3.1345800              0.60301700             0.44964000
      1.2254300              0.41895900             0.26137200
SP   3   1.00
      1.7273800             -0.24463000            -0.01779510
      0.5729220              0.00431572             0.25353900
      0.2221920              1.09818000             0.80066900
SP   1   1.00
      0.0778369              1.00000000             1.00000000
D    1   1.00
      0.9000000              1.0000000
D    1   1.00
      0.2250000              1.0000000
F    1   1.00
      0.3200000              1.0000000
****
P     0
S    6   1.00
  19413.3000000              0.0018516
   2909.4200000              0.0142062
    661.3640000              0.0699995
    185.7590000              0.2400790
     59.1943000              0.4847620
     20.0310000              0.3352000
SP   6   1.00
    339.4780000             -0.00278217             0.00456462
     81.0101000             -0.0360499              0.03369360
     25.8780000             -0.1166310              0.13975500
      9.4522100              0.0968328              0.33936200
      3.6656600              0.6144180              0.45092100
      1.4674600              0.4037980              0.23858600
SP   3   1.00
      2.1562300             -0.2529230             -0.01776530
      0.7489970              0.0328517              0.27405800
      0.2831450              1.0812500              0.78542100
SP   1   1.00
      0.0998317              1.0000000              1.00000000
D    1   1.00
      1.1000000              1.0000000
D    1   1.00
      0.2750000              1.0000000
F    1   1.00
      0.4500000              1.0000000
****
S     0
S    6   1.00
  21917.1000000              0.0018690
   3301.4900000              0.0142300
    754.1460000              0.0696960
    212.7110000              0.2384870
     67.9896000              0.4833070
     23.0515000              0.3380740
SP   6   1.00
    423.7350000             -0.0023767              0.0040610
    100.7100000             -0.0316930              0.0306810
     32.1599000             -0.1133170              0.1304520
     11.8079000              0.0560900              0.3272050
      4.6311000              0.5922550              0.4528510
      1.8702500              0.4550060              0.2560420
SP   3   1.00
      2.6158400             -0.2503740             -0.0145110
      0.9221670              0.0669570              0.3102630
      0.3412870              1.0545100              0.7544830
SP   1   1.00
      0.1171670              1.0000000              1.0000000
D    1   1.00
      1.3000000              1.0000000
D    1   1.00
      0.3250000              1.0000000
F    1   1.00
      0.5500000              1.0000000
****
Cl     0
S    6   1.00
  25180.1000000              0.0018330
   3780.3500000              0.0140340
    860.4740000              0.0690970
    242.1450000              0.2374520
     77.3349000              0.4830340
     26.2470000              0.3398560
SP   6   1.00
    491.7650000             -0.0022974              0.0039894
    116.9840000             -0.0307140              0.0303180
     37.4153000             -0.1125280              0.1298800
     13.7834000              0.0450160              0.3279510
      5.4521500              0.5893530              0.4535270
      2.2258800              0.4652060              0.2521540
SP   3   1.00
      3.1864900             -0.2518300             -0.0142990
      1.1442700              0.0615890              0.3235720
      0.4203770              1.0601800              0.7435070
SP   1   1.00
      0.1426570              1.0000000              1.0000000
D    1   1.00
      1.5000000              1.0000000
D    1   1.00
      0.3750000              1.0000000
F    1   1.00
      0.7000000              1.0000000
****
}


set {
reference rhf                          
freeze_core true
e_convergence 10                       
d_convergence 10                      
dft_spherical_points 1202
dft_radial_points 99
}

e = energy('b3lyp')

print_out('Grab this energy {0}'.format(e))
--------------------------------------------------------------------------

  Memory set to  13.039 GiB by Python driver.

Scratch directory: /tmp/

*** tstart() called on n031
*** at Wed Nov  3 17:36:33 2021

   => Loading Basis Set <=

    Name: ANONYMOUSEE2AEAD8
    Role: ORBITAL
    Keyword: BASIS
    atoms 1-2 entry C          line    48 inputblock 6-31g_2dfp_ 
    atoms 3   entry O          line    90 inputblock 6-31g_2dfp_ 
    atoms 4   entry N          line    69 inputblock 6-31g_2dfp_ 
    atoms 5-9 entry H          line    15 inputblock 6-31g_2dfp_ 


         ---------------------------------------------------------
                                   SCF
               by Justin Turney, Rob Parrish, Andy Simmonett
                          and Daniel G. A. Smith
                              RKS Reference
                        1 Threads,  13351 MiB Core
         ---------------------------------------------------------

  ==> Geometry <==

    Molecular point group: c1
    Full point group: C1

    Geometry (in Bohr), charge = 0, multiplicity = 1:

       Center              X                  Y                   Z               Mass       
    ------------   -----------------  -----------------  -----------------  -----------------
         C            2.711273545944     0.467319691120     0.000043136660    12.000000000000
         C           -0.084677874156    -0.163010749780     0.006756683560    12.000000000000
         O           -0.878274345856    -2.324555552980    -0.008681591340    15.994914619570
         N           -1.659236065856     1.890863041920     0.056163474460    14.003074004430
         H            3.754098786144    -1.124764091580     0.791453490560     1.007825032230
         H            3.332506970844     0.753977864620    -1.951984976840     1.007825032230
         H            3.117340421144     2.182695858120     1.078586888560     1.007825032230
         H           -0.984376747356     3.620394360220    -0.348810132340     1.007825032230
         H           -3.501135823956     1.564411677020    -0.292781396040     1.007825032230

  Running in c1 symmetry.

  Rotational constants: A =      0.35906  B =      0.31094  C =      0.17226 [cm^-1]
  Rotational constants: A =  10764.35525  B =   9321.67465  C =   5164.24527 [MHz]
  Nuclear repulsion =  121.603316713090976

  Charge       = 0
  Multiplicity = 1
  Electrons    = 32
  Nalpha       = 16
  Nbeta        = 16

  ==> Algorithm <==

  SCF Algorithm Type is DF.
  DIIS enabled.
  MOM disabled.
  Fractional occupation disabled.
  Guess Type is SAD.
  Energy threshold   = 1.00e-10
  Density threshold  = 1.00e-10
  Integral threshold = 0.00e+00

  ==> Primary Basis <==

  Basis Set: ANONYMOUSEE2AEAD8
    Blend: 6-31G_2DFP_
    Number of shells: 52
    Number of basis function: 144
    Number of Cartesian functions: 164
    Spherical Harmonics?: true
    Max angular momentum: 3

  ==> DFT Potential <==

   => Composite Functional: B3LYP <= 

    B3LYP Hyb-GGA Exchange-Correlation Functional

    P. J. Stephens, F. J. Devlin, C. F. Chabalowski, and M. J. Frisch, J. Phys. Chem. 98, 11623 (1994)

    Deriv               =              1
    GGA                 =           TRUE
    Meta                =          FALSE

    Exchange Hybrid     =           TRUE
    MP2 Hybrid          =          FALSE

   => Exchange Functionals <=

    0.0800   Slater exchange
    0.7200         Becke 88

   => Exact (HF) Exchange <=

    0.2000               HF 

   => Correlation Functionals <=

    0.1900   Vosko, Wilk & Nusair (VWN5_RPA)
    0.8100   Lee, Yang & Parr

   => Molecular Quadrature <=

    Radial Scheme          =       TREUTLER
    Pruning Scheme         =           NONE
    Nuclear Scheme         =       TREUTLER

    BS radius alpha        =              1
    Pruning alpha          =              1
    Radial Points          =             99
    Spherical Points       =           1202
    Total Points           =        1004795
    Total Blocks           =           6736
    Max Points             =            256
    Max Functions          =            143
    Weights Tolerance      =       1.00E-15

   => Loading Basis Set <=

    Name: (ANONYMOUSEE2AEAD8 AUX)
    Role: JKFIT
    Keyword: DF_BASIS_SCF
    atoms 1-2 entry C          line   198 file /opt/psi/4/master/share/psi4/basis/def2-universal-jkfit.gbs 
    atoms 3   entry O          line   318 file /opt/psi/4/master/share/psi4/basis/def2-universal-jkfit.gbs 
    atoms 4   entry N          line   258 file /opt/psi/4/master/share/psi4/basis/def2-universal-jkfit.gbs 
    atoms 5-9 entry H          line    18 file /opt/psi/4/master/share/psi4/basis/def2-universal-jkfit.gbs 

  ==> Integral Setup <==

  DFHelper Memory: AOs need 0.066 GiB; user supplied 6.417 GiB. Using in-core AOs.

  ==> MemDFJK: Density-Fitted J/K Matrices <==

    J tasked:                   Yes
    K tasked:                   Yes
    wK tasked:                   No
    OpenMP threads:               1
    Memory [MiB]:              6570
    Algorithm:                 Core
    Schwarz Cutoff:           1E-12
    Mask sparsity (%):       0.9549
    Fitting Condition:        1E-10

   => Auxiliary Basis Set <=

  Basis Set: (ANONYMOUSEE2AEAD8 AUX)
    Blend: DEF2-UNIVERSAL-JKFIT
    Number of shells: 130
    Number of basis function: 394
    Number of Cartesian functions: 464
    Spherical Harmonics?: true
    Max angular momentum: 4

  Cached 100.0% of DFT collocation blocks in 3.362 [GiB].

  Minimum eigenvalue in the overlap matrix is 1.1044693503E-03.
  Reciprocal condition number of the overlap matrix is 2.0085967770E-04.
    Using symmetric orthogonalization.

  ==> Pre-Iterations <==

  SCF Guess: Superposition of Atomic Densities via on-the-fly atomic UHF (no occupation information).

   -------------------------
    Irrep   Nso     Nmo    
   -------------------------
     A        144     144 
   -------------------------
    Total     144     144
   -------------------------

  ==> Iterations <==

                           Total Energy        Delta E     RMS |[F,P]|

   @DF-RKS iter SAD:  -208.67919315981695   -2.08679e+02   0.00000e+00 
   @DF-RKS iter   1:  -208.91007993384076   -2.30887e-01   5.90189e-03 DIIS
   @DF-RKS iter   2:  -208.68756874840497    2.22511e-01   7.75372e-03 DIIS
   @DF-RKS iter   3:  -209.19872580307947   -5.11157e-01   1.92284e-03 DIIS
   @DF-RKS iter   4:  -209.22948080918840   -3.07550e-02   3.07083e-04 DIIS
   @DF-RKS iter   5:  -209.23008705440574   -6.06245e-04   1.42826e-04 DIIS
   @DF-RKS iter   6:  -209.23027579019242   -1.88736e-04   2.08213e-05 DIIS
   @DF-RKS iter   7:  -209.23028011490604   -4.32471e-06   2.39777e-06 DIIS
   @DF-RKS iter   8:  -209.23028016628905   -5.13830e-08   6.31435e-07 DIIS
   @DF-RKS iter   9:  -209.23028016998765   -3.69860e-09   2.36377e-07 DIIS
   @DF-RKS iter  10:  -209.23028017049992   -5.12273e-10   5.96286e-08 DIIS
   @DF-RKS iter  11:  -209.23028017053321   -3.32818e-11   1.29381e-08 DIIS
   @DF-RKS iter  12:  -209.23028017053508   -1.87583e-12   2.37932e-09 DIIS
   @DF-RKS iter  13:  -209.23028017053426    8.24230e-13   3.60405e-10 DIIS
   @DF-RKS iter  14:  -209.23028017053551   -1.25056e-12   1.06207e-10 DIIS
   @DF-RKS iter  15:  -209.23028017053525    2.55795e-13   3.10806e-11 DIIS
  Energy and wave function converged.


  ==> Post-Iterations <==

    Orbital Energies [Eh]
    ---------------------

    Doubly Occupied:                                                      

       1A    -19.103810     2A    -14.349251     3A    -10.280579  
       4A    -10.185118     5A     -1.025581     6A     -0.901172  
       7A     -0.737123     8A     -0.583157     9A     -0.534113  
      10A     -0.465502    11A     -0.444743    12A     -0.399664  
      13A     -0.394862    14A     -0.364383    15A     -0.269736  
      16A     -0.245274  

    Virtual:                                                              

      17A      0.029309    18A      0.063786    19A      0.112669  
      20A      0.127965    21A      0.151116    22A      0.165677  
      23A      0.216681    24A      0.287635    25A      0.344887  
      26A      0.414514    27A      0.445649    28A      0.448419  
      29A      0.467752    30A      0.482011    31A      0.493869  
      32A      0.549429    33A      0.565211    34A      0.582468  
      35A      0.596787    36A      0.629835    37A      0.634222  
      38A      0.646950    39A      0.671847    40A      0.699841  
      41A      0.714014    42A      0.741365    43A      0.827377  
      44A      0.845659    45A      0.868409    46A      0.920775  
      47A      0.939975    48A      0.963785    49A      0.987295  
      50A      0.998019    51A      1.087665    52A      1.113688  
      53A      1.136053    54A      1.163482    55A      1.255715  
      56A      1.277845    57A      1.288320    58A      1.320790  
      59A      1.331402    60A      1.342858    61A      1.362629  
      62A      1.393948    63A      1.413366    64A      1.472122  
      65A      1.486865    66A      1.555192    67A      1.562300  
      68A      1.643778    69A      1.711185    70A      1.725281  
      71A      1.780403    72A      1.822381    73A      1.912262  
      74A      1.966252    75A      1.980422    76A      2.072699  
      77A      2.183913    78A      2.220583    79A      2.340384  
      80A      2.531430    81A      2.620963    82A      2.755548  
      83A      2.835804    84A      2.912200    85A      2.951975  
      86A      2.972611    87A      3.023229    88A      3.049646  
      89A      3.107251    90A      3.167189    91A      3.200588  
      92A      3.254840    93A      3.266758    94A      3.352653  
      95A      3.376846    96A      3.415117    97A      3.448392  
      98A      3.474495    99A      3.510197   100A      3.598481  
     101A      3.634330   102A      3.666920   103A      3.742858  
     104A      3.811002   105A      3.908707   106A      3.924147  
     107A      3.955977   108A      3.980186   109A      3.998413  
     110A      4.140989   111A      4.150929   112A      4.182417  
     113A      4.262326   114A      4.377108   115A      4.409003  
     116A      4.424987   117A      4.458108   118A      4.488870  
     119A      4.523396   120A      4.568536   121A      4.739866  
     122A      4.789389   123A      4.946501   124A      5.048863  
     125A      5.081054   126A      5.105422   127A      5.142036  
     128A      5.161999   129A      5.238944   130A      5.245745  
     131A      5.323380   132A      5.403695   133A      5.607409  
     134A      5.699485   135A      5.813339   136A      5.894083  
     137A      5.982694   138A      6.045830   139A      6.457698  
     140A      6.885227   141A      6.893442   142A      7.186010  
     143A      7.383611   144A      7.599495  

    Final Occupation by Irrep:
              A 
    DOCC [    16 ]

  @DF-RKS Final Energy:  -209.23028017053525

   => Energetics <=

    Nuclear Repulsion Energy =            121.6033167130909760
    One-Electron Energy =                -524.6699363730432424
    Two-Electron Energy =                 216.7014699444595465
    DFT Exchange-Correlation Energy =     -22.8651304550425216
    Empirical Dispersion Energy =           0.0000000000000000
    VV10 Nonlocal Energy =                  0.0000000000000000
    Total Energy =                       -209.2302801705352522

Computation Completed


Properties will be evaluated at   0.000000,   0.000000,   0.000000 [a0]

Properties computed using the SCF density matrix

  Nuclear Dipole Moment: [e a0]
     X:     2.8372      Y:     3.4622      Z:    -0.3590

  Electronic Dipole Moment: [e a0]
     X:    -2.6259      Y:    -2.0787      Z:     0.1291

  Dipole Moment: [e a0]
     X:     0.2112      Y:     1.3834      Z:    -0.2299     Total:     1.4182

  Dipole Moment: [D]
     X:     0.5369      Y:     3.5163      Z:    -0.5843     Total:     3.6048


*** tstop() called on n031 at Wed Nov  3 17:37:52 2021
Module time:
	user time   =      78.27 seconds =       1.30 minutes
	system time =       0.75 seconds =       0.01 minutes
	total time  =         79 seconds =       1.32 minutes
Total time:
	user time   =      78.27 seconds =       1.30 minutes
	system time =       0.75 seconds =       0.01 minutes
	total time  =         79 seconds =       1.32 minutes
Grab this energy -209.23028017053525
    Psi4 stopped on: Wednesday, 03 November 2021 05:37PM
    Psi4 wall time for execution: 0:01:19.07

*** Psi4 exiting successfully. Buy a developer a beer!
