
    -----------------------------------------------------------------------
          Psi4: An Open-Source Ab Initio Electronic Structure Package
                               Psi4 1.4a2.dev629 

                         Git: Rev {master} 2938fc2 dirty


    D. G. A. Smith, L. A. Burns, A. C. Simmonett, R. M. Parrish,
    M. C. Schieber, R. Galvelis, P. Kraus, H. Kruse, R. Di Remigio,
    A. Alenaizan, A. M. James, S. Lehtola, J. P. Misiewicz, M. Scheurer,
    R. A. Shaw, J. B. Schriber, Y. Xie, Z. L. Glick, D. A. Sirianni,
    J. S. O'Brien, J. M. Waldrop, A. Kumar, E. G. Hohenstein,
    B. P. Pritchard, B. R. Brooks, H. F. Schaefer III, A. Yu. Sokolov,
    K. Patkowski, A. E. DePrince III, U. Bozkaya, R. A. King,
    F. A. Evangelista, J. M. Turney, T. D. Crawford, C. D. Sherrill,
    J. Chem. Phys. 152(18) 184108 (2020). https://doi.org/10.1063/5.0006002

                            Additional Code Authors
    E. T. Seidl, C. L. Janssen, E. F. Valeev, M. L. Leininger,
    J. F. Gonthier, R. M. Richard, H. R. McAlexander, M. Saitow, X. Wang,
    P. Verma, and M. H. Lechner

             Previous Authors, Complete List of Code Contributors,
                       and Citations for Specific Modules
    https://github.com/psi4/psi4/blob/master/codemeta.json
    https://github.com/psi4/psi4/graphs/contributors
    http://psicode.org/psi4manual/master/introduction.html#citing-psifour

    -----------------------------------------------------------------------


    Psi4 started on: Wednesday, 03 November 2021 05:16PM

    Process ID: 13230
    Host:       n084
    PSIDATADIR: /opt/psi/4/master/share/psi4
    Memory:     500.0 MiB
    Threads:    1
    
  ==> Input File <==

--------------------------------------------------------------------------
import os
memory 14 GB 
 
molecule {
 C    2.7124627953    0.4666426621   -0.0021351345
 C   -0.0817267030   -0.1645858616    0.0070723772
 O   -0.8770292161   -2.3178536551   -0.0084508429
 N   -1.6619286496    1.8935584213    0.0572531603
 H    3.7572536627   -1.1200114874    0.7891236101
 H    3.3321908865    0.7516833400   -1.9477237908
 H    3.1132886482    2.1748628478    1.0754578709
 H   -0.9836040611    3.6162790212   -0.3479168283
 H   -3.5023657228    1.5643347717   -0.2955194320
units bohr
}

basis {

assign 6-31g_2dfp_

[ 6-31g_2dfp_ ]

spherical

!----------------------------------------------------------------------
! Basis Set Exchange
! Version v0.8.13
! https://www.basissetexchange.org
!----------------------------------------------------------------------
!   Basis set: 6-31G(2df,p)
! Description: 6-31G(2df,p)
!        Role: orbital
!     Version: 0  (Data from the original Basis Set Exchange)
!----------------------------------------------------------------------


****
H     0
S    3   1.00
     18.7311370              0.03349460
      2.8253937              0.23472695
      0.6401217              0.81375733
S    1   1.00
      0.1612778              1.00000000
P    1   1.00
      1.5000000              1.0000000
P    1   1.00
      0.3750000              1.0000000
****
B     0
S    6   1.00
   2068.8823000              0.0018663
    310.6495700              0.0142515
     70.6830330              0.0695516
     19.8610800              0.2325729
      6.2993048              0.4670787
      2.1270270              0.3634314
SP   3   1.00
      4.7279710             -0.1303938              0.0745976
      1.1903377             -0.1307889              0.3078467
      0.3594117              1.1309444              0.7434568
SP   1   1.00
      0.1267512              1.0000000              1.0000000
D    1   1.00
      0.8020000              1.0000000
D    1   1.00
      0.2005000              1.0000000
F    1   1.00
      0.5000000              1.0000000
****
C     0
S    6   1.00
   3047.5249000              0.0018347
    457.3695100              0.0140373
    103.9486900              0.0688426
     29.2101550              0.2321844
      9.2866630              0.4679413
      3.1639270              0.3623120
SP   3   1.00
      7.8682724             -0.1193324              0.0689991
      1.8812885             -0.1608542              0.3164240
      0.5442493              1.1434564              0.7443083
SP   1   1.00
      0.1687144              1.0000000              1.0000000
D    1   1.00
      1.2520000              1.0000000
D    1   1.00
      0.3130000              1.0000000
F    1   1.00
      0.8000000              1.0000000
****
N     0
S    6   1.00
   4173.5110000              0.0018348
    627.4579000              0.0139950
    142.9021000              0.0685870
     40.2343300              0.2322410
     12.8202100              0.4690700
      4.3904370              0.3604550
SP   3   1.00
     11.6263580             -0.1149610              0.0675800
      2.7162800             -0.1691180              0.3239070
      0.7722180              1.1458520              0.7408950
SP   1   1.00
      0.2120313              1.0000000              1.0000000
D    1   1.00
      1.8260000              1.0000000
D    1   1.00
      0.4565000              1.0000000
F    1   1.00
      1.0000000              1.0000000
****
O     0
S    6   1.00
   5484.6717000              0.0018311
    825.2349500              0.0139501
    188.0469600              0.0684451
     52.9645000              0.2327143
     16.8975700              0.4701930
      5.7996353              0.3585209
SP   3   1.00
     15.5396160             -0.1107775              0.0708743
      3.5999336             -0.1480263              0.3397528
      1.0137618              1.1307670              0.7271586
SP   1   1.00
      0.2700058              1.0000000              1.0000000
D    1   1.00
      2.5840000              1.0000000
D    1   1.00
      0.6460000              1.0000000
F    1   1.00
      1.4000000              1.0000000
****
F     0
S    6   1.00
   7001.7130900              0.0018196169
   1051.3660900              0.0139160796
    239.2856900              0.0684053245
     67.3974453              0.233185760
     21.5199573              0.471267439
      7.40310130             0.356618546
SP   3   1.00
     20.8479528             -0.108506975            0.0716287243
      4.80830834            -0.146451658            0.3459121030
      1.34406986             1.128688580            0.7224699570
SP   1   1.00
      0.358151393            1.0000000              1.0000000
D    1   1.00
      3.5000000              1.0000000
D    1   1.00
      0.8750000              1.0000000
F    1   1.00
      1.8500000              1.0000000
****
Al     0
S    6   1.00
  13983.1000000              0.00194267
   2098.7500000              0.0148599
    477.7050000              0.0728494
    134.3600000              0.2468300
     42.8709000              0.4872580
     14.5189000              0.3234960
SP   6   1.00
    239.6680000             -0.00292619             0.00460285
     57.4419000             -0.0374080              0.0331990
     18.2859000             -0.1144870              0.1362820
      6.5991400              0.1156350              0.3304760
      2.4904900              0.6125950              0.4491460
      0.9445400              0.3937990              0.2657040
SP   3   1.00
      1.2779000             -0.2276060             -0.0175130
      0.3975900              0.00144583             0.2445330
      0.1600950              1.0927900              0.8049340
SP   1   1.00
      0.0556577              1.0000000              1.0000000
D    1   1.00
      0.6500000              1.0000000
D    1   1.00
      0.1625000              1.0000000
F    1   1.00
      0.2500000              1.0000000
****
Si     0
S    6   1.00
  16115.9000000              0.00195948
   2425.5800000              0.01492880
    553.8670000              0.07284780
    156.3400000              0.24613000
     50.0683000              0.48591400
     17.0178000              0.32500200
SP   6   1.00
    292.7180000             -0.00278094             0.00443826
     69.8731000             -0.03571460             0.03266790
     22.3363000             -0.11498500             0.13472100
      8.1503900              0.09356340             0.32867800
      3.1345800              0.60301700             0.44964000
      1.2254300              0.41895900             0.26137200
SP   3   1.00
      1.7273800             -0.24463000            -0.01779510
      0.5729220              0.00431572             0.25353900
      0.2221920              1.09818000             0.80066900
SP   1   1.00
      0.0778369              1.00000000             1.00000000
D    1   1.00
      0.9000000              1.0000000
D    1   1.00
      0.2250000              1.0000000
F    1   1.00
      0.3200000              1.0000000
****
P     0
S    6   1.00
  19413.3000000              0.0018516
   2909.4200000              0.0142062
    661.3640000              0.0699995
    185.7590000              0.2400790
     59.1943000              0.4847620
     20.0310000              0.3352000
SP   6   1.00
    339.4780000             -0.00278217             0.00456462
     81.0101000             -0.0360499              0.03369360
     25.8780000             -0.1166310              0.13975500
      9.4522100              0.0968328              0.33936200
      3.6656600              0.6144180              0.45092100
      1.4674600              0.4037980              0.23858600
SP   3   1.00
      2.1562300             -0.2529230             -0.01776530
      0.7489970              0.0328517              0.27405800
      0.2831450              1.0812500              0.78542100
SP   1   1.00
      0.0998317              1.0000000              1.00000000
D    1   1.00
      1.1000000              1.0000000
D    1   1.00
      0.2750000              1.0000000
F    1   1.00
      0.4500000              1.0000000
****
S     0
S    6   1.00
  21917.1000000              0.0018690
   3301.4900000              0.0142300
    754.1460000              0.0696960
    212.7110000              0.2384870
     67.9896000              0.4833070
     23.0515000              0.3380740
SP   6   1.00
    423.7350000             -0.0023767              0.0040610
    100.7100000             -0.0316930              0.0306810
     32.1599000             -0.1133170              0.1304520
     11.8079000              0.0560900              0.3272050
      4.6311000              0.5922550              0.4528510
      1.8702500              0.4550060              0.2560420
SP   3   1.00
      2.6158400             -0.2503740             -0.0145110
      0.9221670              0.0669570              0.3102630
      0.3412870              1.0545100              0.7544830
SP   1   1.00
      0.1171670              1.0000000              1.0000000
D    1   1.00
      1.3000000              1.0000000
D    1   1.00
      0.3250000              1.0000000
F    1   1.00
      0.5500000              1.0000000
****
Cl     0
S    6   1.00
  25180.1000000              0.0018330
   3780.3500000              0.0140340
    860.4740000              0.0690970
    242.1450000              0.2374520
     77.3349000              0.4830340
     26.2470000              0.3398560
SP   6   1.00
    491.7650000             -0.0022974              0.0039894
    116.9840000             -0.0307140              0.0303180
     37.4153000             -0.1125280              0.1298800
     13.7834000              0.0450160              0.3279510
      5.4521500              0.5893530              0.4535270
      2.2258800              0.4652060              0.2521540
SP   3   1.00
      3.1864900             -0.2518300             -0.0142990
      1.1442700              0.0615890              0.3235720
      0.4203770              1.0601800              0.7435070
SP   1   1.00
      0.1426570              1.0000000              1.0000000
D    1   1.00
      1.5000000              1.0000000
D    1   1.00
      0.3750000              1.0000000
F    1   1.00
      0.7000000              1.0000000
****
}


set {
reference rhf                          
freeze_core true
e_convergence 10                       
d_convergence 10                      
dft_spherical_points 1202
dft_radial_points 99
}

e = energy('b3lyp')

print_out('Grab this energy {0}'.format(e))
--------------------------------------------------------------------------

  Memory set to  13.039 GiB by Python driver.

Scratch directory: /tmp/

*** tstart() called on n084
*** at Wed Nov  3 17:16:17 2021

   => Loading Basis Set <=

    Name: ANONYMOUS9E82331B
    Role: ORBITAL
    Keyword: BASIS
    atoms 1-2 entry C          line    48 inputblock 6-31g_2dfp_ 
    atoms 3   entry O          line    90 inputblock 6-31g_2dfp_ 
    atoms 4   entry N          line    69 inputblock 6-31g_2dfp_ 
    atoms 5-9 entry H          line    15 inputblock 6-31g_2dfp_ 


         ---------------------------------------------------------
                                   SCF
               by Justin Turney, Rob Parrish, Andy Simmonett
                          and Daniel G. A. Smith
                              RKS Reference
                        1 Threads,  13351 MiB Core
         ---------------------------------------------------------

  ==> Geometry <==

    Molecular point group: c1
    Full point group: C1

    Geometry (in Bohr), charge = 0, multiplicity = 1:

       Center              X                  Y                   Z               Mass       
    ------------   -----------------  -----------------  -----------------  -----------------
         C            2.711951031152     0.464808694521    -0.002025585981    12.000000000000
         C           -0.082238467148    -0.166419829179     0.007181925719    12.000000000000
         O           -0.877540980248    -2.319687622679    -0.008341294381    15.994914619570
         N           -1.662440413748     1.891724453721     0.057362708819    14.003074004430
         H            3.756741898552    -1.121845454979     0.789233158619     1.007825032230
         H            3.331679122352     0.749849372421    -1.947614242281     1.007825032230
         H            3.112776884052     2.173028880221     1.075567419419     1.007825032230
         H           -0.984115825248     3.614445053621    -0.347807279781     1.007825032230
         H           -3.502877486948     1.562500804121    -0.295409883481     1.007825032230

  Running in c1 symmetry.

  Rotational constants: A =      0.36005  B =      0.31071  C =      0.17239 [cm^-1]
  Rotational constants: A =  10794.02397  B =   9314.85447  C =   5168.23875 [MHz]
  Nuclear repulsion =  121.694489321509209

  Charge       = 0
  Multiplicity = 1
  Electrons    = 32
  Nalpha       = 16
  Nbeta        = 16

  ==> Algorithm <==

  SCF Algorithm Type is DF.
  DIIS enabled.
  MOM disabled.
  Fractional occupation disabled.
  Guess Type is SAD.
  Energy threshold   = 1.00e-10
  Density threshold  = 1.00e-10
  Integral threshold = 0.00e+00

  ==> Primary Basis <==

  Basis Set: ANONYMOUS9E82331B
    Blend: 6-31G_2DFP_
    Number of shells: 52
    Number of basis function: 144
    Number of Cartesian functions: 164
    Spherical Harmonics?: true
    Max angular momentum: 3

  ==> DFT Potential <==

   => Composite Functional: B3LYP <= 

    B3LYP Hyb-GGA Exchange-Correlation Functional

    P. J. Stephens, F. J. Devlin, C. F. Chabalowski, and M. J. Frisch, J. Phys. Chem. 98, 11623 (1994)

    Deriv               =              1
    GGA                 =           TRUE
    Meta                =          FALSE

    Exchange Hybrid     =           TRUE
    MP2 Hybrid          =          FALSE

   => Exchange Functionals <=

    0.0800   Slater exchange
    0.7200         Becke 88

   => Exact (HF) Exchange <=

    0.2000               HF 

   => Correlation Functionals <=

    0.1900   Vosko, Wilk & Nusair (VWN5_RPA)
    0.8100   Lee, Yang & Parr

   => Molecular Quadrature <=

    Radial Scheme          =       TREUTLER
    Pruning Scheme         =           NONE
    Nuclear Scheme         =       TREUTLER

    BS radius alpha        =              1
    Pruning alpha          =              1
    Radial Points          =             99
    Spherical Points       =           1202
    Total Points           =        1004715
    Total Blocks           =           6724
    Max Points             =            256
    Max Functions          =            143
    Weights Tolerance      =       1.00E-15

   => Loading Basis Set <=

    Name: (ANONYMOUS9E82331B AUX)
    Role: JKFIT
    Keyword: DF_BASIS_SCF
    atoms 1-2 entry C          line   198 file /opt/psi/4/master/share/psi4/basis/def2-universal-jkfit.gbs 
    atoms 3   entry O          line   318 file /opt/psi/4/master/share/psi4/basis/def2-universal-jkfit.gbs 
    atoms 4   entry N          line   258 file /opt/psi/4/master/share/psi4/basis/def2-universal-jkfit.gbs 
    atoms 5-9 entry H          line    18 file /opt/psi/4/master/share/psi4/basis/def2-universal-jkfit.gbs 

  ==> Integral Setup <==

  DFHelper Memory: AOs need 0.066 GiB; user supplied 6.417 GiB. Using in-core AOs.

  ==> MemDFJK: Density-Fitted J/K Matrices <==

    J tasked:                   Yes
    K tasked:                   Yes
    wK tasked:                   No
    OpenMP threads:               1
    Memory [MiB]:              6570
    Algorithm:                 Core
    Schwarz Cutoff:           1E-12
    Mask sparsity (%):       0.9549
    Fitting Condition:        1E-10

   => Auxiliary Basis Set <=

  Basis Set: (ANONYMOUS9E82331B AUX)
    Blend: DEF2-UNIVERSAL-JKFIT
    Number of shells: 130
    Number of basis function: 394
    Number of Cartesian functions: 464
    Spherical Harmonics?: true
    Max angular momentum: 4

  Cached 100.0% of DFT collocation blocks in 3.362 [GiB].

  Minimum eigenvalue in the overlap matrix is 1.1088009262E-03.
  Reciprocal condition number of the overlap matrix is 2.0131541360E-04.
    Using symmetric orthogonalization.

  ==> Pre-Iterations <==

  SCF Guess: Superposition of Atomic Densities via on-the-fly atomic UHF (no occupation information).

   -------------------------
    Irrep   Nso     Nmo    
   -------------------------
     A        144     144 
   -------------------------
    Total     144     144
   -------------------------

  ==> Iterations <==

                           Total Energy        Delta E     RMS |[F,P]|

   @DF-RKS iter SAD:  -208.68527291896953   -2.08685e+02   0.00000e+00 
   @DF-RKS iter   1:  -208.90971905525797   -2.24446e-01   5.90903e-03 DIIS
   @DF-RKS iter   2:  -208.69413143958369    2.15588e-01   7.71326e-03 DIIS
   @DF-RKS iter   3:  -209.20007675807238   -5.05945e-01   1.88307e-03 DIIS
   @DF-RKS iter   4:  -209.22946448661406   -2.93877e-02   3.07904e-04 DIIS
   @DF-RKS iter   5:  -209.23007434180019   -6.09855e-04   1.42908e-04 DIIS
   @DF-RKS iter   6:  -209.23026358286180   -1.89241e-04   2.02104e-05 DIIS
   @DF-RKS iter   7:  -209.23026764957831   -4.06672e-06   2.36259e-06 DIIS
   @DF-RKS iter   8:  -209.23026769937718   -4.97989e-08   6.11452e-07 DIIS
   @DF-RKS iter   9:  -209.23026770282797   -3.45079e-09   2.31521e-07 DIIS
   @DF-RKS iter  10:  -209.23026770331811   -4.90132e-10   5.82552e-08 DIIS
   @DF-RKS iter  11:  -209.23026770335008   -3.19744e-11   1.24960e-08 DIIS
   @DF-RKS iter  12:  -209.23026770335127   -1.19371e-12   2.30061e-09 DIIS
   @DF-RKS iter  13:  -209.23026770335113    1.42109e-13   3.57482e-10 DIIS
   @DF-RKS iter  14:  -209.23026770335122   -8.52651e-14   1.04703e-10 DIIS
   @DF-RKS iter  15:  -209.23026770335161   -3.97904e-13   3.00506e-11 DIIS
  Energy and wave function converged.


  ==> Post-Iterations <==

    Orbital Energies [Eh]
    ---------------------

    Doubly Occupied:                                                      

       1A    -19.104207     2A    -14.348181     3A    -10.280388  
       4A    -10.184259     5A     -1.027516     6A     -0.900422  
       7A     -0.737907     8A     -0.582135     9A     -0.533962  
      10A     -0.466015    11A     -0.445470    12A     -0.400442  
      13A     -0.395583    14A     -0.364944    15A     -0.269841  
      16A     -0.245722  

    Virtual:                                                              

      17A      0.029809    18A      0.064522    19A      0.113288  
      20A      0.128956    21A      0.151703    22A      0.166377  
      23A      0.216593    24A      0.288104    25A      0.343771  
      26A      0.415185    27A      0.445278    28A      0.449160  
      29A      0.467776    30A      0.482462    31A      0.494598  
      32A      0.549894    33A      0.566197    34A      0.583963  
      35A      0.597709    36A      0.631367    37A      0.634666  
      38A      0.648281    39A      0.672178    40A      0.700312  
      41A      0.715292    42A      0.742480    43A      0.827519  
      44A      0.846757    45A      0.868539    46A      0.921158  
      47A      0.939974    48A      0.963232    49A      0.987922  
      50A      0.998067    51A      1.087899    52A      1.114733  
      53A      1.137437    54A      1.163297    55A      1.255772  
      56A      1.278106    57A      1.288786    58A      1.321687  
      59A      1.332369    60A      1.343446    61A      1.364408  
      62A      1.395084    63A      1.415176    64A      1.472864  
      65A      1.487449    66A      1.556216    67A      1.564220  
      68A      1.645641    69A      1.710832    70A      1.729217  
      71A      1.781938    72A      1.824297    73A      1.913698  
      74A      1.967683    75A      1.981610    76A      2.073515  
      77A      2.185364    78A      2.222278    79A      2.340819  
      80A      2.536329    81A      2.620468    82A      2.756786  
      83A      2.836506    84A      2.913043    85A      2.952245  
      86A      2.973319    87A      3.023149    88A      3.048058  
      89A      3.107725    90A      3.165578    91A      3.200455  
      92A      3.255195    93A      3.267446    94A      3.353766  
      95A      3.376749    96A      3.415636    97A      3.448010  
      98A      3.472364    99A      3.512002   100A      3.602042  
     101A      3.635472   102A      3.670140   103A      3.743970  
     104A      3.813803   105A      3.911151   106A      3.926394  
     107A      3.958833   108A      3.981987   109A      4.000563  
     110A      4.145378   111A      4.154425   112A      4.185658  
     113A      4.266612   114A      4.378038   115A      4.411408  
     116A      4.427554   117A      4.463652   118A      4.490859  
     119A      4.523841   120A      4.566061   121A      4.741630  
     122A      4.789639   123A      4.949821   124A      5.051270  
     125A      5.080436   126A      5.106569   127A      5.142831  
     128A      5.163372   129A      5.245647   130A      5.248764  
     131A      5.324695   132A      5.405667   133A      5.612672  
     134A      5.702903   135A      5.819663   136A      5.892737  
     137A      5.987454   138A      6.044668   139A      6.460768  
     140A      6.885569   141A      6.893698   142A      7.184957  
     143A      7.384182   144A      7.602487  

    Final Occupation by Irrep:
              A 
    DOCC [    16 ]

  @DF-RKS Final Energy:  -209.23026770335161

   => Energetics <=

    Nuclear Repulsion Energy =            121.6944893215092094
    One-Electron Energy =                -524.8430393560124685
    Two-Electron Energy =                 216.7882651438511914
    DFT Exchange-Correlation Energy =     -22.8699828126995364
    Empirical Dispersion Energy =           0.0000000000000000
    VV10 Nonlocal Energy =                  0.0000000000000000
    Total Energy =                       -209.2302677033516147

Computation Completed


Properties will be evaluated at   0.000000,   0.000000,   0.000000 [a0]

Properties computed using the SCF density matrix

  Nuclear Dipole Moment: [e a0]
     X:     2.8351      Y:     3.4529      Z:    -0.3603

  Electronic Dipole Moment: [e a0]
     X:    -2.6178      Y:    -2.0846      Z:     0.1289

  Dipole Moment: [e a0]
     X:     0.2173      Y:     1.3683      Z:    -0.2314     Total:     1.4046

  Dipole Moment: [D]
     X:     0.5524      Y:     3.4779      Z:    -0.5881     Total:     3.5702


*** tstop() called on n084 at Wed Nov  3 17:17:14 2021
Module time:
	user time   =      55.57 seconds =       0.93 minutes
	system time =       0.96 seconds =       0.02 minutes
	total time  =         57 seconds =       0.95 minutes
Total time:
	user time   =      55.57 seconds =       0.93 minutes
	system time =       0.96 seconds =       0.02 minutes
	total time  =         57 seconds =       0.95 minutes
Grab this energy -209.23026770335161
    Psi4 stopped on: Wednesday, 03 November 2021 05:17PM
    Psi4 wall time for execution: 0:00:56.57

*** Psi4 exiting successfully. Buy a developer a beer!
